ITEM: TIMESTEP
5000000
ITEM: NUMBER OF ATOMS
151
ITEM: BOX BOUNDS ff ff ff
-1.0000000000000000e-02 1.0000000000000000e-02
-6.0000000000000001e-03 6.0000000000000001e-03
-5.2499999999999998e-02 5.2499999999999998e-02
ITEM: ATOMS id type radius x y z fx fy fz c_bendingE c_stretchingE
1 1 0.001 0 0 -0.0475 -0.00547033 0 -0.0163623 0 4.61014e-09
3 3 0.001 0.000481186 0 -0.0470909 1.28879e-10 0 9.11697e-11 0 9.26351e-09
4 3 0.001 0.000960079 0 -0.0466791 -8.74899e-10 0 1.15796e-09 0 1.35e-08
5 3 0.001 0.00143618 0 -0.0462651 3.4479e-09 0 -3.96924e-09 0 1.80455e-08
6 3 0.001 0.0019088 0 -0.0458473 -5.38621e-09 0 5.87775e-09 0 1.85138e-08
7 3 0.001 0.00237679 0 -0.0454242 5.03441e-09 0 -5.68038e-09 0 1.87716e-08
8 3 0.001 0.00283896 0 -0.0449948 -3.00804e-09 0 3.25467e-09 0 1.90789e-08
9 3 0.001 0.00329409 0 -0.0445581 8.91157e-10 0 -7.86982e-10 0 1.94309e-08
10 3 0.001 0.00374096 0 -0.0441129 6.55471e-10 0 -5.70744e-10 0 1.98217e-08
11 3 0.001 0.00417831 0 -0.0436583 3.78568e-10 0 -2.943e-10 0 2.02446e-08
12 3 0.001 0.00460487 0 -0.0431937 -1.39654e-10 0 1.08073e-10 0 2.06919e-08
13 3 0.001 0.00501937 0 -0.0427183 -1.96734e-09 0 1.40888e-09 0 2.11551e-08
14 3 0.001 0.00542052 0 -0.0422317 4.92341e-09 0 -3.95895e-09 0 2.16249e-08
15 3 0.001 0.00580706 0 -0.0417334 -4.67462e-09 0 3.68085e-09 0 2.20912e-08
16 3 0.001 0.00617775 0 -0.0412232 1.88743e-09 0 -1.41376e-09 0 2.25438e-08
17 3 0.001 0.00653137 0 -0.0407011 1.71531e-09 0 -1.10435e-09 0 2.29723e-08
18 3 0.001 0.00686676 0 -0.0401671 -1.58239e-09 0 9.6693e-10 0 2.33663e-08
19 3 0.001 0.00718285 0 -0.0396215 -5.96921e-10 0 1.65572e-10 0 2.3716e-08
20 3 0.001 0.00747862 0 -0.0390647 2.5538e-09 0 -1.3482e-09 0 2.40125e-08
21 3 0.001 0.00775317 0 -0.0384971 -1.35108e-09 0 6.57076e-10 0 2.4248e-08
22 3 0.001 0.00800571 0 -0.0379194 2.14606e-10 0 -2.03463e-10 0 2.44163e-08
23 3 0.001 0.0082356 0 -0.0373323 -3.63118e-10 0 -7.43618e-12 0 2.45127e-08
24 3 0.001 0.00844233 0 -0.0367367 2.20514e-09 0 -6.77137e-10 0 2.45346e-08
25 3 0.001 0.00862554 0 -0.0361334 -3.24882e-09 0 8.42389e-10 0 2.44813e-08
26 3 0.001 0.00878504 0 -0.0355234 2.57895e-09 0 -7.82198e-10 0 2.43545e-08
27 3 0.001 0.00892081 0 -0.0349077 -7.53778e-10 0 1.58088e-10 0 2.41574e-08
28 3 0.001 0.00903301 0 -0.0342872 1.03301e-09 0 -1.97564e-10 0 2.38871e-08
29 3 0.001 0.00912194 0 -0.033663 -1.24434e-09 0 1.39114e-11 0 2.3517e-08
30 3 0.001 0.00918809 0 -0.0330359 2.1628e-10 0 -1.52627e-10 0 2.30666e-08
31 3 0.001 0.00923203 0 -0.0324069 2.30053e-10 0 -3.71949e-11 0 2.26207e-08
32 3 0.001 0.00925437 0 -0.0317766 7.40055e-10 0 -1.56887e-11 0 2.2252e-08
33 3 0.001 0.0092557 0 -0.031146 -2.79535e-09 0 -1.21349e-10 0 2.19975e-08
34 3 0.001 0.00923658 0 -0.0305157 3.84733e-09 0 1.12878e-10 0 2.18555e-08
35 3 0.001 0.0091975 0 -0.0298862 -2.32686e-09 0 -2.77447e-10 0 2.17893e-08
36 3 0.001 0.0091389 0 -0.0292583 4.51957e-10 0 -9.53095e-11 0 2.17382e-08
37 3 0.001 0.00906125 0 -0.0286324 -9.43022e-10 0 -2.01025e-10 0 2.16358e-08
38 3 0.001 0.00896502 0 -0.0280091 2.05767e-11 0 -4.2715e-11 0 2.14587e-08
39 3 0.001 0.00885077 0 -0.0273889 4.97587e-10 0 1.47502e-10 0 2.12352e-08
42 3 0.001 0.00840706 0 -0.02555 -9.29723e-10 0 -3.61275e-10 0 2.04454e-08
40 3 0.001 0.00871918 0 -0.0267721 -2.20307e-10 0 -3.33639e-11 0 2.09881e-08
41 3 0.001 0.008571 0 -0.026159 -5.25816e-11 0 -1.06099e-10 0 2.07229e-08
44 3 0.001 0.00803563 0 -0.0243445 -1.56897e-09 0 -5.07559e-10 0 1.98769e-08
43 3 0.001 0.00822828 0 -0.0249451 8.59544e-10 0 2.47723e-10 0 2.01615e-08
46 3 0.001 0.00761291 0 -0.0231559 1.9263e-10 0 6.83838e-11 0 1.93282e-08
45 3 0.001 0.00783015 0 -0.0237481 3.98826e-10 0 1.21289e-10 0 1.95973e-08
47 3 0.001 0.00738503 0 -0.0225677 4.21287e-10 0 1.90171e-10 0 1.90746e-08
48 3 0.001 0.00714766 0 -0.0219832 -3.67961e-09 0 -1.55804e-09 0 1.8841e-08
49 3 0.001 0.00690199 0 -0.0214022 4.54355e-09 0 1.95509e-09 0 1.86315e-08
51 3 0.001 0.00639053 0 -0.0202488 1.36527e-09 0 6.01505e-10 0 1.82987e-08
50 3 0.001 0.00664921 0 -0.0208242 -4.32855e-09 0 -2.01453e-09 0 1.84497e-08
52 3 0.001 0.00612719 0 -0.0196755 -5.41503e-10 0 -5.60584e-11 0 1.81808e-08
53 3 0.001 0.00586042 0 -0.0191038 2.11785e-09 0 1.08812e-09 0 1.8098e-08
54 3 0.001 0.00559146 0 -0.0185331 -5.11751e-09 0 -2.52881e-09 0 1.80515e-08
57 3 0.001 0.00478392 0 -0.0168213 2.74816e-09 0 1.35654e-09 0 1.81342e-08
56 3 0.001 0.00505196 0 -0.0173924 -5.62271e-09 0 -2.6716e-09 0 1.80697e-08
55 3 0.001 0.00532156 0 -0.0179628 5.23652e-09 0 2.39824e-09 0 1.8042e-08
59 3 0.001 0.00425748 0 -0.0156746 -2.09107e-09 0 -8.95871e-10 0 1.83689e-08
58 3 0.001 0.00451868 0 -0.0162489 5.19042e-10 0 3.37631e-10 0 1.82345e-08
60 3 0.001 0.00400155 0 -0.015098 3.66999e-10 0 1.22095e-10 0 1.85354e-08
62 3 0.001 0.00351037 0 -0.0139359 -1.69088e-09 0 -7.19354e-10 0 1.8953e-08
61 3 0.001 0.00375211 0 -0.0145186 5.39343e-10 0 1.52521e-10 0 1.87312e-08
63 3 0.001 0.00327752 0 -0.0133496 2.02738e-09 0 7.69383e-10 0 1.9197e-08
64 3 0.001 0.00305473 0 -0.0127594 -3.438e-09 0 -1.17523e-09 0 1.94589e-08
65 3 0.001 0.00284313 0 -0.0121652 3.20236e-09 0 1.19382e-09 0 1.97338e-08
66 3 0.001 0.00264382 0 -0.0115667 -1.19534e-09 0 -5.05181e-10 0 2.00165e-08
67 3 0.001 0.00245787 0 -0.010964 -9.98147e-10 0 -3.68361e-10 0 2.03015e-08
69 3 0.001 0.00212997 0 -0.00974603 -1.32882e-09 0 -3.075e-10 0 2.08552e-08
70 3 0.001 0.00198984 0 -0.00913109 9.02259e-10 0 2.90521e-10 0 2.11122e-08
68 3 0.001 0.00228627 0 -0.0103571 1.26189e-09 0 3.36733e-10 0 2.0583e-08
71 3 0.001 0.00186669 0 -0.00851255 1.25324e-10 0 3.59431e-11 0 2.13484e-08
72 3 0.001 0.00176122 0 -0.00789076 -1.88114e-09 0 -3.59493e-10 0 2.15585e-08
73 3 0.001 0.00167405 0 -0.00726615 2.94024e-09 0 2.80621e-10 0 2.17375e-08
74 3 0.001 0.00160571 0 -0.00663921 -2.44274e-09 0 -2.43145e-10 0 2.18815e-08
75 3 0.001 0.00155659 0 -0.00601049 6.86515e-10 0 1.16155e-10 0 2.19868e-08
76 3 0.001 0.00152701 0 -0.00538054 1.38918e-09 0 7.788e-11 0 2.20511e-08
77 3 0.001 0.00151712 0 -0.00474998 -1.88105e-09 0 7.11738e-11 0 2.20727e-08
78 3 0.001 0.001527 0 -0.00411943 9.40171e-10 0 -6.06756e-11 0 2.20511e-08
79 3 0.001 0.00155659 0 -0.00348948 -3.90564e-10 0 -1.12261e-10 0 2.19868e-08
80 3 0.001 0.0016057 0 -0.00286076 8.16239e-10 0 -9.55475e-11 0 2.18815e-08
81 3 0.001 0.00167404 0 -0.00223382 -1.49542e-09 0 3.22774e-10 0 2.17376e-08
82 3 0.001 0.0017612 0 -0.00160921 1.32157e-09 0 -8.36294e-11 0 2.15586e-08
83 3 0.001 0.00186667 0 -0.000987419 -1.69468e-10 0 2.10953e-11 0 2.13485e-08
84 3 0.001 0.00198982 0 -0.000368873 -1.41426e-10 0 -4.42467e-11 0 2.11123e-08
85 3 0.001 0.00212994 0 0.000246066 -1.55906e-09 0 4.07622e-10 0 2.08553e-08
86 3 0.001 0.00228624 0 0.000857112 2.43627e-09 0 -5.65677e-10 0 2.05832e-08
87 3 0.001 0.00245784 0 0.00146406 -1.36093e-09 0 4.05148e-10 0 2.03016e-08
88 3 0.001 0.00264379 0 0.00206678 -3.80466e-10 0 1.20475e-10 0 2.00167e-08
89 3 0.001 0.0028431 0 0.00266524 -4.97326e-10 0 1.90856e-10 0 1.97339e-08
90 3 0.001 0.00305469 0 0.00325948 1.29567e-09 0 -4.70061e-10 0 1.94591e-08
91 3 0.001 0.00327748 0 0.00384964 5.18863e-10 0 -2.23167e-10 0 1.91972e-08
92 3 0.001 0.00351033 0 0.00443591 -4.37523e-09 0 1.88202e-09 0 1.89532e-08
93 3 0.001 0.00375207 0 0.0050186 4.67008e-09 0 -1.92677e-09 0 1.87314e-08
94 3 0.001 0.00400151 0 0.00559805 -2.39027e-09 0 9.50414e-10 0 1.85356e-08
95 3 0.001 0.00425744 0 0.00617467 -1.56477e-09 0 7.23949e-10 0 1.83691e-08
96 3 0.001 0.00451864 0 0.00674893 2.59902e-09 0 -1.14647e-09 0 1.82347e-08
97 3 0.001 0.00478388 0 0.00732135 -1.58871e-09 0 7.22821e-10 0 1.81344e-08
98 3 0.001 0.00505192 0 0.00789247 -1.48661e-09 0 6.98611e-10 0 1.80699e-08
99 3 0.001 0.00532152 0 0.00846286 1.89154e-09 0 -9.03078e-10 0 1.80422e-08
100 3 0.001 0.00559142 0 0.00903311 -1.2394e-09 0 5.89841e-10 0 1.80517e-08
101 3 0.001 0.00586038 0 0.00960379 -8.28085e-11 0 5.00452e-11 0 1.80982e-08
102 3 0.001 0.00612715 0 0.0101755 -1.39397e-09 0 6.32388e-10 0 1.8181e-08
103 3 0.001 0.00639049 0 0.0107488 3.26795e-09 0 -1.4783e-09 0 1.82989e-08
104 3 0.001 0.00664917 0 0.0113242 -5.7563e-09 0 2.58736e-09 0 1.845e-08
105 3 0.001 0.00690196 0 0.0119022 5.59542e-09 0 -2.38305e-09 0 1.86317e-08
106 3 0.001 0.00714763 0 0.0124832 -5.76863e-09 0 2.37108e-09 0 1.88412e-08
107 3 0.001 0.007385 0 0.0130677 4.4777e-09 0 -1.81717e-09 0 1.90748e-08
108 3 0.001 0.00761288 0 0.0136559 -4.00131e-09 0 1.54313e-09 0 1.93285e-08
109 3 0.001 0.00783012 0 0.0142481 2.2063e-09 0 -7.65184e-10 0 1.95976e-08
110 3 0.001 0.00803561 0 0.0148445 -3.63261e-11 0 1.51819e-10 0 1.98771e-08
111 3 0.001 0.00822826 0 0.0154451 -3.05383e-09 0 9.75323e-10 0 2.01617e-08
112 3 0.001 0.00840704 0 0.01605 3.57912e-09 0 -1.09212e-09 0 2.04457e-08
113 3 0.001 0.00857098 0 0.0166591 -2.94369e-09 0 7.59329e-10 0 2.07232e-08
114 3 0.001 0.00871916 0 0.0172721 1.93339e-09 0 -3.74057e-10 0 2.09884e-08
115 3 0.001 0.00885076 0 0.0178889 -3.30317e-09 0 7.40402e-10 0 2.12356e-08
116 3 0.001 0.00896501 0 0.0185092 4.12131e-09 0 -5.65008e-10 0 2.14591e-08
117 3 0.001 0.00906124 0 0.0191325 -3.99356e-09 0 6.8918e-10 0 2.16362e-08
118 3 0.001 0.0091389 0 0.0197583 8.65188e-10 0 -1.34318e-10 0 2.17386e-08
119 3 0.001 0.00919749 0 0.0203862 2.86678e-09 0 -2.11843e-10 0 2.17897e-08
120 3 0.001 0.00923658 0 0.0210157 -3.92325e-09 0 2.1382e-10 0 2.18559e-08
121 3 0.001 0.00925571 0 0.021646 2.50251e-09 0 2.45056e-11 0 2.1998e-08
122 3 0.001 0.00925437 0 0.0222767 -1.94515e-09 0 1.05847e-10 0 2.22524e-08
123 3 0.001 0.00923204 0 0.0229069 2.10897e-09 0 3.11419e-10 0 2.26212e-08
124 3 0.001 0.0091881 0 0.0235359 -3.15193e-09 0 -2.31495e-10 0 2.30671e-08
125 3 0.001 0.00912196 0 0.024163 3.18602e-09 0 3.35878e-10 0 2.35175e-08
126 3 0.001 0.00903302 0 0.0247873 1.46781e-10 0 1.79462e-10 0 2.38877e-08
127 3 0.001 0.00892083 0 0.0254077 -4.24786e-09 0 -8.68299e-10 0 2.4158e-08
128 3 0.001 0.00878506 0 0.0260234 6.13997e-09 0 1.56918e-09 0 2.43551e-08
129 3 0.001 0.00862556 0 0.0266334 -3.57657e-09 0 -7.43303e-10 0 2.4482e-08
130 3 0.001 0.00844235 0 0.0272367 -6.64153e-10 0 -2.19377e-10 0 2.45353e-08
131 3 0.001 0.00823563 0 0.0278323 2.98791e-09 0 1.06069e-09 0 2.45134e-08
132 3 0.001 0.00800574 0 0.0284194 -2.83545e-09 0 -1.16868e-09 0 2.4417e-08
133 3 0.001 0.00775319 0 0.0289971 2.95272e-09 0 1.49206e-09 0 2.42488e-08
134 3 0.001 0.00747865 0 0.0295647 -2.04913e-09 0 -9.09016e-10 0 2.40133e-08
136 3 0.001 0.00686679 0 0.0306672 7.39358e-12 0 8.82733e-11 0 2.3367e-08
137 3 0.001 0.0065314 0 0.0312011 -4.13049e-10 0 -3.93047e-10 0 2.2973e-08
135 3 0.001 0.00718288 0 0.0301216 1.34173e-09 0 8.28843e-10 0 2.37168e-08
138 3 0.001 0.00617777 0 0.0317233 1.08197e-09 0 7.1049e-10 0 2.25446e-08
139 3 0.001 0.00580709 0 0.0322334 -6.86572e-10 0 -4.29772e-10 0 2.2092e-08
140 3 0.001 0.00542054 0 0.0327317 -3.85125e-10 0 -2.95926e-10 0 2.16256e-08
141 3 0.001 0.00501939 0 0.0332184 2.19167e-09 0 1.9754e-09 0 2.11558e-08
142 3 0.001 0.00460489 0 0.0336938 -2.36565e-09 0 -2.05047e-09 0 2.06926e-08
143 3 0.001 0.00417833 0 0.0341584 2.60646e-09 0 2.37083e-09 0 2.02453e-08
144 3 0.001 0.00374098 0 0.0346129 -2.10579e-09 0 -2.17971e-09 0 1.98223e-08
145 3 0.001 0.00329411 0 0.0350581 2.48328e-09 0 2.55873e-09 0 1.94315e-08
146 3 0.001 0.00283897 0 0.0354949 -2.22796e-09 0 -2.28839e-09 0 1.90796e-08
148 3 0.001 0.00190881 0 0.0363473 -1.29175e-09 0 -1.43153e-09 0 1.85144e-08
149 3 0.001 0.00143619 0 0.0367651 1.78744e-09 0 1.98439e-09 0 1.80461e-08
150 3 0.001 0.000960085 0 0.0371791 -1.62265e-09 0 -1.96591e-09 0 1.35005e-08
147 3 0.001 0.0023768 0 0.0359242 1.74964e-09 0 1.93498e-09 0 1.87723e-08
151 3 0.001 0.000481188 0 0.0375909 8.69071e-10 0 1.05453e-09 0 9.26396e-09
2 2 0.001 0 0 0.038 -0.0054705 0 0.0163626 0 4.61037e-09
