ITEM: TIMESTEP
9300000
ITEM: NUMBER OF ATOMS
151
ITEM: BOX BOUNDS ff ff ff
-1.0000000000000000e-02 1.0000000000000000e-02
-6.0000000000000001e-03 6.0000000000000001e-03
-5.2499999999999998e-02 5.2499999999999998e-02
ITEM: ATOMS id type radius x y z fx fy fz c_bendingE c_stretchingE
1 1 0.001 0 0 -0.0475 -0.00185229 0 -0.0146241 0 1.33532e-09
3 3 0.001 0.00051944 0 -0.0471393 1.4484e-10 0 -2.23624e-10 0 2.70596e-09
4 3 0.001 0.00103639 0 -0.0467751 -2.37904e-10 0 3.58603e-10 0 5.3324e-09
5 3 0.001 0.00155029 0 -0.0464077 1.40311e-10 0 -1.94984e-10 0 8.18592e-09
6 3 0.001 0.00206038 0 -0.0460351 3.21715e-11 0 -7.66872e-11 0 8.56975e-09
7 3 0.001 0.00256534 0 -0.0456556 -3.79494e-11 0 7.98137e-11 0 8.84234e-09
8 3 0.001 0.0030638 0 -0.0452677 -1.27917e-10 0 1.74464e-10 0 9.17374e-09
9 3 0.001 0.00355433 0 -0.0448699 3.25751e-10 0 -4.27841e-10 0 9.56235e-09
10 3 0.001 0.00403543 0 -0.0444608 -2.8128e-10 0 3.4422e-10 0 1.00058e-08
11 3 0.001 0.00450552 0 -0.0440391 -5.98402e-11 0 6.19462e-11 0 1.05005e-08
12 3 0.001 0.00496296 0 -0.0436038 3.549e-10 0 -3.73953e-10 0 1.10421e-08
13 3 0.001 0.00540605 0 -0.043154 -1.93074e-10 0 2.29731e-10 0 1.16244e-08
14 3 0.001 0.00583303 0 -0.0426889 -1.78542e-10 0 1.33418e-10 0 1.22401e-08
15 3 0.001 0.0062421 0 -0.0422081 2.48425e-10 0 -2.49453e-10 0 1.28799e-08
16 3 0.001 0.00663141 0 -0.0417112 -8.9995e-11 0 8.91635e-11 0 1.35334e-08
17 3 0.001 0.00699913 0 -0.0411982 1.33629e-11 0 3.54703e-11 0 1.41884e-08
18 3 0.001 0.00734344 0 -0.0406692 -9.10107e-11 0 5.54791e-11 0 1.48316e-08
19 3 0.001 0.00766254 0 -0.0401248 1.04901e-10 0 -7.11416e-11 0 1.54489e-08
20 3 0.001 0.00795474 0 -0.0395654 1.90531e-11 0 8.08686e-12 0 1.60258e-08
21 3 0.001 0.00821843 0 -0.0389922 -8.69174e-11 0 -4.92784e-12 0 1.65475e-08
22 3 0.001 0.00845213 0 -0.038406 2.72865e-11 0 -2.62654e-11 0 1.70004e-08
23 3 0.001 0.00865453 0 -0.0378084 -1.77556e-10 0 1.07638e-10 0 1.73719e-08
24 3 0.001 0.00882452 0 -0.0372008 8.89361e-11 0 -1.5277e-12 0 1.76513e-08
25 3 0.001 0.00896119 0 -0.0365849 1.85048e-10 0 -2.03042e-11 0 1.78305e-08
26 3 0.001 0.00906388 0 -0.0359624 -2.55598e-10 0 4.25456e-11 0 1.78888e-08
27 3 0.001 0.00913217 0 -0.0353352 3.48989e-10 0 -6.8786e-11 0 1.78248e-08
28 3 0.001 0.00916588 0 -0.0347052 -7.10455e-10 0 -5.9535e-12 0 1.76997e-08
29 3 0.001 0.00916504 0 -0.0340743 6.02029e-10 0 6.51945e-11 0 1.75779e-08
30 3 0.001 0.00912982 0 -0.0334443 -3.67353e-11 0 7.04462e-11 0 1.74593e-08
31 3 0.001 0.00906057 0 -0.0328172 -7.14377e-10 0 -1.17797e-10 0 1.72824e-08
32 3 0.001 0.00895784 0 -0.0321947 8.21304e-10 0 1.4214e-10 0 1.69961e-08
33 3 0.001 0.00882236 0 -0.0315784 -1.53864e-10 0 7.34022e-13 0 1.66104e-08
34 3 0.001 0.00865512 0 -0.03097 -3.64872e-10 0 -1.21955e-10 0 1.61502e-08
35 3 0.001 0.00845727 0 -0.0303708 4.0077e-11 0 1.92777e-11 0 1.56278e-08
37 3 0.001 0.00797533 0 -0.0292046 -1.04053e-09 0 -4.84579e-10 0 1.44508e-08
36 3 0.001 0.00823018 0 -0.0297819 5.71025e-10 0 2.64634e-10 0 1.50566e-08
38 3 0.001 0.00769433 0 -0.0286394 8.77668e-10 0 5.06992e-10 0 1.3824e-08
39 3 0.001 0.0073889 0 -0.028087 -4.1112e-10 0 -2.0568e-10 0 1.31897e-08
40 3 0.001 0.00706079 0 -0.0275477 2.1462e-11 0 -2.76264e-11 0 1.25602e-08
43 3 0.001 0.00595864 0 -0.0260082 3.87764e-10 0 3.61597e-10 0 1.08055e-08
42 3 0.001 0.00634385 0 -0.0265085 -2.68122e-10 0 -1.75986e-10 0 1.1359e-08
41 3 0.001 0.00671184 0 -0.0270216 9.77126e-11 0 7.10704e-11 0 1.19467e-08
46 3 0.001 0.00471762 0 -0.0245773 4.31928e-10 0 3.53181e-10 0 9.41112e-09
45 3 0.001 0.00514378 0 -0.0250434 -9.53167e-11 0 -1.06237e-10 0 9.82674e-09
47 3 0.001 0.00428122 0 -0.0241208 -6.30258e-10 0 -6.06714e-10 0 9.04912e-09
44 3 0.001 0.00555804 0 -0.0255201 -3.047e-10 0 -1.98283e-10 0 1.02929e-08
49 3 0.001 0.00338417 0 -0.0232313 -7.50434e-10 0 -7.60834e-10 0 8.494e-09
50 3 0.001 0.00292665 0 -0.0227958 2.3876e-10 0 2.27894e-10 0 8.30324e-09
48 3 0.001 0.00383621 0 -0.0236725 7.67827e-10 0 8.65869e-10 0 8.74293e-09
53 3 0.001 0.00153602 0 -0.0215084 -2.55143e-10 0 -2.53221e-10 0 8.08416e-09
52 3 0.001 0.00200111 0 -0.0219359 5.44443e-11 0 3.89317e-11 0 8.09811e-09
51 3 0.001 0.00246513 0 -0.0223645 1.56296e-10 0 1.94438e-10 0 8.17118e-09
56 3 0.001 0.000148837 0 -0.0202173 2.19699e-10 0 2.37562e-10 0 8.39673e-09
57 3 0.001 -0.000305976 0 -0.019779 -6.29699e-10 0 -6.06357e-10 0 8.61831e-09
55 3 0.001 0.000608427 0 -0.0206506 1.2016e-10 0 9.83527e-11 0 8.2336e-09
54 3 0.001 0.00107131 0 -0.0210805 1.26844e-11 0 5.98661e-11 0 8.12935e-09
60 3 0.001 -0.00162636 0 -0.0184203 7.68098e-10 0 7.12728e-10 0 9.62418e-09
59 3 0.001 -0.00119516 0 -0.0188817 -7.6464e-10 0 -7.37359e-10 0 9.23353e-09
58 3 0.001 -0.000754494 0 -0.0193342 7.51709e-10 0 7.51019e-10 0 8.89764e-09
63 3 0.001 -0.00284639 0 -0.0169716 1.34542e-10 0 1.41233e-10 0 1.10932e-08
61 3 0.001 -0.00204644 0 -0.0179487 -5.67366e-10 0 -5.14928e-10 0 1.0067e-08
62 3 0.001 -0.0024537 0 -0.0174661 1.5357e-10 0 1.46566e-10 0 1.05583e-08
65 3 0.001 -0.00358089 0 -0.0159447 -3.51351e-11 0 -5.74717e-11 0 1.22682e-08
64 3 0.001 -0.00322273 0 -0.0164646 -1.54239e-10 0 -1.10074e-10 0 1.16657e-08
66 3 0.001 -0.00391906 0 -0.0154116 3.7555e-10 0 2.31479e-10 0 1.28914e-08
68 3 0.001 -0.00452815 0 -0.0143062 1.03889e-09 0 5.22111e-10 0 1.41569e-08
67 3 0.001 -0.00423541 0 -0.0148654 -7.79981e-10 0 -4.13029e-10 0 1.3525e-08
69 3 0.001 -0.00479554 0 -0.0137345 -9.34409e-10 0 -3.96507e-10 0 1.47744e-08
70 3 0.001 -0.00503592 0 -0.0131509 5.43865e-10 0 2.2738e-10 0 1.53636e-08
71 3 0.001 -0.00524774 0 -0.0125565 -2.42232e-10 0 -1.01939e-10 0 1.59108e-08
72 3 0.001 -0.00542957 0 -0.0119522 -5.31876e-11 0 -1.47492e-11 0 1.6402e-08
73 3 0.001 -0.00558016 0 -0.0113395 1.3514e-10 0 2.13682e-11 0 1.68243e-08
74 3 0.001 -0.00569845 0 -0.0107197 1.03967e-10 0 -2.09623e-12 0 1.71661e-08
75 3 0.001 -0.00578357 0 -0.0100945 -3.84756e-10 0 -6.80923e-12 0 1.74176e-08
76 3 0.001 -0.00583489 0 -0.00946567 3.77812e-10 0 5.5824e-11 0 1.75716e-08
77 3 0.001 -0.00585205 0 -0.00883498 -4.44732e-11 0 -3.47039e-11 0 1.76235e-08
78 3 0.001 -0.0058349 0 -0.00820429 -5.40826e-10 0 3.56946e-11 0 1.75716e-08
79 3 0.001 -0.00578358 0 -0.00757545 8.42414e-10 0 -1.06591e-10 0 1.74177e-08
80 3 0.001 -0.00569846 0 -0.00695027 -7.1468e-10 0 6.95071e-11 0 1.71661e-08
81 3 0.001 -0.00558018 0 -0.0063305 3.39389e-10 0 -2.90496e-11 0 1.68244e-08
82 3 0.001 -0.00542959 0 -0.00571774 -2.26087e-10 0 1.13073e-10 0 1.64021e-08
83 3 0.001 -0.00524776 0 -0.00511348 5.38438e-10 0 -2.2734e-10 0 1.59109e-08
84 3 0.001 -0.00503595 0 -0.00451903 -7.66477e-10 0 2.77491e-10 0 1.53638e-08
85 3 0.001 -0.00479557 0 -0.00393549 4.97709e-10 0 -2.05762e-10 0 1.47745e-08
86 3 0.001 -0.00452818 0 -0.00336379 -3.6245e-10 0 1.70443e-10 0 1.41571e-08
87 3 0.001 -0.00423544 0 -0.00280458 5.30659e-10 0 -3.07355e-10 0 1.35251e-08
88 3 0.001 -0.00391909 0 -0.00225832 -5.82691e-10 0 3.68465e-10 0 1.28916e-08
89 3 0.001 -0.00358093 0 -0.00172523 3.44712e-10 0 -2.29635e-10 0 1.22684e-08
90 3 0.001 -0.00322277 0 -0.00120531 -6.84955e-11 0 1.92139e-11 0 1.16659e-08
91 3 0.001 -0.00284644 0 -0.000698325 -3.02527e-11 0 5.29569e-11 0 1.10934e-08
92 3 0.001 -0.00245375 0 -0.000203839 7.93515e-11 0 -7.67451e-11 0 1.05584e-08
93 3 0.001 -0.00204649 0 0.000278777 -3.35692e-10 0 2.66899e-10 0 1.00671e-08
94 3 0.001 -0.0016264 0 0.000750332 6.4423e-10 0 -5.91217e-10 0 9.62435e-09
95 3 0.001 -0.0011952 0 0.0012118 -7.30957e-10 0 6.7961e-10 0 9.23369e-09
96 3 0.001 -0.000754542 0 0.00166428 4.80746e-10 0 -4.84679e-10 0 8.89779e-09
97 3 0.001 -0.000306024 0 0.00210902 -9.73132e-11 0 1.34037e-10 0 8.61846e-09
98 3 0.001 0.00014879 0 0.00254736 -6.34963e-11 0 4.4356e-11 0 8.39687e-09
99 3 0.001 0.00060838 0 0.00298071 8.13896e-11 0 -1.18859e-10 0 8.23374e-09
100 3 0.001 0.00107126 0 0.00341057 -2.59526e-10 0 2.88924e-10 0 8.12948e-09
101 3 0.001 0.00153597 0 0.00383845 5.18524e-10 0 -5.88897e-10 0 8.08428e-09
102 3 0.001 0.00200106 0 0.00426593 -5.43207e-10 0 5.70277e-10 0 8.09823e-09
103 3 0.001 0.00246509 0 0.00469456 2.06638e-10 0 -2.07e-10 0 8.1713e-09
104 3 0.001 0.0029266 0 0.00512587 1.75618e-10 0 -1.85905e-10 0 8.30336e-09
105 3 0.001 0.00338413 0 0.00556139 -3.48626e-10 0 3.15143e-10 0 8.49412e-09
106 3 0.001 0.00383617 0 0.00600258 3.07727e-10 0 -3.20395e-10 0 8.74306e-09
107 3 0.001 0.00428118 0 0.00645081 -1.48607e-10 0 1.42038e-10 0 9.04925e-09
108 3 0.001 0.00471758 0 0.00690738 -5.75108e-11 0 5.37972e-12 0 9.41125e-09
109 3 0.001 0.00514375 0 0.00737347 -1.24143e-10 0 1.14437e-10 0 9.82689e-09
110 3 0.001 0.005558 0 0.00785013 6.87871e-10 0 -5.57575e-10 0 1.02931e-08
111 3 0.001 0.00595861 0 0.00833825 -1.11521e-09 0 8.37325e-10 0 1.08057e-08
112 3 0.001 0.00634382 0 0.00883856 7.24033e-10 0 -5.69587e-10 0 1.13592e-08
113 3 0.001 0.00671181 0 0.0093516 7.26726e-11 0 -3.87094e-11 0 1.19469e-08
114 3 0.001 0.00706077 0 0.00987772 -5.69551e-10 0 3.29408e-10 0 1.25604e-08
115 3 0.001 0.00738887 0 0.010417 4.58564e-10 0 -2.77026e-10 0 1.31899e-08
116 3 0.001 0.00769431 0 0.0109694 -3.03514e-10 0 1.56709e-10 0 1.38242e-08
117 3 0.001 0.00797531 0 0.0115346 2.86134e-10 0 -1.5293e-10 0 1.4451e-08
118 3 0.001 0.00823017 0 0.012112 -3.45404e-10 0 1.31521e-10 0 1.50569e-08
119 3 0.001 0.00845726 0 0.0127008 1.40633e-10 0 -5.48665e-11 0 1.56281e-08
120 3 0.001 0.00865511 0 0.0133 3.84294e-11 0 -5.77403e-11 0 1.61505e-08
121 3 0.001 0.00882236 0 0.0139085 3.37312e-12 0 -1.56171e-11 0 1.66108e-08
122 3 0.001 0.00895784 0 0.0145247 -3.96668e-10 0 9.2254e-11 0 1.69965e-08
123 3 0.001 0.00906057 0 0.0151472 7.13338e-10 0 -9.42964e-11 0 1.72828e-08
124 3 0.001 0.00912982 0 0.0157744 -8.04068e-10 0 5.20986e-11 0 1.74597e-08
125 3 0.001 0.00916505 0 0.0164043 5.85471e-10 0 -5.0326e-11 0 1.75784e-08
126 3 0.001 0.0091659 0 0.0170352 -3.84686e-10 0 -3.73864e-11 0 1.77002e-08
127 3 0.001 0.00913219 0 0.0176653 3.03772e-10 0 2.8431e-11 0 1.78253e-08
128 3 0.001 0.0090639 0 0.0182925 -8.56221e-11 0 3.51655e-11 0 1.78894e-08
129 3 0.001 0.00896121 0 0.0189149 -7.19343e-10 0 -1.81197e-10 0 1.7831e-08
130 3 0.001 0.00882454 0 0.0195309 1.13536e-09 0 2.43828e-10 0 1.76519e-08
131 3 0.001 0.00865455 0 0.0201385 -5.59379e-10 0 -1.33968e-10 0 1.73725e-08
132 3 0.001 0.00845215 0 0.0207361 -3.11488e-10 0 -1.26373e-10 0 1.70011e-08
133 3 0.001 0.00821845 0 0.0213222 5.15965e-10 0 2.05128e-10 0 1.65482e-08
134 3 0.001 0.00795477 0 0.0218955 -1.29855e-10 0 -2.84357e-11 0 1.60264e-08
135 3 0.001 0.00766257 0 0.0224548 -4.00954e-10 0 -2.64602e-10 0 1.54496e-08
136 3 0.001 0.00734346 0 0.0229993 4.69027e-10 0 2.49572e-10 0 1.48322e-08
137 3 0.001 0.00699916 0 0.0235282 -1.34447e-10 0 -2.4732e-11 0 1.4189e-08
138 3 0.001 0.00663144 0 0.0240412 -2.05732e-10 0 -1.42401e-10 0 1.3534e-08
139 3 0.001 0.00624212 0 0.0245381 2.13765e-10 0 1.3204e-10 0 1.28805e-08
140 3 0.001 0.00583306 0 0.025019 7.03935e-11 0 7.5175e-11 0 1.22406e-08
142 3 0.001 0.00496298 0 0.0259339 2.21044e-10 0 2.01128e-10 0 1.10426e-08
143 3 0.001 0.00450554 0 0.0263691 -2.35926e-10 0 -1.90801e-10 0 1.0501e-08
141 3 0.001 0.00540608 0 0.025484 -2.65297e-10 0 -2.73412e-10 0 1.1625e-08
145 3 0.001 0.00355435 0 0.0271999 -5.30333e-10 0 -7.02952e-10 0 9.56278e-09
146 3 0.001 0.00306382 0 0.0275978 4.56536e-10 0 5.10597e-10 0 9.17416e-09
147 3 0.001 0.00256535 0 0.0279857 -1.87567e-10 0 -2.00238e-10 0 8.84274e-09
144 3 0.001 0.00403545 0 0.0267908 4.08821e-10 0 5.07466e-10 0 1.00062e-08
151 3 0.001 0.000519442 0 0.0294693 2.40329e-10 0 2.65546e-10 0 2.70618e-09
148 3 0.001 0.00206038 0 0.0283651 -1.64122e-11 0 1.04901e-11 0 8.57014e-09
149 3 0.001 0.0015503 0 0.0287377 1.1321e-10 0 1.71765e-10 0 8.1863e-09
150 3 0.001 0.00103639 0 0.0291051 -2.27577e-10 0 -3.21343e-10 0 5.3327e-09
2 2 0.001 0 0 0.02983 -0.00185246 0 0.0146244 0 1.33543e-09
