ITEM: TIMESTEP
9500000
ITEM: NUMBER OF ATOMS
151
ITEM: BOX BOUNDS ff ff ff
-1.0000000000000000e-02 1.0000000000000000e-02
-6.0000000000000001e-03 6.0000000000000001e-03
-5.2499999999999998e-02 5.2499999999999998e-02
ITEM: ATOMS id type radius x y z fx fy fz c_bendingE c_stretchingE
1 1 0.001 0 0 -0.0475 -0.00171409 0 -0.0145942 0 1.25717e-09
3 3 0.001 0.000520741 0 -0.0471411 3.07421e-11 0 -4.18737e-11 0 2.54917e-09
4 3 0.001 0.00103898 0 -0.0467787 -4.82842e-11 0 8.26627e-11 0 5.11989e-09
5 3 0.001 0.00155417 0 -0.0464131 8.39765e-11 0 -1.28474e-10 0 7.91507e-09
6 3 0.001 0.00206552 0 -0.0460422 -1.56606e-10 0 2.00413e-10 0 8.29587e-09
7 3 0.001 0.00257173 0 -0.0456643 1.44378e-10 0 -1.87021e-10 0 8.56875e-09
8 3 0.001 0.00307142 0 -0.045278 5.11798e-11 0 -4.74138e-11 0 8.90081e-09
9 3 0.001 0.00356314 0 -0.0448816 -2.79935e-10 0 3.29266e-10 0 9.2906e-09
10 3 0.001 0.00404537 0 -0.0444737 2.67315e-10 0 -3.1507e-10 0 9.73591e-09
11 3 0.001 0.00451653 0 -0.0440532 -6.63188e-11 0 8.31793e-11 0 1.02335e-08
12 3 0.001 0.00497496 0 -0.043619 -1.27903e-10 0 1.21836e-10 0 1.07789e-08
13 3 0.001 0.00541894 0 -0.04317 1.17886e-10 0 -1.15499e-10 0 1.13662e-08
14 3 0.001 0.00584669 0 -0.0427056 5.40599e-11 0 -3.07281e-11 0 1.19882e-08
15 3 0.001 0.00625637 0 -0.0422253 -1.93131e-10 0 1.4484e-10 0 1.26358e-08
16 3 0.001 0.00664613 0 -0.0417287 2.25782e-10 0 -1.66758e-10 0 1.32984e-08
17 3 0.001 0.0070141 0 -0.0412158 -3.22118e-10 0 2.20901e-10 0 1.39638e-08
18 3 0.001 0.00735842 0 -0.0406869 4.32309e-10 0 -2.68745e-10 0 1.46186e-08
19 3 0.001 0.00767727 0 -0.0401422 -4.09024e-10 0 2.39224e-10 0 1.52486e-08
20 3 0.001 0.00796893 0 -0.0395826 1.69423e-10 0 -8.97445e-11 0 1.58387e-08
21 3 0.001 0.00823174 0 -0.0390089 5.10745e-11 0 -2.10449e-11 0 1.63741e-08
22 3 0.001 0.00846421 0 -0.0384223 -1.30847e-10 0 4.74376e-11 0 1.68405e-08
23 3 0.001 0.00866501 0 -0.0378241 1.62112e-10 0 -3.75563e-11 0 1.72251e-08
24 3 0.001 0.00883298 0 -0.037216 -3.19205e-10 0 7.06507e-11 0 1.75167e-08
25 3 0.001 0.0089672 0 -0.0365995 3.69082e-10 0 -6.55828e-11 0 1.77066e-08
26 3 0.001 0.009067 0 -0.0359765 -1.70113e-10 0 3.76463e-11 0 1.77739e-08
27 3 0.001 0.00913194 0 -0.0353489 -1.44928e-10 0 5.34841e-12 0 1.772e-08
28 3 0.001 0.00916185 0 -0.0347187 1.77013e-10 0 -6.42996e-12 0 1.76077e-08
29 3 0.001 0.00915673 0 -0.0340878 2.7914e-11 0 1.43444e-11 0 1.74946e-08
30 3 0.001 0.00911677 0 -0.0334582 -2.26648e-10 0 -1.571e-11 0 1.7372e-08
31 3 0.001 0.00904236 0 -0.0328316 2.97187e-10 0 4.48733e-11 0 1.71747e-08
32 3 0.001 0.00893406 0 -0.03221 -2.81855e-10 0 -5.65408e-11 0 1.68646e-08
33 3 0.001 0.00879266 0 -0.0315951 1.24599e-10 0 2.52078e-11 0 1.64596e-08
35 3 0.001 0.00841485 0 -0.0303913 1.54437e-10 0 8.1697e-11 0 1.54384e-08
34 3 0.001 0.00861918 0 -0.0309884 -7.00611e-11 0 -1.71303e-11 0 1.59799e-08
37 3 0.001 0.00791936 0 -0.0292308 8.68814e-11 0 2.64271e-11 0 1.42266e-08
36 3 0.001 0.00818106 0 -0.0298051 -2.2644e-10 0 -9.07147e-11 0 1.48492e-08
38 3 0.001 0.0076314 0 -0.0286691 7.99031e-11 0 4.60389e-11 0 1.35848e-08
41 3 0.001 0.0066278 0 -0.0270642 5.21289e-10 0 3.81616e-10 0 1.16744e-08
39 3 0.001 0.00731894 0 -0.0281206 3.2199e-11 0 2.99969e-11 0 1.29374e-08
40 3 0.001 0.00698379 0 -0.0275856 -3.69474e-10 0 -2.55221e-10 0 1.22968e-08
43 3 0.001 0.00586067 0 -0.0260613 1.73302e-10 0 1.24995e-10 0 1.05212e-08
42 3 0.001 0.00625281 0 -0.0265563 -4.37797e-10 0 -3.19604e-10 0 1.10798e-08
44 3 0.001 0.00545321 0 -0.0255789 1.58458e-10 0 1.28643e-10 0 1.00053e-08
46 3 0.001 0.00459939 0 -0.0246482 1.36231e-10 0 1.32009e-10 0 9.12124e-09
45 3 0.001 0.0050322 0 -0.0251081 -2.75555e-10 0 -2.52803e-10 0 9.53736e-09
47 3 0.001 0.00415646 0 -0.0241979 2.26981e-11 0 3.04935e-11 0 8.75984e-09
49 3 0.001 0.00324669 0 -0.0233214 -5.64469e-11 0 -9.71056e-11 0 8.20831e-09
50 3 0.001 0.00278298 0 -0.0228924 1.00417e-10 0 9.81862e-11 0 8.02018e-09
48 3 0.001 0.00370503 0 -0.0237561 -4.15416e-11 0 -4.45328e-11 0 8.45511e-09
53 3 0.001 0.00137438 0 -0.0216246 5.4897e-11 0 4.91923e-11 0 7.81098e-09
52 3 0.001 0.00184536 0 -0.0220456 -7.60018e-11 0 -8.29005e-11 0 7.82138e-09
54 3 0.001 0.00090386 0 -0.0212031 1.09987e-12 0 -1.81091e-11 0 7.85994e-09
51 3 0.001 0.00231538 0 -0.0224677 1.11955e-11 0 2.17745e-11 0 7.89114e-09
56 3 0.001 -2.99942e-05 0 -0.0203521 5.03021e-11 0 4.97593e-11 0 8.13568e-09
57 3 0.001 -0.000490389 0 -0.0199196 8.75265e-11 0 7.97513e-11 0 8.36199e-09
55 3 0.001 0.00043525 0 -0.0207794 -3.53572e-11 0 -6.62817e-11 0 7.96823e-09
60 3 0.001 -0.00182706 0 -0.0185768 2.89106e-11 0 1.25331e-11 0 9.38548e-09
59 3 0.001 -0.00139051 0 -0.0190333 1.19858e-10 0 1.07127e-10 0 8.98827e-09
58 3 0.001 -0.000944415 0 -0.0194804 -1.70727e-10 0 -1.90415e-10 0 8.64654e-09
63 3 0.001 -0.00306251 0 -0.0171412 3.05789e-10 0 2.32557e-10 0 1.08796e-08
62 3 0.001 -0.0026648 0 -0.0176317 -1.12525e-10 0 -1.1422e-10 0 1.03353e-08
61 3 0.001 -0.00225239 0 -0.01811 -7.00871e-12 0 -2.41699e-11 0 9.83568e-09
66 3 0.001 -0.00414925 0 -0.015591 -4.08747e-10 0 -2.66223e-10 0 1.27116e-08
65 3 0.001 -0.00380658 0 -0.0161212 5.03701e-10 0 3.24943e-10 0 1.20762e-08
64 3 0.001 -0.00344372 0 -0.0166379 -3.79944e-10 0 -2.94911e-10 0 1.14625e-08
68 3 0.001 -0.00476661 0 -0.0144901 1.20674e-10 0 4.04975e-11 0 1.40033e-08
67 3 0.001 -0.00446986 0 -0.0150472 1.46358e-10 0 8.37214e-11 0 1.3358e-08
69 3 0.001 -0.0050377 0 -0.0139201 -2.34926e-11 0 -3.0961e-11 0 1.46342e-08
70 3 0.001 -0.00528145 0 -0.013338 -1.05578e-10 0 -4.43223e-11 0 1.52367e-08
71 3 0.001 -0.00549627 0 -0.0127446 3.06579e-10 0 9.73438e-11 0 1.57966e-08
72 3 0.001 -0.0056807 0 -0.0121411 -3.13148e-10 0 -8.56965e-11 0 1.62994e-08
73 3 0.001 -0.00583347 0 -0.0115289 2.40591e-10 0 4.76237e-11 0 1.6732e-08
74 3 0.001 -0.00595347 0 -0.0109095 1.15333e-11 0 -1.31528e-11 0 1.70822e-08
75 3 0.001 -0.00603984 0 -0.0102844 -5.88893e-11 0 -1.12478e-11 0 1.73401e-08
76 3 0.001 -0.00609192 0 -0.00965566 3.60883e-11 0 8.00152e-12 0 1.74979e-08
77 3 0.001 -0.00610932 0 -0.00902498 7.49414e-11 0 8.57376e-13 0 1.75511e-08
78 3 0.001 -0.00609192 0 -0.00839429 -1.91879e-11 0 3.12524e-12 0 1.7498e-08
79 3 0.001 -0.00603985 0 -0.00776551 2.00671e-10 0 -2.12705e-11 0 1.73401e-08
80 3 0.001 -0.00595349 0 -0.0071405 -4.30098e-10 0 7.02962e-11 0 1.70823e-08
81 3 0.001 -0.00583349 0 -0.00652104 5.8075e-10 0 -1.12681e-10 0 1.67321e-08
82 3 0.001 -0.00568072 0 -0.00590882 -3.54854e-10 0 9.05644e-11 0 1.62996e-08
83 3 0.001 -0.00549629 0 -0.00530534 1.62379e-10 0 -3.82839e-11 0 1.57967e-08
84 3 0.001 -0.00528148 0 -0.00471195 3.99649e-11 0 -4.22745e-12 0 1.52369e-08
85 3 0.001 -0.00503773 0 -0.00412981 -4.07631e-11 0 2.98372e-11 0 1.46344e-08
86 3 0.001 -0.00476664 0 -0.00355984 7.28401e-11 0 -2.82009e-11 0 1.40034e-08
87 3 0.001 -0.0044699 0 -0.00300273 -7.65714e-11 0 4.94765e-11 0 1.33582e-08
88 3 0.001 -0.00414928 0 -0.00245895 1.66317e-10 0 -8.36445e-11 0 1.27118e-08
89 3 0.001 -0.00380662 0 -0.00192873 -1.36682e-10 0 9.65801e-11 0 1.20764e-08
90 3 0.001 -0.00344376 0 -0.00141205 2.27183e-10 0 -1.4812e-10 0 1.14626e-08
91 3 0.001 -0.00306256 0 -0.000908696 -2.55323e-10 0 2.25594e-10 0 1.08798e-08
92 3 0.001 -0.00266485 0 -0.000418214 1.55775e-10 0 -1.20239e-10 0 1.03355e-08
93 3 0.001 -0.00225244 0 6.00397e-05 1.10312e-10 0 -9.03626e-11 0 9.83585e-09
94 3 0.001 -0.0018271 0 0.000526891 -1.79973e-10 0 1.83819e-10 0 9.38565e-09
95 3 0.001 -0.00139056 0 0.00098333 6.85481e-11 0 -4.09355e-11 0 8.98843e-09
96 3 0.001 -0.000944462 0 0.0014305 1.52073e-10 0 -1.50725e-10 0 8.64669e-09
97 3 0.001 -0.000490436 0 0.00186965 -1.50404e-10 0 1.69546e-10 0 8.36214e-09
98 3 0.001 -3.00417e-05 0 0.00230216 8.97229e-12 0 1.53703e-11 0 8.13582e-09
99 3 0.001 0.000435203 0 0.00272947 9.98324e-11 0 -9.97135e-11 0 7.96836e-09
100 3 0.001 0.000903813 0 0.00315311 -7.31938e-11 0 9.29063e-11 0 7.86007e-09
101 3 0.001 0.00137433 0 0.00357465 7.24125e-11 0 -7.03634e-11 0 7.8111e-09
102 3 0.001 0.00184532 0 0.00399566 -6.03953e-11 0 6.83225e-11 0 7.8215e-09
103 3 0.001 0.00231533 0 0.00441776 5.0266e-11 0 -3.82842e-11 0 7.89126e-09
104 3 0.001 0.00278293 0 0.00484251 -4.35901e-11 0 5.69634e-11 0 8.0203e-09
105 3 0.001 0.00324665 0 0.00527147 5.52526e-11 0 -5.92294e-11 0 8.20843e-09
106 3 0.001 0.00370499 0 0.00570615 -1.43433e-11 0 2.82919e-11 0 8.45524e-09
107 3 0.001 0.00415642 0 0.00614795 -7.11091e-11 0 7.19118e-11 0 8.75997e-09
108 3 0.001 0.00459935 0 0.00659823 1.44685e-10 0 -1.3662e-10 0 9.12138e-09
109 3 0.001 0.00503217 0 0.00705819 -1.14872e-10 0 1.15899e-10 0 9.5375e-09
110 3 0.001 0.00545318 0 0.00752893 4.13019e-11 0 -3.95424e-11 0 1.00055e-08
111 3 0.001 0.00586064 0 0.00801138 -2.65114e-11 0 7.77101e-12 0 1.05214e-08
112 3 0.001 0.00625278 0 0.00850631 2.21923e-11 0 -6.44206e-12 0 1.108e-08
113 3 0.001 0.00662777 0 0.00901428 4.1579e-12 0 9.50485e-12 0 1.16746e-08
114 3 0.001 0.00698377 0 0.00953569 -6.2476e-11 0 3.84746e-11 0 1.22971e-08
115 3 0.001 0.00731892 0 0.0100707 1.30004e-10 0 -9.4958e-11 0 1.29376e-08
116 3 0.001 0.00763138 0 0.0106192 -1.61517e-10 0 8.49687e-11 0 1.35851e-08
117 3 0.001 0.00791934 0 0.0111808 1.16187e-10 0 -6.7073e-11 0 1.42269e-08
118 3 0.001 0.00818105 0 0.0117552 -1.32452e-10 0 6.45438e-11 0 1.48495e-08
119 3 0.001 0.00841484 0 0.0123414 2.07928e-10 0 -5.58536e-11 0 1.54388e-08
120 3 0.001 0.00861917 0 0.0129384 -2.79194e-10 0 6.98587e-11 0 1.59802e-08
121 3 0.001 0.00879265 0 0.0135451 2.38439e-10 0 -8.75932e-11 0 1.64599e-08
122 3 0.001 0.00893406 0 0.0141601 -2.04471e-10 0 4.17669e-11 0 1.68649e-08
123 3 0.001 0.00904237 0 0.0147817 2.42661e-10 0 -2.69057e-11 0 1.71751e-08
124 3 0.001 0.00911678 0 0.0154082 -2.875e-10 0 2.94803e-11 0 1.73724e-08
125 3 0.001 0.00915673 0 0.0160379 1.01041e-10 0 -1.81066e-11 0 1.7495e-08
126 3 0.001 0.00916186 0 0.0166688 1.28119e-10 0 -9.18078e-13 0 1.76081e-08
127 3 0.001 0.00913196 0 0.017299 -1.51822e-10 0 -5.78289e-12 0 1.77205e-08
128 3 0.001 0.00906702 0 0.0179265 -6.25536e-11 0 -1.98416e-11 0 1.77744e-08
129 3 0.001 0.00896722 0 0.0185495 1.83501e-10 0 3.3252e-11 0 1.77072e-08
130 3 0.001 0.008833 0 0.019166 -8.43454e-11 0 -2.53698e-11 0 1.75173e-08
132 3 0.001 0.00846424 0 0.0203723 2.21161e-10 0 8.4325e-11 0 1.68411e-08
131 3 0.001 0.00866503 0 0.0197742 -1.31996e-10 0 -4.45647e-11 0 1.72257e-08
133 3 0.001 0.00823177 0 0.0209589 -2.22157e-10 0 -9.54822e-11 0 1.63747e-08
134 3 0.001 0.00796895 0 0.0215326 5.79272e-11 0 2.04399e-11 0 1.58393e-08
135 3 0.001 0.0076773 0 0.0220922 1.80305e-10 0 1.05021e-10 0 1.52492e-08
138 3 0.001 0.00664616 0 0.0236787 -3.74703e-11 0 -2.22353e-11 0 1.32989e-08
136 3 0.001 0.00735844 0 0.0226369 -2.45128e-10 0 -1.48416e-10 0 1.46192e-08
137 3 0.001 0.00701412 0 0.0231659 8.31622e-11 0 4.27343e-11 0 1.39644e-08
139 3 0.001 0.0062564 0 0.0241753 1.53255e-10 0 1.27493e-10 0 1.26364e-08
140 3 0.001 0.00584671 0 0.0246556 -2.24896e-10 0 -1.9665e-10 0 1.19888e-08
141 3 0.001 0.00541896 0 0.02512 9.18415e-11 0 8.21633e-11 0 1.13668e-08
142 3 0.001 0.00497498 0 0.025569 3.56264e-11 0 2.63015e-11 0 1.07794e-08
143 3 0.001 0.00451655 0 0.0260033 3.39291e-11 0 5.79586e-11 0 1.02339e-08
144 3 0.001 0.00404538 0 0.0264238 -1.99373e-10 0 -2.40682e-10 0 9.73635e-09
148 3 0.001 0.00206553 0 0.0279922 8.4749e-11 0 1.0977e-10 0 8.29626e-09
145 3 0.001 0.00356315 0 0.0268316 2.27167e-10 0 2.74177e-10 0 9.29103e-09
146 3 0.001 0.00307143 0 0.027228 -1.15098e-10 0 -1.41598e-10 0 8.90122e-09
147 3 0.001 0.00257175 0 0.0276144 -3.76829e-11 0 -4.98923e-11 0 8.56914e-09
151 3 0.001 0.000520743 0 0.0290911 5.00388e-11 0 7.94653e-11 0 2.54938e-09
2 2 0.001 0 0 0.02945 -0.00171425 0 0.0145945 0 1.25727e-09
149 3 0.001 0.00155418 0 0.0283631 -2.41585e-11 0 -3.43552e-11 0 7.91544e-09
150 3 0.001 0.00103899 0 0.0287287 -5.0035e-11 0 -6.55957e-11 0 5.12018e-09
