ITEM: TIMESTEP
7400000
ITEM: NUMBER OF ATOMS
151
ITEM: BOX BOUNDS ff ff ff
-1.0000000000000000e-02 1.0000000000000000e-02
-6.0000000000000001e-03 6.0000000000000001e-03
-5.2499999999999998e-02 5.2499999999999998e-02
ITEM: ATOMS id type radius x y z fx fy fz c_bendingE c_stretchingE
1 1 0.001 0 0 -0.0475 -0.003245 0 -0.0150504 0 2.29282e-09
3 3 0.001 0.000505309 0 -0.0471202 -8.57755e-12 0 8.48162e-12 0 4.62471e-09
4 3 0.001 0.00100821 0 -0.0467373 4.42278e-11 0 -6.24173e-11 0 7.8325e-09
5 3 0.001 0.00150817 0 -0.0463516 -4.35823e-11 0 5.26239e-11 0 1.12953e-08
6 3 0.001 0.00200444 0 -0.0459613 5.45607e-11 0 -5.58118e-11 0 1.17088e-08
7 3 0.001 0.0024958 0 -0.0455649 2.68645e-11 0 -3.59155e-11 0 1.19755e-08
8 3 0.001 0.00298095 0 -0.0451609 -8.18731e-12 0 6.01137e-12 0 1.22971e-08
9 3 0.001 0.00345854 0 -0.044748 7.61716e-11 0 -8.79674e-11 0 1.26704e-08
10 3 0.001 0.00392718 0 -0.0443251 -2.61575e-11 0 2.12048e-11 0 1.30916e-08
11 3 0.001 0.00438546 0 -0.043891 7.67905e-11 0 -8.46942e-11 0 1.35556e-08
12 3 0.001 0.00483188 0 -0.0434447 2.36035e-11 0 -2.54563e-11 0 1.40566e-08
13 3 0.001 0.00526493 0 -0.0429856 7.4951e-11 0 -8.32615e-11 0 1.45874e-08
14 3 0.001 0.00568305 0 -0.0425128 -2.11581e-11 0 8.40371e-12 0 1.51394e-08
15 3 0.001 0.00608468 0 -0.042026 9.83579e-11 0 -9.24964e-11 0 1.57034e-08
16 3 0.001 0.00646824 0 -0.041525 3.12841e-11 0 -3.89419e-11 0 1.62686e-08
17 3 0.001 0.00683217 0 -0.0410095 2.73106e-11 0 -4.52298e-11 0 1.68239e-08
18 3 0.001 0.00717492 0 -0.0404797 5.41773e-11 0 -5.40865e-11 0 1.73571e-08
19 3 0.001 0.00749501 0 -0.039936 1.83009e-11 0 -3.20923e-11 0 1.78563e-08
20 3 0.001 0.00779104 0 -0.0393789 8.55315e-11 0 -6.50581e-11 0 1.83093e-08
21 3 0.001 0.0080617 0 -0.0388091 -4.69625e-11 0 -8.67913e-12 0 1.87048e-08
22 3 0.001 0.0083058 0 -0.0382274 9.71052e-11 0 -7.18659e-11 0 1.90325e-08
23 3 0.001 0.00852231 0 -0.0376349 5.19527e-11 0 -4.85681e-11 0 1.92836e-08
24 3 0.001 0.00871035 0 -0.0370327 -1.08397e-10 0 4.44747e-12 0 1.9451e-08
25 3 0.001 0.00886923 0 -0.0364223 1.75008e-10 0 -8.04833e-11 0 1.95302e-08
26 3 0.001 0.00899847 0 -0.0358049 -8.36104e-11 0 -1.12423e-11 0 1.95189e-08
27 3 0.001 0.00909778 0 -0.0351819 1.13134e-10 0 -5.5703e-11 0 1.93873e-08
28 3 0.001 0.00916709 0 -0.0345549 -9.29409e-11 0 -3.31135e-11 0 1.91432e-08
29 3 0.001 0.00920651 0 -0.0339254 1.66479e-10 0 -3.79734e-11 0 1.88748e-08
30 3 0.001 0.00921627 0 -0.0332946 -1.60407e-10 0 -3.98915e-11 0 1.86598e-08
31 3 0.001 0.00919666 0 -0.032664 1.84996e-10 0 -3.75235e-11 0 1.85192e-08
32 3 0.001 0.00914805 0 -0.032035 -4.08596e-11 0 -3.38692e-11 0 1.84129e-08
33 3 0.001 0.00907086 0 -0.0314089 1.39212e-11 0 -4.35882e-11 0 1.82599e-08
34 3 0.001 0.00896565 0 -0.0307869 5.79655e-11 0 -3.68736e-11 0 1.80077e-08
35 3 0.001 0.0088331 0 -0.03017 2.50083e-11 0 -4.36149e-11 0 1.76741e-08
36 3 0.001 0.00867408 0 -0.0295595 7.07411e-11 0 -2.7388e-11 0 1.72879e-08
37 3 0.001 0.00848959 0 -0.0289561 -1.83829e-11 0 -4.86785e-11 0 1.68583e-08
39 3 0.001 0.00804887 0 -0.0277738 -3.09257e-11 0 -7.04716e-11 0 1.59098e-08
40 3 0.001 0.00779525 0 -0.0271959 1.20028e-10 0 -7.96738e-12 0 1.54115e-08
38 3 0.001 0.00828077 0 -0.0283606 1.43007e-10 0 -1.90623e-12 0 1.63955e-08
42 3 0.001 0.00722856 0 -0.0260682 7.13235e-11 0 -2.8595e-11 0 1.44164e-08
41 3 0.001 0.00752132 0 -0.0266274 4.20964e-11 0 -4.37536e-11 0 1.49106e-08
45 3 0.001 0.0062527 0 -0.024446 1.56092e-10 0 2.8239e-11 0 1.30557e-08
44 3 0.001 0.0065927 0 -0.0249779 1.74442e-11 0 -7.3576e-11 0 1.34817e-08
43 3 0.001 0.00691851 0 -0.0255185 1.09764e-10 0 3.21585e-12 0 1.39375e-08
48 3 0.001 0.00516312 0 -0.0228972 1.33817e-10 0 8.91815e-12 0 1.20097e-08
47 3 0.001 0.00553636 0 -0.0234064 8.189e-11 0 -2.16216e-11 0 1.23153e-08
46 3 0.001 0.00590007 0 -0.0239224 5.81777e-11 0 -5.04194e-11 0 1.26653e-08
50 3 0.001 0.00439414 0 -0.0218957 1.09435e-10 0 -1.38287e-11 0 1.15436e-08
49 3 0.001 0.00478188 0 -0.022394 9.70915e-11 0 -1.83207e-11 0 1.17517e-08
51 3 0.001 0.0040014 0 -0.0214013 1.26606e-10 0 6.5426e-12 0 1.13873e-08
54 3 0.001 0.0028079 0 -0.0199304 1.84954e-10 0 4.71568e-11 0 1.12397e-08
53 3 0.001 0.00320681 0 -0.0204198 1.21991e-10 0 -6.7263e-12 0 1.12347e-08
52 3 0.001 0.00360513 0 -0.0209097 1.09387e-10 0 -1.57067e-11 0 1.12841e-08
57 3 0.001 0.00162216 0 -0.0184533 1.40367e-10 0 1.01404e-11 0 1.15775e-08
56 3 0.001 0.00201411 0 -0.0189483 1.73113e-10 0 3.64356e-11 0 1.14117e-08
55 3 0.001 0.00240984 0 -0.0194403 7.25766e-11 0 -4.55932e-11 0 1.12988e-08
60 3 0.001 0.000483963 0 -0.0169395 2.42522e-10 0 9.18014e-11 0 1.23757e-08
59 3 0.001 0.000855587 0 -0.0174499 1.02262e-10 0 -2.74546e-11 0 1.20617e-08
58 3 0.001 0.00123549 0 -0.0179541 1.45556e-10 0 5.56867e-12 0 1.17948e-08
62 3 0.001 -0.000228305 0 -0.0158971 1.87834e-10 0 3.97547e-11 0 1.31306e-08
61 3 0.001 0.000122151 0 -0.0164222 5.84974e-11 0 -5.57516e-11 0 1.27333e-08
63 3 0.001 -0.000565846 0 -0.0153637 1.12372e-10 0 -9.32262e-12 0 1.35624e-08
65 3 0.001 -0.00119594 0 -0.01427 8.37239e-11 0 -1.92255e-11 0 1.45052e-08
66 3 0.001 -0.00148539 0 -0.0137092 1.56268e-10 0 1.632e-11 0 1.50012e-08
64 3 0.001 -0.00088891 0 -0.0148215 2.19883e-10 0 4.29231e-11 0 1.40229e-08
67 3 0.001 -0.00175574 0 -0.0131389 1.62027e-10 0 1.81207e-11 0 1.55024e-08
68 3 0.001 -0.00200553 0 -0.0125594 1.12602e-10 0 -3.45596e-12 0 1.59992e-08
71 3 0.001 -0.00261778 0 -0.0107693 3.43657e-11 0 -1.94806e-11 0 1.73615e-08
69 3 0.001 -0.00223333 0 -0.011971 1.29729e-10 0 -6.6749e-12 0 1.64815e-08
70 3 0.001 -0.00243783 0 -0.011374 1.80282e-10 0 2.29495e-11 0 1.69391e-08
72 3 0.001 -0.00277207 0 -0.0101575 2.22152e-10 0 2.55138e-11 0 1.77389e-08
73 3 0.001 -0.00289971 0 -0.00953965 3.79927e-11 0 -1.35709e-11 0 1.8062e-08
75 3 0.001 -0.00307192 0 -0.00829003 1.29394e-10 0 4.09079e-12 0 1.85138e-08
74 3 0.001 -0.00299988 0 -0.00891677 1.50987e-10 0 -1.59875e-12 0 1.83225e-08
76 3 0.001 -0.00311533 0 -0.00766067 2.28095e-11 0 -1.41526e-12 0 1.86306e-08
77 3 0.001 -0.00312984 0 -0.00702998 2.25849e-10 0 1.67292e-12 0 1.86699e-08
78 3 0.001 -0.00311534 0 -0.0063993 3.95399e-11 0 -2.18075e-12 0 1.86306e-08
79 3 0.001 -0.00307192 0 -0.00576994 7.87867e-11 0 9.06349e-12 0 1.85138e-08
80 3 0.001 -0.00299989 0 -0.00514319 2.24006e-10 0 -1.69409e-11 0 1.83226e-08
81 3 0.001 -0.00289973 0 -0.00452031 4.84299e-12 0 1.72043e-11 0 1.80621e-08
82 3 0.001 -0.00277209 0 -0.00390246 1.7836e-10 0 -8.47869e-12 0 1.7739e-08
83 3 0.001 -0.0026178 0 -0.00329069 1.29603e-10 0 -7.34272e-12 0 1.73617e-08
84 3 0.001 -0.00243785 0 -0.00268594 9.75738e-11 0 1.05473e-11 0 1.69392e-08
85 3 0.001 -0.00223336 0 -0.00208901 1.32829e-10 0 -4.31506e-12 0 1.64816e-08
86 3 0.001 -0.00200556 0 -0.00150054 1.87076e-10 0 -2.47878e-11 0 1.59993e-08
87 3 0.001 -0.00175578 0 -0.000921028 6.29872e-11 0 2.24076e-11 0 1.55026e-08
88 3 0.001 -0.00148542 0 -0.000350778 2.29698e-10 0 -4.92086e-11 0 1.50014e-08
89 3 0.001 -0.00119598 0 0.000210063 4.29303e-11 0 5.0673e-11 0 1.45054e-08
90 3 0.001 -0.000888952 0 0.000761519 2.70373e-10 0 -8.38149e-11 0 1.40231e-08
91 3 0.001 -0.00056589 0 0.00130378 5.3091e-11 0 5.07891e-11 0 1.35626e-08
92 3 0.001 -0.00022835 0 0.00183719 1.63025e-10 0 -2.5452e-11 0 1.31308e-08
93 3 0.001 0.000122104 0 0.00236224 2.16229e-10 0 -6.89561e-11 0 1.27335e-08
94 3 0.001 0.000483916 0 0.00287957 4.71608e-11 0 8.16844e-11 0 1.23758e-08
95 3 0.001 0.000855539 0 0.00338993 2.66567e-10 0 -1.08859e-10 0 1.20619e-08
96 3 0.001 0.00123544 0 0.00389419 3.70403e-11 0 6.70564e-11 0 1.1795e-08
97 3 0.001 0.00162212 0 0.00439331 2.41659e-10 0 -8.8364e-11 0 1.15777e-08
98 3 0.001 0.00201406 0 0.00488831 5.77962e-11 0 6.0578e-11 0 1.14119e-08
99 3 0.001 0.00240979 0 0.00538031 2.04679e-10 0 -6.48636e-11 0 1.1299e-08
100 3 0.001 0.00280785 0 0.00587043 9.11076e-11 0 3.69977e-11 0 1.12398e-08
101 3 0.001 0.00320677 0 0.00635987 1.66381e-10 0 -3.16028e-11 0 1.12349e-08
102 3 0.001 0.00360509 0 0.00684978 8.91809e-11 0 1.99925e-11 0 1.12842e-08
103 3 0.001 0.00400135 0 0.00734135 1.48968e-10 0 -2.14204e-11 0 1.13874e-08
104 3 0.001 0.0043941 0 0.00783572 8.06994e-11 0 4.70832e-11 0 1.15437e-08
105 3 0.001 0.00478184 0 0.00833401 1.78164e-10 0 -4.89306e-11 0 1.17518e-08
106 3 0.001 0.00516308 0 0.00883726 2.06639e-11 0 6.93512e-11 0 1.20099e-08
107 3 0.001 0.00553632 0 0.00934645 1.4716e-10 0 -1.79287e-11 0 1.23155e-08
108 3 0.001 0.00590003 0 0.00986245 1.16381e-10 0 7.15746e-12 0 1.26655e-08
109 3 0.001 0.00625267 0 0.0103861 -1.4439e-11 0 8.25313e-11 0 1.30559e-08
110 3 0.001 0.00659267 0 0.0109179 2.32176e-10 0 -6.37625e-11 0 1.34819e-08
111 3 0.001 0.00691848 0 0.0114585 -4.71618e-11 0 9.61681e-11 0 1.39377e-08
112 3 0.001 0.00722854 0 0.0120083 1.44995e-10 0 -1.33232e-11 0 1.44166e-08
113 3 0.001 0.00752129 0 0.0125674 4.11142e-11 0 4.7415e-11 0 1.49108e-08
114 3 0.001 0.00779522 0 0.013136 4.40702e-11 0 3.22595e-11 0 1.54117e-08
115 3 0.001 0.00804885 0 0.0137138 9.39313e-11 0 2.24357e-11 0 1.591e-08
116 3 0.001 0.00828075 0 0.0143007 5.67297e-11 0 3.36813e-11 0 1.63957e-08
117 3 0.001 0.00848958 0 0.0148961 -4.94838e-11 0 6.5123e-11 0 1.68586e-08
118 3 0.001 0.00867407 0 0.0154995 1.80861e-10 0 -5.93003e-12 0 1.72882e-08
119 3 0.001 0.0088331 0 0.0161101 -9.95732e-11 0 7.71291e-11 0 1.76745e-08
120 3 0.001 0.00896565 0 0.0167269 1.6087e-10 0 1.03678e-11 0 1.80081e-08
121 3 0.001 0.00907086 0 0.0173489 -8.0781e-11 0 5.76529e-11 0 1.82603e-08
122 3 0.001 0.00914805 0 0.0179751 8.55977e-11 0 3.20776e-11 0 1.84133e-08
123 3 0.001 0.00919666 0 0.0186041 -4.35226e-12 0 3.67335e-11 0 1.85196e-08
124 3 0.001 0.00921628 0 0.0192346 4.9992e-11 0 4.4094e-11 0 1.86602e-08
125 3 0.001 0.00920652 0 0.0198654 -3.71802e-11 0 3.67476e-11 0 1.88752e-08
126 3 0.001 0.0091671 0 0.020495 1.0458e-10 0 4.25998e-11 0 1.91437e-08
127 3 0.001 0.00909779 0 0.021122 -7.32301e-11 0 2.67205e-11 0 1.93878e-08
128 3 0.001 0.00899849 0 0.0217449 1.01271e-10 0 5.48101e-11 0 1.95195e-08
129 3 0.001 0.00886925 0 0.0223623 -3.35764e-11 0 3.29606e-11 0 1.95308e-08
130 3 0.001 0.00871037 0 0.0229728 7.91254e-11 0 5.0864e-11 0 1.94516e-08
131 3 0.001 0.00852233 0 0.0235749 -1.4668e-11 0 2.66298e-11 0 1.92842e-08
132 3 0.001 0.00830582 0 0.0241674 6.7929e-11 0 5.26908e-11 0 1.90332e-08
133 3 0.001 0.00806172 0 0.0247491 -1.45193e-11 0 2.70088e-11 0 1.87055e-08
134 3 0.001 0.00779106 0 0.0253189 1.11008e-10 0 8.56631e-11 0 1.831e-08
135 3 0.001 0.00749503 0 0.0258761 -2.74909e-11 0 8.80712e-12 0 1.78569e-08
136 3 0.001 0.00717494 0 0.0264198 7.20676e-11 0 6.52462e-11 0 1.73578e-08
137 3 0.001 0.00683219 0 0.0269495 3.37226e-11 0 3.98057e-11 0 1.68245e-08
138 3 0.001 0.00646827 0 0.027465 7.94771e-11 0 8.2147e-11 0 1.62693e-08
139 3 0.001 0.00608471 0 0.0279661 -5.22664e-12 0 6.52099e-12 0 1.5704e-08
141 3 0.001 0.00526495 0 0.0289256 4.75649e-11 0 5.42377e-11 0 1.45879e-08
142 3 0.001 0.0048319 0 0.0293848 7.80493e-12 0 1.199e-11 0 1.40572e-08
140 3 0.001 0.00568308 0 0.0284529 7.71099e-11 0 8.15522e-11 0 1.514e-08
145 3 0.001 0.00345855 0 0.030688 -3.58919e-13 0 1.3185e-11 0 1.26709e-08
146 3 0.001 0.00298096 0 0.0311009 6.86516e-11 0 7.30688e-11 0 1.22976e-08
143 3 0.001 0.00438548 0 0.029831 8.19158e-11 0 8.72807e-11 0 1.35562e-08
144 3 0.001 0.0039272 0 0.0302651 2.04592e-11 0 2.68295e-11 0 1.30921e-08
148 3 0.001 0.00200445 0 0.0319013 -7.03645e-12 0 -5.6476e-12 0 1.17092e-08
149 3 0.001 0.00150817 0 0.0322916 5.57982e-11 0 6.68249e-11 0 1.12958e-08
147 3 0.001 0.00249581 0 0.0315049 9.62773e-12 0 1.09545e-11 0 1.1976e-08
151 3 0.001 0.000505312 0 0.0330602 5.5443e-12 0 1.53904e-11 0 4.62501e-09
2 2 0.001 0 0 0.03344 -0.00324517 0 0.0150507 0 2.29297e-09
150 3 0.001 0.00100821 0 0.0326773 -1.8755e-11 0 -2.19078e-11 0 7.83287e-09
