ITEM: TIMESTEP
6800000
ITEM: NUMBER OF ATOMS
151
ITEM: BOX BOUNDS ff ff ff
-1.0000000000000000e-02 1.0000000000000000e-02
-6.0000000000000001e-03 6.0000000000000001e-03
-5.2499999999999998e-02 5.2499999999999998e-02
ITEM: ATOMS id type radius x y z fx fy fz c_bendingE c_stretchingE
1 1 0.001 0 0 -0.0475 -0.00373184 0 -0.0152628 0 2.70889e-09
3 3 0.001 0.000500012 0 -0.0471135 1.83062e-10 0 -2.21402e-10 0 5.4578e-09
4 3 0.001 0.000997644 0 -0.0467239 -7.41658e-11 0 9.64413e-11 0 8.87894e-09
5 3 0.001 0.00149237 0 -0.0463317 -9.43991e-11 0 9.03319e-11 0 1.25658e-08
6 3 0.001 0.00198346 0 -0.045935 1.06294e-10 0 -1.45677e-10 0 1.29898e-08
7 3 0.001 0.00246971 0 -0.0455325 -2.02132e-10 0 2.62591e-10 0 1.32538e-08
8 3 0.001 0.00294983 0 -0.0451227 4.79565e-10 0 -5.35221e-10 0 1.35712e-08
9 3 0.001 0.00342254 0 -0.0447044 -3.52165e-10 0 3.79002e-10 0 1.39385e-08
10 3 0.001 0.00388646 0 -0.0442764 -7.29528e-11 0 1.70501e-11 0 1.43514e-08
11 3 0.001 0.00434022 0 -0.0438378 3.06434e-10 0 -3.04059e-10 0 1.48045e-08
12 3 0.001 0.00478239 0 -0.0433875 1.10398e-11 0 2.8644e-11 0 1.52915e-08
13 3 0.001 0.00521152 0 -0.0429247 -3.15352e-10 0 2.78458e-10 0 1.58047e-08
14 3 0.001 0.00562611 0 -0.042449 -7.72087e-11 0 3.05963e-12 0 1.63356e-08
15 3 0.001 0.00602467 0 -0.0419598 1.12837e-09 0 -8.61131e-10 0 1.68747e-08
16 3 0.001 0.00640571 0 -0.0414569 -1.58587e-09 0 1.16568e-09 0 1.74114e-08
17 3 0.001 0.00676775 0 -0.0409402 1.12758e-09 0 -8.1976e-10 0 1.79347e-08
18 3 0.001 0.00710934 0 -0.0404098 -6.954e-10 0 4.16041e-10 0 1.8433e-08
19 3 0.001 0.00742911 0 -0.039866 6.98667e-10 0 -3.77222e-10 0 1.88949e-08
20 3 0.001 0.00772573 0 -0.0393093 -1.32619e-10 0 1.05229e-10 0 1.93092e-08
21 3 0.001 0.007998 0 -0.0387403 -1.23775e-09 0 4.98055e-10 0 1.96653e-08
22 3 0.001 0.00824484 0 -0.0381598 2.22464e-09 0 -9.23042e-10 0 1.9954e-08
23 3 0.001 0.00846528 0 -0.0375688 -1.76873e-09 0 6.09095e-10 0 2.01675e-08
24 3 0.001 0.00865855 0 -0.0369684 6.65946e-10 0 -2.39657e-10 0 2.03001e-08
25 3 0.001 0.00882404 0 -0.0363598 3.44721e-10 0 -5.92852e-11 0 2.03479e-08
26 3 0.001 0.0089613 0 -0.0357441 -1.17993e-09 0 2.42692e-10 0 2.03098e-08
27 3 0.001 0.00907013 0 -0.0351228 1.20224e-09 0 -2.04252e-10 0 2.01651e-08
28 3 0.001 0.00915048 0 -0.0344972 -4.43363e-10 0 1.3882e-11 0 1.99027e-08
29 3 0.001 0.00920252 0 -0.0338686 9.43705e-11 0 -4.78725e-11 0 1.95853e-08
30 3 0.001 0.0092265 0 -0.0332382 -4.53784e-10 0 -1.55327e-11 0 1.93048e-08
31 3 0.001 0.00922278 0 -0.0326074 9.18978e-10 0 6.31961e-11 0 1.91105e-08
32 3 0.001 0.00919172 0 -0.0319774 -9.82779e-10 0 -6.27271e-11 0 1.89938e-08
33 3 0.001 0.00913372 0 -0.0313492 6.76778e-10 0 4.78904e-12 0 1.88951e-08
34 3 0.001 0.00904925 0 -0.0307241 -1.73675e-10 0 -7.34133e-11 0 1.87312e-08
35 3 0.001 0.00893886 0 -0.0301029 -1.59137e-10 0 -4.32945e-11 0 1.84727e-08
36 3 0.001 0.00880327 0 -0.0294868 7.83793e-10 0 2.17558e-10 0 1.81494e-08
37 3 0.001 0.00864332 0 -0.0288765 -2.12266e-09 0 -6.64064e-10 0 1.7782e-08
39 3 0.001 0.00825435 0 -0.0276763 -3.72391e-09 0 -1.38771e-09 0 1.69503e-08
40 3 0.001 0.00802764 0 -0.0270875 3.16541e-09 0 1.26532e-09 0 1.65044e-08
38 3 0.001 0.00845998 0 -0.0282728 3.47693e-09 0 1.11082e-09 0 1.73793e-08
42 3 0.001 0.00751611 0 -0.0259339 1.65378e-09 0 7.3231e-10 0 1.55979e-08
41 3 0.001 0.00778111 0 -0.0265066 -2.35671e-09 0 -1.05822e-09 0 1.60506e-08
45 3 0.001 0.0066245 0 -0.0242641 -5.29761e-10 0 -3.24325e-10 0 1.43258e-08
44 3 0.001 0.00693636 0 -0.0248128 4.81175e-10 0 2.39693e-10 0 1.47283e-08
43 3 0.001 0.00723405 0 -0.0253693 -7.93894e-10 0 -4.56409e-10 0 1.51546e-08
47 3 0.001 0.0059642 0 -0.0231883 1.3694e-10 0 1.93945e-11 0 1.36156e-08
46 3 0.001 0.00629995 0 -0.0237228 4.93058e-10 0 2.62555e-10 0 1.39532e-08
48 3 0.001 0.00561873 0 -0.02266 -5.29147e-10 0 -4.20982e-10 0 1.33176e-08
50 3 0.001 0.00490454 0 -0.0216189 4.2341e-10 0 2.81218e-10 0 1.28534e-08
49 3 0.001 0.00526502 0 -0.0221372 5.41721e-10 0 3.2829e-10 0 1.30625e-08
51 3 0.001 0.00453875 0 -0.0211044 -1.67123e-09 0 -1.26338e-09 0 1.26925e-08
54 3 0.001 0.00342404 0 -0.0195733 1.67092e-09 0 1.17884e-09 0 1.2512e-08
52 3 0.001 0.00416911 0 -0.0205927 2.59682e-09 0 1.81079e-09 0 1.25813e-08
53 3 0.001 0.00379706 0 -0.0200827 -2.0887e-09 0 -1.58696e-09 0 1.25209e-08
56 3 0.001 0.00268085 0 -0.0185527 2.35993e-09 0 1.63431e-09 0 1.26481e-08
55 3 0.001 0.00305149 0 -0.0190637 -1.8756e-09 0 -1.41322e-09 0 1.25545e-08
59 3 0.001 0.00159484 0 -0.0170013 8.449e-10 0 5.51533e-10 0 1.32239e-08
58 3 0.001 0.00195107 0 -0.0175224 -7.54631e-11 0 -9.53751e-11 0 1.29846e-08
57 3 0.001 0.00231356 0 -0.0180392 -1.30893e-09 0 -1.03751e-09 0 1.2792e-08
62 3 0.001 0.000578433 0 -0.0154038 1.2011e-09 0 6.1594e-10 0 1.41927e-08
61 3 0.001 0.000907041 0 -0.0159427 -5.9602e-10 0 -4.65918e-10 0 1.38317e-08
60 3 0.001 0.00124634 0 -0.0164749 -1.23198e-10 0 -1.41213e-10 0 1.35074e-08
63 3 0.001 0.000261998 0 -0.0148577 -6.67495e-10 0 -4.34915e-10 0 1.45854e-08
64 3 0.001 -4.07825e-05 0 -0.0143039 4.82837e-10 0 2.74146e-10 0 1.50042e-08
65 3 0.001 -0.000328439 0 -0.0137422 -4.98073e-10 0 -2.56155e-10 0 1.54425e-08
66 3 0.001 -0.000599524 0 -0.0131723 1.0904e-09 0 4.00016e-10 0 1.58928e-08
67 3 0.001 -0.000852623 0 -0.0125943 -1.11347e-09 0 -5.75652e-10 0 1.63472e-08
68 3 0.001 -0.00108637 0 -0.0120082 1.61688e-09 0 5.54272e-10 0 1.67969e-08
69 3 0.001 -0.00129946 0 -0.0114143 -1.85645e-09 0 -5.80312e-10 0 1.72328e-08
70 3 0.001 -0.00149067 0 -0.010813 2.53106e-09 0 7.69154e-10 0 1.76457e-08
72 3 0.001 -0.00180302 0 -0.00959077 2.28085e-09 0 4.22644e-10 0 1.83659e-08
71 3 0.001 -0.00165886 0 -0.010205 -2.43461e-09 0 -6.85716e-10 0 1.80264e-08
73 3 0.001 -0.00192225 0 -0.00897128 -1.45366e-09 0 -2.98939e-10 0 1.86563e-08
74 3 0.001 -0.00201579 0 -0.00834741 1.2397e-09 0 1.93738e-10 0 1.88902e-08
75 3 0.001 -0.00208304 0 -0.00772017 -4.92841e-10 0 -2.58125e-11 0 1.90617e-08
76 3 0.001 -0.00212357 0 -0.00709065 -2.75673e-10 0 -1.54418e-11 0 1.91665e-08
77 3 0.001 -0.00213712 0 -0.00645998 1.31813e-09 0 -5.46078e-11 0 1.92017e-08
78 3 0.001 -0.00212358 0 -0.00582931 -1.14455e-09 0 4.43437e-11 0 1.91665e-08
79 3 0.001 -0.00208305 0 -0.00519979 1.07184e-09 0 -2.86632e-11 0 1.90618e-08
80 3 0.001 -0.0020158 0 -0.00457256 -7.47378e-10 0 1.24213e-10 0 1.88902e-08
81 3 0.001 -0.00192226 0 -0.00394869 1.20511e-09 0 -2.43581e-10 0 1.86564e-08
82 3 0.001 -0.00180304 0 -0.00332919 -1.30525e-09 0 2.8913e-10 0 1.8366e-08
83 3 0.001 -0.00165888 0 -0.002715 1.48106e-09 0 -3.09737e-10 0 1.80265e-08
84 3 0.001 -0.00149069 0 -0.00210693 -6.08278e-10 0 2.38913e-10 0 1.76458e-08
85 3 0.001 -0.00129949 0 -0.00150566 -3.27604e-10 0 1.69589e-10 0 1.7233e-08
86 3 0.001 -0.0010864 0 -0.000911769 1.51074e-09 0 -6.09388e-10 0 1.6797e-08
87 3 0.001 -0.000852656 0 -0.000325664 -1.23779e-09 0 5.24237e-10 0 1.63474e-08
88 3 0.001 -0.00059956 0 0.000252382 4.08678e-10 0 -6.63154e-11 0 1.5893e-08
89 3 0.001 -0.000328477 0 0.000822252 6.04217e-10 0 -2.24385e-10 0 1.54427e-08
90 3 0.001 -4.08228e-05 0 0.00138397 -1.27065e-11 0 3.67567e-11 0 1.50044e-08
91 3 0.001 0.000261956 0 0.00193773 -4.66023e-10 0 2.9278e-10 0 1.45856e-08
92 3 0.001 0.00057839 0 0.00248383 3.34085e-10 0 -1.32227e-10 0 1.41929e-08
93 3 0.001 0.000906997 0 0.00302273 8.71025e-10 0 -4.58896e-10 0 1.38319e-08
94 3 0.001 0.00124629 0 0.00355499 -1.82e-09 0 1.2487e-09 0 1.35076e-08
95 3 0.001 0.00159479 0 0.0040813 2.70143e-09 0 -1.79985e-09 0 1.32241e-08
96 3 0.001 0.00195102 0 0.00460244 -2.20354e-09 0 1.56209e-09 0 1.29847e-08
97 3 0.001 0.00231351 0 0.00511927 1.0221e-09 0 -6.0756e-10 0 1.27921e-08
98 3 0.001 0.0026808 0 0.0056327 3.47996e-10 0 -1.5086e-10 0 1.26483e-08
99 3 0.001 0.00305144 0 0.00614374 -5.61387e-10 0 4.66207e-10 0 1.25547e-08
100 3 0.001 0.00342399 0 0.00665339 3.42025e-10 0 -2.46677e-10 0 1.25121e-08
101 3 0.001 0.00379701 0 0.00716271 4.94401e-10 0 -3.26565e-10 0 1.25211e-08
102 3 0.001 0.00416906 0 0.00767272 -1.15608e-09 0 9.09166e-10 0 1.25814e-08
103 3 0.001 0.00453871 0 0.00818448 2.14415e-09 0 -1.41595e-09 0 1.26926e-08
104 3 0.001 0.0049045 0 0.00869898 -2.82215e-09 0 2.0531e-09 0 1.28536e-08
105 3 0.001 0.00526498 0 0.0092172 2.72678e-09 0 -1.87281e-09 0 1.30627e-08
106 3 0.001 0.00561869 0 0.00974004 -1.2238e-09 0 8.42785e-10 0 1.33177e-08
107 3 0.001 0.00596416 0 0.0102683 -2.51599e-10 0 1.72788e-10 0 1.36158e-08
108 3 0.001 0.00629992 0 0.0108028 1.18409e-09 0 -6.51784e-10 0 1.39534e-08
109 3 0.001 0.00662447 0 0.0113442 -1.11795e-09 0 7.53138e-10 0 1.4326e-08
110 3 0.001 0.00693633 0 0.0118929 6.27103e-10 0 -3.27977e-10 0 1.47285e-08
111 3 0.001 0.00723402 0 0.0124494 -3.91804e-10 0 1.9438e-10 0 1.51548e-08
112 3 0.001 0.00751609 0 0.0130139 1.15973e-09 0 -5.16903e-10 0 1.55982e-08
113 3 0.001 0.00778109 0 0.0135866 -1.89532e-09 0 8.69261e-10 0 1.60509e-08
114 3 0.001 0.00802762 0 0.0141675 1.5335e-09 0 -5.79494e-10 0 1.65046e-08
115 3 0.001 0.00825434 0 0.0147563 9.69113e-11 0 5.28929e-11 0 1.69506e-08
116 3 0.001 0.00845996 0 0.0153528 -1.30116e-09 0 4.06085e-10 0 1.73796e-08
117 3 0.001 0.0086433 0 0.0159565 1.27866e-09 0 -3.91861e-10 0 1.77823e-08
118 3 0.001 0.00880326 0 0.0165668 -2.97799e-10 0 1.12796e-10 0 1.81497e-08
119 3 0.001 0.00893886 0 0.017183 -4.89017e-10 0 1.21979e-10 0 1.84731e-08
120 3 0.001 0.00904924 0 0.0178041 5.34823e-10 0 -4.54196e-11 0 1.87316e-08
121 3 0.001 0.00913372 0 0.0184292 -3.19938e-10 0 7.15079e-11 0 1.88955e-08
122 3 0.001 0.00919172 0 0.0190574 6.72347e-10 0 -2.43185e-11 0 1.89942e-08
123 3 0.001 0.00922279 0 0.0196875 -1.27632e-09 0 -1.32862e-11 0 1.91109e-08
124 3 0.001 0.00922651 0 0.0203183 1.48716e-09 0 1.52526e-11 0 1.93052e-08
125 3 0.001 0.00920253 0 0.0209486 -1.07873e-09 0 1.13987e-11 0 1.95857e-08
126 3 0.001 0.00915049 0 0.0215772 7.77462e-10 0 1.47801e-10 0 1.99032e-08
127 3 0.001 0.00907014 0 0.0222029 -9.74929e-10 0 -1.65334e-10 0 2.01657e-08
128 3 0.001 0.00896132 0 0.0228242 1.1645e-09 0 2.08574e-10 0 2.03104e-08
129 3 0.001 0.00882406 0 0.0234398 -9.73535e-10 0 -2.37872e-10 0 2.03485e-08
131 3 0.001 0.00846531 0 0.0246488 9.99202e-10 0 4.24768e-10 0 2.01682e-08
132 3 0.001 0.00824486 0 0.0252398 -1.84415e-09 0 -7.51352e-10 0 1.99546e-08
130 3 0.001 0.00865858 0 0.0240484 3.03712e-10 0 1.10239e-10 0 2.03007e-08
133 3 0.001 0.00799803 0 0.0258203 1.49619e-09 0 6.45248e-10 0 1.96659e-08
134 3 0.001 0.00772576 0 0.0263893 -6.10048e-10 0 -2.74358e-10 0 1.93098e-08
137 3 0.001 0.00676777 0 0.0280202 2.50519e-10 0 1.53654e-10 0 1.79353e-08
135 3 0.001 0.00742913 0 0.026946 1.20161e-10 0 8.86177e-11 0 1.88956e-08
136 3 0.001 0.00710937 0 0.0274898 -7.74726e-11 0 -5.38048e-11 0 1.84337e-08
138 3 0.001 0.00640574 0 0.028537 -2.72334e-10 0 -1.68103e-10 0 1.7412e-08
139 3 0.001 0.0060247 0 0.0290399 3.57252e-10 0 3.4218e-10 0 1.68753e-08
140 3 0.001 0.00562613 0 0.029529 -9.22832e-10 0 -7.89283e-10 0 1.63362e-08
141 3 0.001 0.00521154 0 0.0300048 1.68886e-09 0 1.49222e-09 0 1.58053e-08
142 3 0.001 0.00478242 0 0.0304675 -1.37266e-09 0 -1.33651e-09 0 1.52921e-08
143 3 0.001 0.00434024 0 0.0309178 2.59979e-10 0 2.71661e-10 0 1.48051e-08
145 3 0.001 0.00342255 0 0.0317844 -7.88685e-10 0 -8.74999e-10 0 1.39391e-08
146 3 0.001 0.00294985 0 0.0322027 1.01025e-09 0 1.09993e-09 0 1.35717e-08
147 3 0.001 0.00246972 0 0.0326125 -1.17808e-09 0 -1.45087e-09 0 1.32543e-08
144 3 0.001 0.00388648 0 0.0313565 5.43586e-10 0 6.7713e-10 0 1.4352e-08
151 3 0.001 0.000500015 0 0.0341935 -1.55048e-10 0 -2.58285e-10 0 5.45813e-09
148 3 0.001 0.00198347 0 0.0330151 1.23496e-09 0 1.56126e-09 0 1.29903e-08
149 3 0.001 0.00149238 0 0.0334117 -1.0301e-09 0 -1.21067e-09 0 1.25663e-08
150 3 0.001 0.000997648 0 0.0338039 6.02864e-10 0 7.21793e-10 0 8.87935e-09
2 2 0.001 0 0 0.03458 -0.00373201 0 0.015263 0 2.70905e-09
