ITEM: TIMESTEP
1200000
ITEM: NUMBER OF ATOMS
151
ITEM: BOX BOUNDS ff ff ff
-1.0000000000000000e-02 1.0000000000000000e-02
-6.0000000000000001e-03 6.0000000000000001e-03
-5.2499999999999998e-02 5.2499999999999998e-02
ITEM: ATOMS id type radius x y z fx fy fz c_bendingE c_stretchingE
1 1 0.001 0 0 -0.0475 -0.000249027 0 -0.00247192 0 1.21178e-10
3 3 0.001 0.000197439 0 -0.0468979 -2.9208e-07 0 -4.8956e-07 0 2.42253e-10
4 3 0.001 0.000394676 0 -0.0462958 3.46808e-07 0 1.46752e-06 0 3.25695e-10
5 3 0.001 0.00059151 0 -0.0456942 1.10708e-07 0 7.72458e-07 0 4.47165e-10
6 3 0.001 0.000788033 0 -0.0450926 -2.81667e-07 0 -1.66534e-07 0 4.85209e-10
7 3 0.001 0.000984154 0 -0.0444908 -2.40976e-07 0 4.25955e-07 0 4.8535e-10
8 3 0.001 0.00117977 0 -0.0438888 -4.90356e-07 0 2.01977e-07 0 4.85469e-10
9 3 0.001 0.00137479 0 -0.0432867 -8.25081e-07 0 -9.36788e-07 0 4.85916e-10
10 3 0.001 0.00156911 0 -0.0426843 -5.38618e-07 0 -2.89857e-08 0 4.86442e-10
11 3 0.001 0.00176264 0 -0.0420817 1.07594e-07 0 1.86161e-06 0 4.8641e-10
12 3 0.001 0.00195526 0 -0.0414788 -4.34195e-07 0 6.0331e-07 0 4.8628e-10
13 3 0.001 0.0021469 0 -0.0408756 -1.59629e-07 0 1.78841e-06 0 4.86211e-10
14 3 0.001 0.00233744 0 -0.040272 -1.14491e-06 0 -9.2011e-07 0 4.86502e-10
15 3 0.001 0.0025268 0 -0.0396681 -1.21913e-06 0 -1.22173e-06 0 4.8746e-10
16 3 0.001 0.00271488 0 -0.0390637 -1.39887e-06 0 -2.2027e-06 0 4.88704e-10
17 3 0.001 0.00290159 0 -0.038459 -7.64261e-07 0 -1.36678e-07 0 4.89738e-10
18 3 0.001 0.00308683 0 -0.0378537 -2.25952e-07 0 1.97773e-06 0 4.89922e-10
19 3 0.001 0.00327052 0 -0.037248 -8.14491e-07 0 6.6705e-07 0 4.89975e-10
20 3 0.001 0.00345255 0 -0.0366419 -4.70897e-07 0 1.76615e-06 0 4.90101e-10
21 3 0.001 0.00363285 0 -0.0360352 -9.11501e-07 0 -1.90054e-07 0 4.90414e-10
22 3 0.001 0.00381132 0 -0.0354279 -6.23743e-07 0 4.36488e-07 0 4.91007e-10
23 3 0.001 0.00398788 0 -0.0348201 -6.71875e-07 0 1.9135e-07 0 4.91527e-10
24 3 0.001 0.00416244 0 -0.0342117 -6.55473e-07 0 7.83504e-07 0 4.91993e-10
25 3 0.001 0.00433491 0 -0.0336027 -7.97212e-07 0 6.25014e-07 0 4.92391e-10
26 3 0.001 0.00450523 0 -0.0329932 -8.27528e-07 0 1.60669e-07 0 4.92926e-10
27 3 0.001 0.00467329 0 -0.0323829 -3.11858e-07 0 1.42352e-06 0 4.93285e-10
28 3 0.001 0.00483904 0 -0.0317721 -5.32912e-07 0 2.42236e-07 0 4.93616e-10
29 3 0.001 0.00500238 0 -0.0311606 -4.49508e-07 0 6.1073e-07 0 4.94115e-10
30 3 0.001 0.00516324 0 -0.0305485 -8.1062e-07 0 -5.13083e-07 0 4.94775e-10
31 3 0.001 0.00532155 0 -0.0299357 -8.77042e-07 0 -1.00221e-06 0 4.95771e-10
32 3 0.001 0.00547724 0 -0.0293222 -2.74581e-07 0 5.56363e-07 0 4.96527e-10
33 3 0.001 0.00563024 0 -0.028708 -1.18708e-07 0 4.88045e-07 0 4.96948e-10
34 3 0.001 0.00578048 0 -0.0280932 -2.52098e-07 0 -3.64168e-07 0 4.97542e-10
35 3 0.001 0.00592788 0 -0.0274777 -3.7324e-07 0 -5.30304e-08 0 4.98247e-10
36 3 0.001 0.0060724 0 -0.0268614 1.48266e-08 0 1.22916e-06 0 4.98614e-10
37 3 0.001 0.00621397 0 -0.0262446 -3.14093e-07 0 -7.94574e-07 0 4.99112e-10
38 3 0.001 0.00635252 0 -0.025627 5.38156e-07 0 1.39357e-06 0 4.99541e-10
39 3 0.001 0.006488 0 -0.0250087 6.92972e-07 0 2.03947e-06 0 4.99349e-10
40 3 0.001 0.00662036 0 -0.0243898 1.04136e-07 0 -3.51766e-07 0 4.99507e-10
41 3 0.001 0.00674954 0 -0.0237702 3.50385e-08 0 -2.63057e-08 0 5.00084e-10
42 3 0.001 0.0068755 0 -0.0231499 5.90616e-09 0 -1.09968e-06 0 5.00796e-10
43 3 0.001 0.00699818 0 -0.022529 2.08496e-07 0 -1.95471e-06 0 5.01865e-10
44 3 0.001 0.00711753 0 -0.0219074 5.23596e-07 0 -1.02931e-06 0 5.0288e-10
45 3 0.001 0.00723352 0 -0.0212852 6.59626e-07 0 1.8419e-08 0 5.03463e-10
46 3 0.001 0.00734611 0 -0.0206624 4.11074e-07 0 -9.61484e-08 0 5.0384e-10
47 3 0.001 0.00745525 0 -0.0200389 4.13094e-07 0 -3.90913e-07 0 5.04283e-10
48 3 0.001 0.00756092 0 -0.0194149 8.41631e-07 0 4.62608e-07 0 5.04574e-10
49 3 0.001 0.00766307 0 -0.0187903 9.98324e-07 0 -3.69757e-07 0 5.04815e-10
50 3 0.001 0.00776168 0 -0.0181651 1.19427e-06 0 7.12688e-07 0 5.04968e-10
51 3 0.001 0.00785672 0 -0.0175393 9.34869e-07 0 6.99427e-07 0 5.04882e-10
52 3 0.001 0.00794816 0 -0.016913 4.87078e-07 0 -7.99163e-07 0 5.05094e-10
53 3 0.001 0.00803598 0 -0.0162862 8.0266e-07 0 6.52235e-07 0 5.0529e-10
54 3 0.001 0.00812017 0 -0.0156589 1.12661e-06 0 3.53647e-07 0 5.05206e-10
55 3 0.001 0.0082007 0 -0.0150312 1.10562e-06 0 -6.86858e-07 0 5.05356e-10
56 3 0.001 0.00827756 0 -0.0144029 1.1301e-06 0 6.93967e-07 0 5.05408e-10
57 3 0.001 0.00835074 0 -0.0137742 7.14313e-07 0 -1.20429e-07 0 5.05325e-10
58 3 0.001 0.00842023 0 -0.0131451 7.99013e-07 0 1.44938e-06 0 5.05065e-10
59 3 0.001 0.00848602 0 -0.0125156 1.04611e-06 0 1.17797e-06 0 5.04504e-10
60 3 0.001 0.00854812 0 -0.0118858 1.0817e-06 0 -5.24764e-07 0 5.04307e-10
61 3 0.001 0.00860652 0 -0.0112555 1.04029e-06 0 5.2081e-08 0 5.0431e-10
62 3 0.001 0.00866121 0 -0.010625 5.49261e-07 0 -1.97397e-06 0 5.04586e-10
63 3 0.001 0.00871222 0 -0.00999411 4.01139e-07 0 -1.35936e-06 0 5.0513e-10
64 3 0.001 0.00875955 0 -0.00936296 6.80236e-07 0 1.38906e-07 0 5.05211e-10
65 3 0.001 0.0088032 0 -0.00873154 9.22733e-07 0 -1.88305e-07 0 5.05015e-10
66 3 0.001 0.00884319 0 -0.00809988 9.94184e-07 0 2.84773e-07 0 5.04757e-10
67 3 0.001 0.00887954 0 -0.007468 7.31398e-07 0 5.22813e-07 0 5.04328e-10
68 3 0.001 0.00891227 0 -0.00683592 3.48048e-07 0 -2.11552e-07 0 5.03979e-10
69 3 0.001 0.00894139 0 -0.00620367 5.27118e-07 0 1.25586e-06 0 5.03456e-10
70 3 0.001 0.00896695 0 -0.00557126 6.37396e-07 0 -5.49358e-07 0 5.0297e-10
71 3 0.001 0.00898895 0 -0.00493871 7.96208e-07 0 -1.12204e-06 0 5.02942e-10
72 3 0.001 0.00900744 0 -0.00430606 6.14117e-07 0 1.39578e-06 0 5.02471e-10
73 3 0.001 0.00902244 0 -0.00367331 2.96684e-07 0 -1.57756e-06 0 5.01988e-10
74 3 0.001 0.009034 0 -0.00304049 2.12873e-07 0 -8.43307e-07 0 5.01875e-10
75 3 0.001 0.00904214 0 -0.00240761 4.83131e-07 0 1.467e-06 0 5.01188e-10
76 3 0.001 0.00904689 0 -0.0017747 7.71462e-07 0 -1.83964e-06 0 5.00878e-10
77 3 0.001 0.00904827 0 -0.00114178 6.9067e-07 0 5.42522e-09 0 5.01126e-10
78 3 0.001 0.00904628 0 -0.000508855 4.83403e-07 0 1.87297e-06 0 5.00909e-10
79 3 0.001 0.00904093 0 0.000124049 2.76145e-07 0 -1.43054e-06 0 5.01232e-10
80 3 0.001 0.00903218 0 0.000756915 3.01614e-07 0 8.92243e-07 0 5.01909e-10
81 3 0.001 0.00902001 0 0.00138972 6.32328e-07 0 1.62817e-06 0 5.01985e-10
82 3 0.001 0.0090044 0 0.00202246 9.23805e-07 0 -1.34505e-06 0 5.02415e-10
83 3 0.001 0.0089853 0 0.0026551 6.46649e-07 0 1.18199e-06 0 5.02837e-10
84 3 0.001 0.00896268 0 0.00328762 4.52828e-07 0 6.02343e-07 0 5.02823e-10
85 3 0.001 0.00893652 0 0.00392 4.67122e-07 0 -1.21654e-06 0 5.0327e-10
86 3 0.001 0.00890679 0 0.00455223 7.36059e-07 0 2.77548e-07 0 5.03759e-10
87 3 0.001 0.00887346 0 0.00518428 1.07526e-06 0 -4.6895e-07 0 5.04074e-10
88 3 0.001 0.00883651 0 0.00581612 1.06349e-06 0 -2.49962e-07 0 5.04473e-10
89 3 0.001 0.00879594 0 0.00644775 7.89324e-07 0 2.08914e-07 0 5.04703e-10
90 3 0.001 0.00875171 0 0.00707913 6.43773e-07 0 -1.18509e-07 0 5.04872e-10
92 3 0.001 0.00865226 0 0.00834106 9.057e-07 0 2.05689e-06 0 5.04184e-10
91 3 0.001 0.00870382 0 0.00771024 6.86808e-07 0 1.42364e-06 0 5.04762e-10
93 3 0.001 0.00859703 0 0.00897157 1.27076e-06 0 2.9369e-08 0 5.0387e-10
94 3 0.001 0.00853811 0 0.00960175 1.00125e-06 0 5.74474e-07 0 5.03831e-10
95 3 0.001 0.00847551 0 0.0102316 1.00478e-06 0 -1.12426e-06 0 5.03991e-10
96 3 0.001 0.00840923 0 0.010861 1.03678e-06 0 -1.37718e-06 0 5.04517e-10
97 3 0.001 0.00833927 0 0.0114901 1.12324e-06 0 1.91516e-07 0 5.0475e-10
98 3 0.001 0.00826564 0 0.0121187 1.40371e-06 0 -6.20056e-07 0 5.04809e-10
99 3 0.001 0.00818835 0 0.0127469 1.19542e-06 0 7.72226e-07 0 5.04725e-10
100 3 0.001 0.00810741 0 0.0133746 9.81217e-07 0 -3.46951e-07 0 5.04546e-10
102 3 0.001 0.00793466 0 0.0146286 8.62773e-07 0 8.65789e-07 0 5.04411e-10
101 3 0.001 0.00802284 0 0.0140019 9.53907e-07 0 -6.34584e-07 0 5.04617e-10
103 3 0.001 0.00784288 0 0.0152548 1.35112e-06 0 -5.95517e-07 0 5.04182e-10
104 3 0.001 0.00774753 0 0.0158805 1.42029e-06 0 -6.15338e-07 0 5.04243e-10
106 3 0.001 0.00754622 0 0.0171303 7.84672e-07 0 -4.38762e-07 0 5.03801e-10
107 3 0.001 0.00744033 0 0.0177543 6.23298e-07 0 4.29814e-07 0 5.03501e-10
105 3 0.001 0.00764863 0 0.0165057 9.16378e-07 0 4.11068e-07 0 5.04062e-10
108 3 0.001 0.00733098 0 0.0183777 9.17432e-07 0 1.84371e-07 0 5.03056e-10
109 3 0.001 0.00721822 0 0.0190005 1.01489e-06 0 8.43064e-08 0 5.02673e-10
110 3 0.001 0.00710208 0 0.0196227 6.16171e-07 0 1.11311e-06 0 5.02072e-10
111 3 0.001 0.0069826 0 0.0202442 2.70664e-09 0 1.93878e-06 0 5.01042e-10
112 3 0.001 0.00685983 0 0.0208651 7.62907e-08 0 1.06644e-06 0 4.9998e-10
113 3 0.001 0.00673381 0 0.0214854 4.26475e-07 0 5.41112e-08 0 4.99293e-10
114 3 0.001 0.0066046 0 0.022105 5.16173e-07 0 4.28133e-07 0 4.98733e-10
115 3 0.001 0.00647223 0 0.0227239 9.24078e-07 0 -1.94572e-06 0 4.98575e-10
116 3 0.001 0.00633677 0 0.0233422 4.3963e-07 0 -1.36483e-06 0 4.98755e-10
119 3 0.001 0.00591238 0 0.0251929 4.14569e-08 0 1.19692e-07 0 4.97533e-10
117 3 0.001 0.00619827 0 0.0239598 -3.14606e-07 0 7.5922e-07 0 4.98331e-10
118 3 0.001 0.00605679 0 0.0245767 1.61301e-07 0 -1.28912e-06 0 4.97866e-10
121 3 0.001 0.00561503 0 0.0264233 -3.68403e-08 0 -4.23321e-07 0 4.96234e-10
120 3 0.001 0.00576511 0 0.0258085 -8.91064e-09 0 4.72787e-07 0 4.96835e-10
122 3 0.001 0.00546223 0 0.0270376 -3.43914e-07 0 -5.51438e-07 0 4.95811e-10
123 3 0.001 0.00530676 0 0.0276511 -8.11613e-07 0 1.00993e-06 0 4.95064e-10
124 3 0.001 0.00514869 0 0.028264 -5.60268e-07 0 5.58397e-07 0 4.94086e-10
125 3 0.001 0.0049881 0 0.0288762 -1.44994e-07 0 -4.95508e-07 0 4.93435e-10
126 3 0.001 0.00482506 0 0.0294877 -4.19196e-07 0 -1.31014e-07 0 4.92927e-10
128 3 0.001 0.00449191 0 0.030709 -8.62765e-07 0 -2.0898e-07 0 4.92241e-10
127 3 0.001 0.00465963 0 0.0300987 -3.78013e-07 0 -1.4055e-06 0 4.92586e-10
129 3 0.001 0.00432197 0 0.0313187 -5.61879e-07 0 -6.07107e-07 0 4.91735e-10
131 3 0.001 0.00397574 0 0.0325363 -5.36745e-07 0 -1.06713e-07 0 4.90904e-10
130 3 0.001 0.00414988 0 0.0319278 -3.42715e-07 0 -7.05092e-07 0 4.91362e-10
132 3 0.001 0.00379961 0 0.0331442 -7.06006e-07 0 -3.96563e-07 0 4.90376e-10
133 3 0.001 0.0036216 0 0.0337516 -1.04899e-06 0 1.46817e-07 0 4.89785e-10
134 3 0.001 0.00344178 0 0.0343584 -3.76658e-07 0 -1.78817e-06 0 4.89495e-10
135 3 0.001 0.00326024 0 0.0349648 -4.8324e-07 0 -6.32445e-07 0 4.89404e-10
136 3 0.001 0.00307706 0 0.0355706 -2.39101e-08 0 -1.91422e-06 0 4.89375e-10
138 3 0.001 0.00270619 0 0.0367809 -1.63013e-06 0 2.17772e-06 0 4.88142e-10
137 3 0.001 0.00289235 0 0.036176 -8.21629e-07 0 1.97477e-07 0 4.89188e-10
140 3 0.001 0.00232988 0 0.0379896 -9.36049e-07 0 8.85039e-07 0 4.85995e-10
141 3 0.001 0.00213992 0 0.0385933 8.66405e-08 0 -1.72646e-06 0 4.85735e-10
139 3 0.001 0.00251867 0 0.0373854 -1.22434e-06 0 1.16446e-06 0 4.86911e-10
142 3 0.001 0.00194888 0 0.0391967 -3.92728e-07 0 -4.82352e-07 0 4.85797e-10
143 3 0.001 0.00175686 0 0.0397998 -8.76872e-08 0 -1.83487e-06 0 4.85898e-10
144 3 0.001 0.00156395 0 0.0404027 -6.72067e-07 0 -2.08082e-08 0 4.85923e-10
145 3 0.001 0.00137026 0 0.0410052 -7.80254e-07 0 8.69567e-07 0 4.85421e-10
146 3 0.001 0.00117587 0 0.0416076 -2.45582e-07 0 -1.80658e-07 0 4.85007e-10
148 3 0.001 0.000785417 0 0.0428117 -3.90779e-07 0 2.12731e-07 0 4.84743e-10
147 3 0.001 0.000980892 0 0.0422097 -1.73295e-07 0 -3.76343e-07 0 4.849e-10
149 3 0.001 0.000589544 0 0.0434136 -5.81079e-08 0 -7.80964e-07 0 4.467e-10
150 3 0.001 0.000393362 0 0.0440154 3.72528e-07 0 -1.52508e-06 0 3.25632e-10
151 3 0.001 0.000196781 0 0.0446177 -1.23659e-07 0 4.66883e-07 0 2.42568e-10
2 2 0.001 0 0 0.04522 -0.000251695 0 0.00246931 0 1.2133e-10
