ITEM: TIMESTEP
5300000
ITEM: NUMBER OF ATOMS
151
ITEM: BOX BOUNDS ff ff ff
-1.0000000000000000e-02 1.0000000000000000e-02
-6.0000000000000001e-03 6.0000000000000001e-03
-5.2499999999999998e-02 5.2499999999999998e-02
ITEM: ATOMS id type radius x y z fx fy fz c_bendingE c_stretchingE
1 1 0.001 0 0 -0.0475 -0.00513839 0 -0.0161069 0 4.19115e-09
3 3 0.001 0.000484671 0 -0.0470949 1.64144e-10 0 -2.05494e-10 0 8.42485e-09
4 3 0.001 0.000967036 0 -0.0466871 -6.69351e-11 0 8.60846e-11 0 1.24983e-08
5 3 0.001 0.00144659 0 -0.046277 2.72029e-10 0 -2.87301e-10 0 1.68717e-08
6 3 0.001 0.00192264 0 -0.0458629 -3.04861e-10 0 3.41655e-10 0 1.73302e-08
7 3 0.001 0.00239402 0 -0.0454435 5.48699e-10 0 -6.21973e-10 0 1.75884e-08
8 3 0.001 0.00285954 0 -0.0450177 -2.04435e-10 0 2.18611e-10 0 1.78965e-08
9 3 0.001 0.00331796 0 -0.0445842 -4.93934e-12 0 1.20182e-11 0 1.82501e-08
10 3 0.001 0.00376802 0 -0.0441421 7.98703e-10 0 -7.75151e-10 0 1.86436e-08
11 3 0.001 0.00420847 0 -0.0436905 -7.54624e-10 0 6.98231e-10 0 1.90705e-08
12 3 0.001 0.004638 0 -0.0432285 7.27755e-10 0 -7.16381e-10 0 1.95235e-08
13 3 0.001 0.0050553 0 -0.0427555 1.1169e-10 0 -9.26926e-11 0 1.99941e-08
14 3 0.001 0.00545906 0 -0.0422709 -4.1365e-10 0 3.15458e-10 0 2.04733e-08
15 3 0.001 0.00584798 0 -0.0417744 9.72544e-10 0 -7.5694e-10 0 2.0951e-08
16 3 0.001 0.00622077 0 -0.0412657 -1.04288e-09 0 6.90473e-10 0 2.14171e-08
17 3 0.001 0.00657618 0 -0.0407447 1.71727e-09 0 -1.15359e-09 0 2.18611e-08
18 3 0.001 0.00691299 0 -0.0402115 -1.61139e-09 0 9.21713e-10 0 2.22723e-08
19 3 0.001 0.00723008 0 -0.0396664 1.33114e-09 0 -8.17683e-10 0 2.26409e-08
20 3 0.001 0.00752637 0 -0.0391098 -3.58378e-10 0 1.52712e-10 0 2.29575e-08
21 3 0.001 0.00780092 0 -0.0385421 3.77888e-11 0 -8.12912e-11 0 2.32138e-08
22 3 0.001 0.00805289 0 -0.0379641 3.9537e-10 0 -2.32698e-10 0 2.3403e-08
23 3 0.001 0.00828157 0 -0.0373765 -1.24633e-10 0 -1.08318e-11 0 2.35201e-08
24 3 0.001 0.00848641 0 -0.0367801 1.53608e-10 0 -1.4658e-10 0 2.35619e-08
25 3 0.001 0.008667 0 -0.036176 -8.60615e-11 0 -5.43216e-11 0 2.35271e-08
26 3 0.001 0.00882311 0 -0.0355651 4.25794e-10 0 -1.52453e-10 0 2.34168e-08
27 3 0.001 0.00895467 0 -0.0349484 -2.19245e-10 0 -2.69119e-11 0 2.3234e-08
28 3 0.001 0.00906181 0 -0.034327 3.31736e-10 0 -1.48367e-10 0 2.29639e-08
29 3 0.001 0.0091448 0 -0.0337019 -1.33695e-10 0 -8.96822e-11 0 2.25883e-08
30 3 0.001 0.00920409 0 -0.0330741 4.99088e-10 0 -1.32517e-10 0 2.21534e-08
31 3 0.001 0.00924019 0 -0.0324445 -6.28803e-11 0 -8.52454e-11 0 2.17481e-08
32 3 0.001 0.00925366 0 -0.0318139 -7.45489e-10 0 -1.10637e-10 0 2.14361e-08
33 3 0.001 0.00924503 0 -0.0311833 1.70406e-09 0 -2.90192e-11 0 2.12398e-08
34 3 0.001 0.00921479 0 -0.0305533 -1.4349e-09 0 -1.88076e-10 0 2.11397e-08
35 3 0.001 0.00916339 0 -0.0299247 1.35391e-09 0 1.50497e-11 0 2.10822e-08
36 3 0.001 0.00909129 0 -0.0292982 -6.36538e-10 0 -2.19056e-10 0 2.09956e-08
37 3 0.001 0.00899896 0 -0.0286743 6.40969e-10 0 -3.60542e-11 0 2.08276e-08
38 3 0.001 0.00888694 0 -0.0280536 -1.37621e-10 0 -1.32352e-10 0 2.05952e-08
39 3 0.001 0.00875591 0 -0.0274366 4.03671e-10 0 -1.10369e-11 0 2.03333e-08
42 3 0.001 0.00825676 0 -0.0256118 5.40725e-10 0 -4.17572e-12 0 1.94319e-08
40 3 0.001 0.00860661 0 -0.0268238 1.38473e-10 0 -1.0647e-10 0 2.00479e-08
41 3 0.001 0.00843992 0 -0.0262154 1.02752e-10 0 -1.4357e-10 0 1.97453e-08
44 3 0.001 0.00784512 0 -0.0244193 -2.42783e-10 0 -2.52264e-10 0 1.87984e-08
43 3 0.001 0.00805813 0 -0.0250131 1.22088e-10 0 -1.26174e-10 0 1.91141e-08
46 3 0.001 0.00738047 0 -0.0232463 -4.78878e-10 0 -3.71146e-10 0 1.81971e-08
45 3 0.001 0.00761885 0 -0.0238304 1.03351e-09 0 2.57306e-10 0 1.84908e-08
47 3 0.001 0.00713119 0 -0.0226668 9.43308e-10 0 2.03969e-10 0 1.79224e-08
49 3 0.001 0.00660489 0 -0.02152 7.34149e-10 0 1.24582e-10 0 1.74485e-08
48 3 0.001 0.00687225 0 -0.0220914 -3.56464e-10 0 -3.85615e-10 0 1.76715e-08
51 3 0.001 0.00605 0 -0.0203866 1.79436e-09 0 7.20857e-10 0 1.71001e-08
50 3 0.001 0.00633038 0 -0.0209519 -6.49501e-10 0 -5.0074e-10 0 1.72571e-08
52 3 0.001 0.00576504 0 -0.0198237 -1.43355e-09 0 -9.56234e-10 0 1.698e-08
55 3 0.001 0.00489562 0 -0.0181422 2.14285e-10 0 -1.05858e-10 0 1.68556e-08
53 3 0.001 0.00547679 0 -0.0192624 1.27883e-09 0 4.14532e-10 0 1.68985e-08
54 3 0.001 0.00518655 0 -0.0187022 8.95494e-11 0 -1.80967e-10 0 1.68568e-08
57 3 0.001 0.00431689 0 -0.0170208 6.3814e-10 0 1.27803e-10 0 1.69737e-08
56 3 0.001 0.0046053 0 -0.017582 -4.44469e-11 0 -2.46817e-10 0 1.68947e-08
60 3 0.001 0.00347605 0 -0.015325 3.84543e-10 0 -5.52354e-11 0 1.74355e-08
59 3 0.001 0.00375097 0 -0.0158929 2.67429e-10 0 -9.27447e-11 0 1.72461e-08
58 3 0.001 0.00403168 0 -0.016458 4.3598e-11 0 -1.86436e-10 0 1.70914e-08
62 3 0.001 0.00294869 0 -0.0141787 -1.70468e-10 0 -2.55907e-10 0 1.79058e-08
61 3 0.001 0.0032082 0 -0.0147538 4.51865e-10 0 -2.82631e-11 0 1.76565e-08
63 3 0.001 0.00269877 0 -0.0135994 7.83416e-10 0 1.74858e-10 0 1.81791e-08
64 3 0.001 0.00245967 0 -0.0130156 -7.5351e-11 0 -2.35898e-10 0 1.84719e-08
65 3 0.001 0.00223259 0 -0.0124271 8.3148e-10 0 1.06617e-10 0 1.87787e-08
67 3 0.001 0.00181915 0 -0.0112352 -1.06297e-10 0 -1.59384e-10 0 1.94119e-08
66 3 0.001 0.00201871 0 -0.0118336 1.74341e-10 0 -1.387e-10 0 1.90941e-08
69 3 0.001 0.00146722 0 -0.0100238 2.14156e-10 0 -8.9248e-11 0 2.00293e-08
70 3 0.001 0.0013168 0 -0.00941126 2.46549e-10 0 -6.59314e-11 0 2.0316e-08
68 3 0.001 0.00163498 0 -0.0106319 1.06683e-09 0 1.74329e-10 0 1.97258e-08
71 3 0.001 0.00118459 0 -0.00879453 2.31198e-10 0 -5.84351e-11 0 2.05795e-08
72 3 0.001 0.00107135 0 -0.00817406 1.43492e-09 0 1.47715e-10 0 2.0814e-08
73 3 0.001 0.000977762 0 -0.00755034 -7.81998e-10 0 -1.98158e-10 0 2.1014e-08
74 3 0.001 0.000904372 0 -0.00692393 1.00965e-09 0 5.76973e-11 0 2.11747e-08
75 3 0.001 0.000851628 0 -0.00629545 8.65025e-10 0 8.58715e-12 0 2.12924e-08
76 3 0.001 0.000819851 0 -0.00566557 -6.05723e-10 0 -1.72168e-11 0 2.13642e-08
77 3 0.001 0.000809235 0 -0.00503498 1.23272e-09 0 -2.73879e-12 0 2.13883e-08
78 3 0.001 0.000819847 0 -0.0044044 5.05842e-10 0 -3.8781e-11 0 2.13642e-08
79 3 0.001 0.000851621 0 -0.00377452 -1.37468e-11 0 9.19311e-12 0 2.12924e-08
80 3 0.001 0.000904362 0 -0.00314604 4.10029e-10 0 4.38471e-11 0 2.11748e-08
81 3 0.001 0.000977749 0 -0.00251963 9.41004e-10 0 -5.37135e-11 0 2.1014e-08
82 3 0.001 0.00107134 0 -0.00189591 4.37083e-10 0 -2.59991e-11 0 2.08141e-08
83 3 0.001 0.00118457 0 -0.00127543 -4.21798e-10 0 1.69477e-10 0 2.05797e-08
84 3 0.001 0.00131678 0 -0.000658709 1.38451e-09 0 -1.96423e-10 0 2.03161e-08
85 3 0.001 0.00146719 0 -4.61523e-05 4.02703e-11 0 1.05524e-10 0 2.00295e-08
86 3 0.001 0.00163495 0 0.000561902 8.31827e-11 0 1.11603e-10 0 1.9726e-08
87 3 0.001 0.00181912 0 0.00116521 9.00929e-10 0 -1.35561e-10 0 1.94121e-08
88 3 0.001 0.00201868 0 0.00176363 2.91664e-10 0 5.26908e-11 0 1.90943e-08
89 3 0.001 0.00223256 0 0.0023571 6.20463e-11 0 1.5592e-10 0 1.87789e-08
90 3 0.001 0.00245963 0 0.00294567 4.57837e-10 0 1.35712e-11 0 1.8472e-08
91 3 0.001 0.00269873 0 0.00352948 7.2309e-10 0 -1.13157e-10 0 1.81793e-08
92 3 0.001 0.00294865 0 0.00410876 -4.55227e-10 0 3.86917e-10 0 1.7906e-08
93 3 0.001 0.00320816 0 0.00468383 9.64232e-10 0 -2.56833e-10 0 1.76567e-08
94 3 0.001 0.00347601 0 0.00525508 -2.17643e-10 0 3.11677e-10 0 1.74357e-08
95 3 0.001 0.00375093 0 0.00582298 1.02617e-09 0 -2.91639e-10 0 1.72463e-08
96 3 0.001 0.00403164 0 0.00638805 -7.46627e-10 0 5.91911e-10 0 1.70916e-08
97 3 0.001 0.00431684 0 0.00695088 1.1696e-09 0 -3.77919e-10 0 1.69739e-08
98 3 0.001 0.00460525 0 0.00751207 -2.24759e-10 0 3.33579e-10 0 1.68949e-08
99 3 0.001 0.00489558 0 0.00807229 4.54241e-10 0 -1.16149e-11 0 1.68557e-08
100 3 0.001 0.00518651 0 0.00863219 -1e-10 0 2.66403e-10 0 1.6857e-08
101 3 0.001 0.00547675 0 0.00919245 8.81552e-10 0 -2.50114e-10 0 1.68987e-08
102 3 0.001 0.005765 0 0.00975373 -3.21544e-10 0 3.6379e-10 0 1.69802e-08
103 3 0.001 0.00604996 0 0.0103167 5.42845e-10 0 -5.81049e-11 0 1.71003e-08
104 3 0.001 0.00633034 0 0.0108819 2.27813e-10 0 1.06165e-10 0 1.72573e-08
105 3 0.001 0.00660485 0 0.01145 2.39563e-10 0 9.46574e-11 0 1.74487e-08
106 3 0.001 0.00687221 0 0.0120215 1.74236e-11 0 1.64968e-10 0 1.76717e-08
107 3 0.001 0.00713116 0 0.0125968 7.06184e-10 0 -1.36548e-10 0 1.79226e-08
108 3 0.001 0.00738044 0 0.0131764 -1.05286e-10 0 2.27114e-10 0 1.81973e-08
109 3 0.001 0.00761882 0 0.0137605 5.41542e-10 0 -3.51971e-11 0 1.84911e-08
110 3 0.001 0.0078451 0 0.0143493 -3.5896e-10 0 3.0443e-10 0 1.87987e-08
111 3 0.001 0.00805811 0 0.0149431 8.96072e-10 0 -1.47233e-10 0 1.91144e-08
112 3 0.001 0.00825673 0 0.0155418 -7.56813e-11 0 1.85776e-10 0 1.94322e-08
113 3 0.001 0.0084399 0 0.0161455 -7.77759e-11 0 1.54197e-10 0 1.97456e-08
114 3 0.001 0.0086066 0 0.0167538 9.80891e-10 0 -1.22729e-10 0 2.00483e-08
115 3 0.001 0.00875589 0 0.0173666 -5.45438e-10 0 2.6134e-10 0 2.03337e-08
116 3 0.001 0.00888693 0 0.0179836 3.44308e-10 0 4.95067e-11 0 2.05955e-08
117 3 0.001 0.00899895 0 0.0186043 4.26134e-10 0 5.13503e-11 0 2.0828e-08
118 3 0.001 0.00909129 0 0.0192282 -1.02337e-10 0 1.52505e-10 0 2.0996e-08
119 3 0.001 0.00916339 0 0.0198548 -2.55686e-11 0 1.0647e-10 0 2.10826e-08
120 3 0.001 0.00921478 0 0.0204834 7.40244e-10 0 4.00227e-11 0 2.11401e-08
121 3 0.001 0.00924503 0 0.0211133 -5.43371e-10 0 9.97495e-11 0 2.12402e-08
122 3 0.001 0.00925366 0 0.021744 8.04435e-10 0 1.01455e-10 0 2.14365e-08
123 3 0.001 0.0092402 0 0.0223745 -1.06541e-09 0 5.9044e-11 0 2.17485e-08
124 3 0.001 0.0092041 0 0.0230041 1.58954e-09 0 2.24675e-10 0 2.21538e-08
125 3 0.001 0.00914482 0 0.0236319 -1.29897e-09 0 -5.27119e-11 0 2.25888e-08
126 3 0.001 0.00906183 0 0.024257 6.79426e-10 0 1.41854e-10 0 2.29644e-08
127 3 0.001 0.00895469 0 0.0248784 1.92462e-10 0 1.19573e-10 0 2.32346e-08
128 3 0.001 0.00882313 0 0.0254951 1.85412e-13 0 1.19921e-10 0 2.34175e-08
129 3 0.001 0.00866702 0 0.026106 -4.12743e-10 0 -3.21449e-11 0 2.35278e-08
131 3 0.001 0.0082816 0 0.0273065 1.66776e-10 0 1.52109e-10 0 2.35208e-08
132 3 0.001 0.00805292 0 0.0278941 -7.42622e-10 0 -2.72674e-10 0 2.34037e-08
130 3 0.001 0.00848643 0 0.0267102 6.98642e-10 0 2.90836e-10 0 2.35625e-08
133 3 0.001 0.00780095 0 0.0284722 1.29186e-09 0 6.36614e-10 0 2.32145e-08
134 3 0.001 0.0075264 0 0.0290398 -9.10131e-10 0 -3.92918e-10 0 2.29582e-08
135 3 0.001 0.0072301 0 0.0295965 4.74192e-10 0 3.05345e-10 0 2.26417e-08
136 3 0.001 0.00691302 0 0.0301416 2.04257e-10 0 2.15493e-10 0 2.22731e-08
137 3 0.001 0.00657621 0 0.0306747 -1.25094e-10 0 -3.19428e-11 0 2.18618e-08
138 3 0.001 0.0062208 0 0.0311957 6.64563e-10 0 4.76867e-10 0 2.14179e-08
141 3 0.001 0.00505532 0 0.0326855 -7.6604e-10 0 -5.60015e-10 0 1.99948e-08
139 3 0.001 0.00584801 0 0.0317044 -7.7378e-10 0 -6.11074e-10 0 2.09518e-08
140 3 0.001 0.00545909 0 0.0322009 1.12404e-09 0 9.56725e-10 0 2.0474e-08
144 3 0.001 0.00376804 0 0.0340721 6.96734e-10 0 6.62948e-10 0 1.86443e-08
142 3 0.001 0.00463802 0 0.0331585 7.83203e-10 0 7.49047e-10 0 1.95242e-08
143 3 0.001 0.00420849 0 0.0336205 -6.47716e-10 0 -6.50144e-10 0 1.90712e-08
145 3 0.001 0.00331797 0 0.0345142 2.86515e-10 0 3.15423e-10 0 1.82507e-08
146 3 0.001 0.00285955 0 0.0349477 -6.6019e-10 0 -6.93959e-10 0 1.78972e-08
147 3 0.001 0.00239403 0 0.0353735 7.80236e-10 0 8.89154e-10 0 1.7589e-08
151 3 0.001 0.000484674 0 0.0370249 -2.35401e-10 0 -3.13567e-10 0 8.42527e-09
148 3 0.001 0.00192265 0 0.0357929 -3.59564e-10 0 -4.02163e-10 0 1.73308e-08
149 3 0.001 0.0014466 0 0.036207 5.72131e-11 0 6.49523e-11 0 1.68723e-08
150 3 0.001 0.000967042 0 0.0366171 3.24273e-10 0 3.70455e-10 0 1.24988e-08
2 2 0.001 0 0 0.03743 -0.00513856 0 0.0161072 0 4.19136e-09
