ITEM: TIMESTEP
400000
ITEM: NUMBER OF ATOMS
151
ITEM: BOX BOUNDS ff ff ff
-1.0000000000000000e-02 1.0000000000000000e-02
-6.0000000000000001e-03 6.0000000000000001e-03
-5.2499999999999998e-02 5.2499999999999998e-02
ITEM: ATOMS id type radius x y z fx fy fz c_bendingE c_stretchingE
1 1 0.001 0 0 -0.0475 -0.00026913 0 -0.00225377 0 1.44305e-10
3 3 0.001 8.3102e-05 0 -0.0468718 -8.17141e-06 0 -9.26859e-05 0 2.74626e-10
4 3 0.001 0.000166191 0 -0.0462437 -8.97564e-06 0 -7.1372e-05 0 3.36549e-10
5 3 0.001 0.00024918 0 -0.0456162 -1.26372e-05 0 -7.82053e-05 0 4.66762e-10
6 3 0.001 0.000332146 0 -0.0449887 -7.68017e-06 0 -4.1947e-05 0 5.2997e-10
7 3 0.001 0.000415085 0 -0.0443613 5.66581e-06 0 1.32059e-05 0 5.35968e-10
8 3 0.001 0.000497995 0 -0.0437338 7.68719e-06 0 1.69958e-05 0 5.2933e-10
9 3 0.001 0.000580868 0 -0.0431063 2.55781e-06 0 -1.61138e-05 0 5.28868e-10
10 3 0.001 0.000663697 0 -0.0424789 7.44399e-07 0 9.28095e-06 0 5.30192e-10
11 3 0.001 0.000746474 0 -0.0418514 2.34795e-06 0 3.29373e-05 0 5.21414e-10
12 3 0.001 0.000829192 0 -0.0412239 3.5666e-06 0 1.61321e-05 0 5.11201e-10
13 3 0.001 0.000911842 0 -0.0405964 1.49087e-05 0 5.54133e-05 0 4.96315e-10
14 3 0.001 0.000994417 0 -0.0399689 1.10717e-05 0 3.23853e-05 0 4.78145e-10
15 3 0.001 0.00107691 0 -0.0393413 3.71295e-06 0 -7.63754e-06 0 4.72884e-10
16 3 0.001 0.0011593 0 -0.0387138 3.21271e-06 0 3.45885e-05 0 4.6747e-10
17 3 0.001 0.00124159 0 -0.0380862 -2.00718e-06 0 -1.53181e-05 0 4.63679e-10
18 3 0.001 0.00132377 0 -0.0374586 3.87221e-06 0 -1.1862e-05 0 4.68917e-10
19 3 0.001 0.00140581 0 -0.036831 1.13707e-05 0 7.35089e-06 0 4.69411e-10
20 3 0.001 0.00148771 0 -0.0362034 -1.00922e-07 0 -7.73479e-05 0 4.83001e-10
21 3 0.001 0.00156946 0 -0.0355758 -2.42e-06 0 -3.45956e-05 0 5.05383e-10
22 3 0.001 0.00165104 0 -0.0349481 -3.93841e-06 0 -1.77526e-05 0 5.16196e-10
23 3 0.001 0.00173243 0 -0.0343205 -2.84842e-06 0 -3.93184e-05 0 5.28156e-10
24 3 0.001 0.00181362 0 -0.0336928 1.40191e-05 0 1.97844e-05 0 5.31894e-10
25 3 0.001 0.0018946 0 -0.0330651 2.0074e-05 0 6.86951e-05 0 5.12882e-10
26 3 0.001 0.00197535 0 -0.0324373 3.55113e-06 0 -2.19774e-05 0 5.02704e-10
27 3 0.001 0.00205584 0 -0.0318095 -6.32976e-07 0 -1.51009e-05 0 5.10155e-10
28 3 0.001 0.00213606 0 -0.0311817 -4.18976e-07 0 -2.70317e-05 0 5.18818e-10
29 3 0.001 0.00221599 0 -0.0305539 -3.07455e-06 0 -9.80495e-05 0 5.45097e-10
30 3 0.001 0.0022956 0 -0.029926 1.25402e-05 0 1.51814e-05 0 5.62238e-10
31 3 0.001 0.00237487 0 -0.0292981 1.22964e-05 0 2.60097e-05 0 5.52846e-10
32 3 0.001 0.00245379 0 -0.0286701 8.1909e-06 0 3.32627e-05 0 5.3986e-10
33 3 0.001 0.00253232 0 -0.0280421 4.92347e-06 0 2.17292e-05 0 5.28089e-10
34 3 0.001 0.00261044 0 -0.027414 8.97889e-06 0 4.40272e-06 0 5.22363e-10
35 3 0.001 0.00268812 0 -0.0267859 8.28577e-06 0 -2.1346e-05 0 5.25467e-10
36 3 0.001 0.00276534 0 -0.0261577 9.8309e-06 0 -1.5834e-05 0 5.32754e-10
37 3 0.001 0.00284206 0 -0.0255294 6.87618e-06 0 8.89228e-06 0 5.33821e-10
38 3 0.001 0.00291826 0 -0.0249011 2.59111e-06 0 -7.06138e-06 0 5.33252e-10
39 3 0.001 0.0029939 0 -0.0242727 9.15336e-06 0 3.39615e-05 0 5.27454e-10
40 3 0.001 0.00306896 0 -0.0236443 1.16475e-05 0 -3.51126e-06 0 5.20693e-10
41 3 0.001 0.00314339 0 -0.0230158 7.83144e-06 0 -2.30032e-05 0 5.25764e-10
42 3 0.001 0.00321718 0 -0.0223872 1.66545e-05 0 5.55946e-05 0 5.18588e-10
43 3 0.001 0.00329027 0 -0.0217585 7.49319e-06 0 4.20964e-05 0 4.98202e-10
44 3 0.001 0.00336264 0 -0.0211297 1.80091e-06 0 -2.34809e-05 0 4.94307e-10
45 3 0.001 0.00343425 0 -0.0205008 1.60036e-05 0 6.48851e-05 0 4.85803e-10
46 3 0.001 0.00350506 0 -0.0198719 1.43234e-05 0 1.20248e-05 0 4.69969e-10
47 3 0.001 0.00357503 0 -0.0192428 3.28989e-06 0 -5.85821e-05 0 4.78905e-10
48 3 0.001 0.00364412 0 -0.0186137 1.32958e-05 0 6.25801e-05 0 4.7788e-10
49 3 0.001 0.00371229 0 -0.0179844 4.11717e-06 0 -1.14101e-05 0 4.67504e-10
50 3 0.001 0.0037795 0 -0.017355 -4.48828e-07 0 -4.15143e-05 0 4.77975e-10
51 3 0.001 0.00384571 0 -0.0167256 7.54741e-06 0 -7.74462e-06 0 4.87699e-10
52 3 0.001 0.00391087 0 -0.016096 9.73648e-06 0 -3.36363e-06 0 4.89699e-10
53 3 0.001 0.00397494 0 -0.0154663 1.22153e-05 0 1.41681e-05 0 4.87251e-10
54 3 0.001 0.00403789 0 -0.0148365 -3.83007e-06 0 -0.000106449 0 5.06053e-10
55 3 0.001 0.00409965 0 -0.0142066 1.41768e-05 0 7.5107e-05 0 5.12294e-10
56 3 0.001 0.00416019 0 -0.0135766 2.94375e-06 0 -7.29253e-06 0 4.98246e-10
57 3 0.001 0.00421946 0 -0.0129465 6.14849e-06 0 -5.2166e-06 0 5.00788e-10
58 3 0.001 0.00427742 0 -0.0123162 1.58955e-05 0 8.47541e-05 0 4.84759e-10
59 3 0.001 0.00433402 0 -0.0116858 6.55584e-06 0 -5.36502e-05 0 4.78296e-10
60 3 0.001 0.00438921 0 -0.0110553 6.17788e-06 0 -2.06855e-05 0 4.93055e-10
61 3 0.001 0.00444294 0 -0.0104246 -4.21925e-06 0 -8.17807e-05 0 5.14181e-10
62 3 0.001 0.00449517 0 -0.00979387 2.41682e-06 0 1.11561e-05 0 5.28904e-10
63 3 0.001 0.00454585 0 -0.00916298 1.10418e-05 0 5.11755e-05 0 5.16076e-10
64 3 0.001 0.00459493 0 -0.00853196 1.23287e-05 0 1.2537e-05 0 5.02877e-10
65 3 0.001 0.00464237 0 -0.00790082 2.20181e-05 0 0.000128484 0 4.74724e-10
66 3 0.001 0.00468812 0 -0.00726952 6.35984e-06 0 4.29661e-05 0 4.41052e-10
67 3 0.001 0.00473212 0 -0.0066381 -3.43475e-06 0 -2.11564e-05 0 4.37094e-10
68 3 0.001 0.00477434 0 -0.00600656 -2.16206e-07 0 -4.751e-06 0 4.42303e-10
69 3 0.001 0.00481473 0 -0.0053749 -3.75102e-06 0 -0.00016707 0 4.76545e-10
70 3 0.001 0.00485323 0 -0.00474314 1.10782e-05 0 -6.20453e-05 0 5.22619e-10
71 3 0.001 0.0048898 0 -0.00411129 9.88623e-06 0 3.87009e-05 0 5.27455e-10
72 3 0.001 0.00492441 0 -0.00347932 1.0432e-06 0 7.1255e-06 0 5.18094e-10
73 3 0.001 0.00495699 0 -0.00284724 -1.64981e-06 0 4.61541e-05 0 5.07488e-10
74 3 0.001 0.00498752 0 -0.00221504 7.23681e-06 0 5.82127e-05 0 4.86637e-10
75 3 0.001 0.00501593 0 -0.00158274 8.5616e-06 0 -6.22664e-05 0 4.87594e-10
76 3 0.001 0.0050422 0 -0.000950362 1.19386e-05 0 1.09499e-05 0 4.97963e-10
77 3 0.001 0.00506628 0 -0.000317892 -6.68384e-07 0 -1.16038e-06 0 4.96181e-10
78 3 0.001 0.00508812 0 0.00031466 -7.80004e-06 0 -1.31101e-05 0 4.99419e-10
79 3 0.001 0.00510769 0 0.000947284 6.80482e-07 0 6.00001e-05 0 4.90341e-10
80 3 0.001 0.00512495 0 0.00157998 1.0129e-05 0 -6.07317e-05 0 4.90704e-10
81 3 0.001 0.00513986 0 0.00221273 1.24742e-05 0 -4.70439e-05 0 5.12751e-10
82 3 0.001 0.00515238 0 0.00284553 3.13581e-06 0 -6.16108e-06 0 5.23916e-10
84 3 0.001 0.00517013 0 0.00411123 -6.40794e-06 0 5.91382e-05 0 5.29947e-10
83 3 0.001 0.00516248 0 0.00347837 -9.44314e-06 0 -3.93826e-05 0 5.33751e-10
85 3 0.001 0.00517528 0 0.00474413 9.14961e-06 0 0.000164904 0 4.84865e-10
86 3 0.001 0.00517792 0 0.00537707 1.44138e-05 0 3.48217e-06 0 4.51441e-10
87 3 0.001 0.005178 0 0.00601002 6.55266e-06 0 2.0651e-05 0 4.47021e-10
89 3 0.001 0.00517042 0 0.00727589 -1.28075e-05 0 -0.00012998 0 4.86248e-10
88 3 0.001 0.00517551 0 0.00664296 -9.90133e-06 0 -4.3562e-05 0 4.51668e-10
91 3 0.001 0.00515231 0 0.0085416 1.71826e-05 0 -5.34946e-05 0 5.30072e-10
90 3 0.001 0.00516269 0 0.00790876 7.397e-07 0 -1.51647e-05 0 5.15537e-10
93 3 0.001 0.00512353 0 0.00980709 -3.71537e-06 0 8.1579e-05 0 5.29746e-10
92 3 0.001 0.00513927 0 0.00917437 1.37662e-05 0 -1.18753e-05 0 5.44065e-10
94 3 0.001 0.00510509 0 0.0104397 -1.80303e-05 0 2.00604e-05 0 5.086e-10
96 3 0.001 0.00506002 0 0.0117048 1.22682e-05 0 -8.62033e-05 0 5.0076e-10
95 3 0.001 0.00508393 0 0.0110723 -1.10353e-05 0 5.26448e-05 0 4.93784e-10
98 3 0.001 0.00500398 0 0.0129694 5.22224e-06 0 7.39083e-06 0 5.1587e-10
97 3 0.001 0.00503337 0 0.0123372 1.32469e-05 0 3.36949e-06 0 5.1785e-10
99 3 0.001 0.00497182 0 0.0136015 -9.84746e-06 0 -7.61814e-05 0 5.30246e-10
100 3 0.001 0.0049369 0 0.0142334 -1.84448e-05 0 0.000104115 0 5.24232e-10
101 3 0.001 0.00489921 0 0.0148652 3.19941e-06 0 -1.65178e-05 0 5.05793e-10
103 3 0.001 0.00481555 0 0.0161283 4.62324e-06 0 8.0759e-06 0 5.06671e-10
102 3 0.001 0.00485876 0 0.0154969 1.30229e-05 0 3.00579e-06 0 5.08728e-10
105 3 0.001 0.00472086 0 0.0173906 -1.50557e-05 0 8.99957e-06 0 4.85805e-10
106 3 0.001 0.0046694 0 0.0180215 -6.10862e-07 0 -6.48365e-05 0 4.9672e-10
104 3 0.001 0.00476958 0 0.0167596 -1.16973e-05 0 4.15571e-05 0 4.9648e-10
108 3 0.001 0.00455833 0 0.0192824 9.11637e-06 0 -1.13092e-05 0 4.879e-10
107 3 0.001 0.00461522 0 0.0186521 5.49898e-06 0 6.00182e-05 0 4.97632e-10
110 3 0.001 0.0044365 0 0.0205424 -1.73117e-05 0 2.0101e-05 0 5.13075e-10
109 3 0.001 0.00449875 0 0.0199126 3.10028e-06 0 -6.76026e-05 0 5.0395e-10
113 3 0.001 0.00423393 0 0.0224303 8.69923e-06 0 2.29724e-05 0 5.45805e-10
112 3 0.001 0.00430406 0 0.0218013 1.13733e-05 0 -5.73313e-05 0 5.38429e-10
111 3 0.001 0.00437159 0 0.021172 -4.35294e-06 0 -4.43159e-05 0 5.17397e-10
115 3 0.001 0.004086 0 0.0236875 -8.43734e-06 0 -3.69329e-05 0 5.47415e-10
114 3 0.001 0.00416123 0 0.023059 1.278e-06 0 2.05257e-06 0 5.40513e-10
117 3 0.001 0.00392806 0 0.0249434 1.08439e-06 0 -1.00435e-05 0 5.54011e-10
116 3 0.001 0.00400827 0 0.0243156 -1.45843e-05 0 4.06307e-06 0 5.53435e-10
118 3 0.001 0.00384543 0 0.0255709 9.29401e-06 0 1.54072e-05 0 5.52827e-10
120 3 0.001 0.00367306 0 0.0268249 -6.95031e-06 0 -6.13919e-06 0 5.41659e-10
119 3 0.001 0.00376042 0 0.026198 4.50013e-06 0 2.10024e-05 0 5.45204e-10
122 3 0.001 0.00349151 0 0.0280776 -1.81295e-06 0 -3.41119e-05 0 5.58349e-10
121 3 0.001 0.00358341 0 0.0274514 -1.22902e-05 0 -2.36059e-05 0 5.46965e-10
125 3 0.001 0.00320282 0 0.0299542 -1.66787e-05 0 9.72378e-05 0 5.62083e-10
124 3 0.001 0.00330116 0 0.029329 1.24898e-05 0 -1.44528e-05 0 5.80168e-10
123 3 0.001 0.00339741 0 0.0287035 9.94525e-06 0 -2.62157e-05 0 5.71078e-10
127 3 0.001 0.00300009 0 0.0312037 -1.24271e-05 0 1.49689e-05 0 5.25069e-10
126 3 0.001 0.00310245 0 0.0305791 -1.57101e-05 0 2.51985e-05 0 5.34708e-10
129 3 0.001 0.00278968 0 0.0324519 1.92334e-05 0 -6.93783e-05 0 5.26578e-10
128 3 0.001 0.00289581 0 0.031828 -4.06891e-06 0 2.17522e-05 0 5.16612e-10
132 3 0.001 0.0024608 0 0.034322 -1.36697e-05 0 1.74746e-05 0 5.28454e-10
130 3 0.001 0.00268176 0 0.0330756 5.74106e-06 0 -2.09054e-05 0 5.45694e-10
131 3 0.001 0.00257211 0 0.0336989 -1.16607e-05 0 3.87007e-05 0 5.41408e-10
134 3 0.001 0.00223346 0 0.0355672 -1.15719e-05 0 7.23769e-05 0 4.94606e-10
133 3 0.001 0.00234789 0 0.0349447 -9.12462e-06 0 3.33618e-05 0 5.16874e-10
136 3 0.001 0.00200031 0 0.0368114 -3.35719e-06 0 9.5919e-06 0 4.81724e-10
135 3 0.001 0.00211757 0 0.0361895 6.07746e-06 0 -1.0539e-05 0 4.8176e-10
137 3 0.001 0.00188175 0 0.0374332 -9.79083e-06 0 1.44398e-05 0 4.76239e-10
139 3 0.001 0.001641 0 0.0386759 -1.15974e-07 0 6.36091e-06 0 4.84501e-10
138 3 0.001 0.00176195 0 0.0380547 -1.32518e-07 0 -3.40132e-05 0 4.79402e-10
141 3 0.001 0.00139597 0 0.0399179 1.21595e-05 0 -5.49117e-05 0 5.08169e-10
140 3 0.001 0.00151898 0 0.039297 1.11913e-05 0 -3.31068e-05 0 4.89946e-10
142 3 0.001 0.00127204 0 0.0405385 -3.62837e-06 0 -1.52937e-05 0 5.22408e-10
144 3 0.001 0.00102175 0 0.0417794 1.93322e-06 0 -9.3725e-06 0 5.39603e-10
143 3 0.001 0.00114727 0 0.041159 -7.02026e-07 0 -3.0931e-05 0 5.3147e-10
146 3 0.001 0.000768776 0 0.0430196 7.7249e-06 0 -1.95619e-05 0 5.40445e-10
145 3 0.001 0.000895557 0 0.0423996 2.7578e-06 0 1.31712e-05 0 5.38835e-10
147 3 0.001 0.000641489 0 0.0436396 8.05263e-07 0 -1.40159e-05 0 5.47636e-10
148 3 0.001 0.000513779 0 0.0442595 -1.53383e-05 0 4.32919e-05 0 5.40867e-10
149 3 0.001 0.000385727 0 0.0448793 -1.95865e-05 0 7.77938e-05 0 4.76129e-10
150 3 0.001 0.000257411 0 0.0454992 -1.24242e-05 0 6.94879e-05 0 3.37298e-10
151 3 0.001 0.000128791 0 0.0461196 -1.22002e-05 0 9.01491e-05 0 2.67027e-10
2 2 0.001 0 0 0.04674 -4.20015e-05 0 0.00233639 0 1.40253e-10
