ITEM: TIMESTEP
4900000
ITEM: NUMBER OF ATOMS
151
ITEM: BOX BOUNDS ff ff ff
-1.0000000000000000e-02 1.0000000000000000e-02
-6.0000000000000001e-03 6.0000000000000001e-03
-5.2499999999999998e-02 5.2499999999999998e-02
ITEM: ATOMS id type radius x y z fx fy fz c_bendingE c_stretchingE
1 1 0.001 0 0 -0.0475 -0.00559004 0 -0.0164603 0 4.76791e-09
3 3 0.001 0.000479991 0 -0.0470895 -3.23378e-10 0 5.28823e-10 0 9.57933e-09
4 3 0.001 0.000957695 0 -0.0466764 2.35104e-09 0 -2.4552e-09 0 1.38754e-08
5 3 0.001 0.00143261 0 -0.0462611 -5.35791e-09 0 6.16989e-09 0 1.84839e-08
6 3 0.001 0.00190405 0 -0.045842 6.45332e-09 0 -7.41395e-09 0 1.89559e-08
7 3 0.001 0.00237088 0 -0.0454177 -4.68402e-09 0 4.88305e-09 0 1.92139e-08
8 3 0.001 0.0028319 0 -0.0449871 2.05957e-09 0 -2.28658e-09 0 1.95212e-08
9 3 0.001 0.0032859 0 -0.0445492 -6.02089e-11 0 2.82884e-10 0 1.98729e-08
10 3 0.001 0.00373167 0 -0.0441029 -1.23473e-09 0 1.49973e-09 0 2.02631e-08
11 3 0.001 0.00416794 0 -0.0436474 1.34047e-09 0 -1.15263e-09 0 2.0685e-08
12 3 0.001 0.00459348 0 -0.0431819 -1.55863e-09 0 1.24195e-09 0 2.11307e-08
13 3 0.001 0.005007 0 -0.0427057 2.21175e-09 0 -2.11119e-09 0 2.15917e-08
14 3 0.001 0.00540724 0 -0.0422184 -2.53384e-09 0 1.92723e-09 0 2.20586e-08
15 3 0.001 0.00579295 0 -0.0417194 9.37846e-10 0 -4.3928e-10 0 2.25213e-08
16 3 0.001 0.00616289 0 -0.0412088 2.31485e-09 0 -1.24282e-09 0 2.29696e-08
17 3 0.001 0.00651587 0 -0.0406863 -4.05704e-09 0 2.54623e-09 0 2.33929e-08
18 3 0.001 0.00685075 0 -0.040152 2.1238e-09 0 -1.56057e-09 0 2.37812e-08
19 3 0.001 0.00716646 0 -0.0396062 1.62522e-09 0 -8.14138e-10 0 2.41245e-08
20 3 0.001 0.00746201 0 -0.0390493 -4.28259e-09 0 2.30227e-09 0 2.44142e-08
21 3 0.001 0.00773651 0 -0.0384817 6.33506e-09 0 -2.81773e-09 0 2.46426e-08
22 3 0.001 0.00798921 0 -0.037904 -7.87574e-09 0 3.21587e-09 0 2.48035e-08
23 3 0.001 0.00821946 0 -0.0373171 8.55356e-09 0 -3.08497e-09 0 2.48926e-08
24 3 0.001 0.00842678 0 -0.0367217 -8.27452e-09 0 2.76401e-09 0 2.49074e-08
25 3 0.001 0.00861083 0 -0.0361187 8.24099e-09 0 -2.32645e-09 0 2.48475e-08
26 3 0.001 0.00877144 0 -0.035509 -7.01969e-09 0 1.68106e-09 0 2.47146e-08
27 3 0.001 0.0089086 0 -0.0348937 5.74101e-09 0 -1.27428e-09 0 2.45123e-08
28 3 0.001 0.00902247 0 -0.0342735 -6.44318e-09 0 1.15303e-09 0 2.42411e-08
29 3 0.001 0.00911338 0 -0.0336496 9.0832e-09 0 -9.51604e-10 0 2.38731e-08
30 3 0.001 0.00918183 0 -0.0330228 -7.53462e-09 0 8.00977e-10 0 2.34191e-08
31 3 0.001 0.0092284 0 -0.0323939 2.27231e-09 0 -4.06653e-10 0 2.29607e-08
32 3 0.001 0.00925372 0 -0.0317639 2.47104e-09 0 -1.62685e-10 0 2.25728e-08
33 3 0.001 0.00925843 0 -0.0311333 -2.5067e-09 0 1.47228e-10 0 2.2297e-08
34 3 0.001 0.00924308 0 -0.0305028 8.8249e-10 0 1.47621e-10 0 2.21373e-08
35 3 0.001 0.00920819 0 -0.0298732 -2.21257e-10 0 -4.14108e-11 0 2.20632e-08
36 3 0.001 0.00915422 0 -0.0292448 9.47272e-10 0 5.1239e-11 0 2.20188e-08
37 3 0.001 0.00908161 0 -0.0286184 2.07157e-10 0 -1.4692e-11 0 2.1938e-08
38 3 0.001 0.00899083 0 -0.0279943 -1.56955e-09 0 -2.66915e-10 0 2.17817e-08
39 3 0.001 0.00888241 0 -0.027373 5.26536e-09 0 1.00211e-09 0 2.15713e-08
40 3 0.001 0.00875698 0 -0.026755 -7.80587e-09 0 -1.7983e-09 0 2.13374e-08
41 3 0.001 0.00861526 0 -0.0261404 7.70657e-09 0 1.85795e-09 0 2.10853e-08
42 3 0.001 0.00845807 0 -0.0255296 -5.85915e-09 0 -1.57422e-09 0 2.08205e-08
44 3 0.001 0.00810079 0 -0.0243199 -2.99133e-09 0 -9.80346e-10 0 2.02751e-08
43 3 0.001 0.00828626 0 -0.0249227 6.08526e-09 0 1.81762e-09 0 2.05485e-08
46 3 0.001 0.0076929 0 -0.0231262 3.61153e-09 0 1.25512e-09 0 1.97456e-08
45 3 0.001 0.00790266 0 -0.023721 -1.20019e-09 0 -5.77335e-10 0 2.00057e-08
47 3 0.001 0.00747262 0 -0.0225351 -3.79474e-10 0 -2.48265e-10 0 1.94997e-08
48 3 0.001 0.00724293 0 -0.0219476 -1.51383e-09 0 -6.86709e-10 0 1.92726e-08
49 3 0.001 0.00700497 0 -0.0213634 7.39662e-10 0 2.57487e-10 0 1.90683e-08
51 3 0.001 0.00650902 0 -0.0202033 -4.66248e-09 0 -2.09923e-09 0 1.87418e-08
50 3 0.001 0.00675994 0 -0.0207821 3.00007e-09 0 1.173e-09 0 1.88903e-08
52 3 0.001 0.0062534 0 -0.0196265 4.25916e-09 0 1.89074e-09 0 1.8625e-08
53 3 0.001 0.00599432 0 -0.0190513 -1.67052e-09 0 -9.41401e-10 0 1.8542e-08
54 3 0.001 0.00573298 0 -0.0184772 -3.03686e-10 0 -3.92069e-10 0 1.84941e-08
57 3 0.001 0.00494772 0 -0.0167552 -1.28133e-09 0 -6.1208e-10 0 1.85654e-08
56 3 0.001 0.00520845 0 -0.0173296 -3.57476e-10 0 -4.97596e-11 0 1.85059e-08
55 3 0.001 0.00547062 0 -0.0179034 2.34721e-09 0 1.00361e-09 0 1.8482e-08
59 3 0.001 0.00443543 0 -0.0156021 -8.27439e-10 0 -6.06276e-10 0 1.87871e-08
58 3 0.001 0.00468964 0 -0.0161795 8.7293e-10 0 1.63393e-10 0 1.86597e-08
61 3 0.001 0.00394346 0 -0.0144404 2.98051e-09 0 1.16604e-09 0 1.91325e-08
60 3 0.001 0.0041863 0 -0.0150226 6.4177e-10 0 1.23958e-10 0 1.89456e-08
62 3 0.001 0.00370809 0 -0.0138551 -4.9374e-09 0 -1.87705e-09 0 1.93447e-08
63 3 0.001 0.00348136 0 -0.0132665 3.0019e-09 0 1.14377e-09 0 1.95785e-08
64 3 0.001 0.0032644 0 -0.0126742 9.46448e-10 0 1.25994e-10 0 1.98295e-08
66 3 0.001 0.00286424 0 -0.0114779 -1.2191e-09 0 -4.5116e-10 0 2.03646e-08
65 3 0.001 0.00305834 0 -0.012078 -1.55523e-09 0 -7.71091e-10 0 2.00932e-08
67 3 0.001 0.00268315 0 -0.0108737 2.33877e-09 0 6.10993e-10 0 2.06381e-08
68 3 0.001 0.00251603 0 -0.0102655 1.05861e-09 0 1.43214e-10 0 2.09084e-08
69 3 0.001 0.00236382 0 -0.00965346 -5.13559e-10 0 -2.03082e-10 0 2.11697e-08
71 3 0.001 0.00210744 0 -0.00841856 6.06577e-09 0 1.10869e-09 0 2.16432e-08
70 3 0.001 0.00222736 0 -0.00903772 -2.98604e-09 0 -4.7785e-10 0 2.14164e-08
72 3 0.001 0.00200474 0 -0.00779632 -5.74523e-09 0 -1.13275e-09 0 2.18448e-08
73 3 0.001 0.00191986 0 -0.00717142 7.50075e-09 0 6.43473e-10 0 2.20166e-08
74 3 0.001 0.00185331 0 -0.0065443 -7.2089e-09 0 -6.08885e-10 0 2.21548e-08
75 3 0.001 0.00180549 0 -0.00591549 4.90623e-09 0 5.65779e-10 0 2.22559e-08
76 3 0.001 0.00177668 0 -0.00528553 9.22497e-10 0 6.36061e-11 0 2.23175e-08
77 3 0.001 0.00176705 0 -0.00465498 -4.04755e-09 0 -5.24149e-11 0 2.23382e-08
78 3 0.001 0.00177667 0 -0.00402444 4.67176e-09 0 -2.40371e-10 0 2.23175e-08
79 3 0.001 0.00180548 0 -0.00339448 -3.38545e-10 0 -1.03701e-10 0 2.22559e-08
80 3 0.001 0.0018533 0 -0.00276567 -2.43782e-09 0 3.4566e-10 0 2.21548e-08
81 3 0.001 0.00191985 0 -0.00213855 3.47494e-09 0 -1.63382e-10 0 2.20167e-08
82 3 0.001 0.00200472 0 -0.00151365 -3.47865e-10 0 9.99578e-11 0 2.18449e-08
83 3 0.001 0.00210742 0 -0.00089141 -4.58283e-11 0 -6.48329e-11 0 2.16433e-08
84 3 0.001 0.00222734 0 -0.000272249 -1.65473e-09 0 4.88352e-10 0 2.14166e-08
85 3 0.001 0.0023638 0 0.000343495 5.93844e-09 0 -1.27813e-09 0 2.11698e-08
86 3 0.001 0.00251601 0 0.000955551 -8.12535e-09 0 2.2798e-09 0 2.09086e-08
87 3 0.001 0.00268312 0 0.00156373 8.33513e-09 0 -2.37056e-09 0 2.06383e-08
88 3 0.001 0.00286421 0 0.0021679 -7.20984e-09 0 2.27961e-09 0 2.03647e-08
89 3 0.001 0.00305831 0 0.00276805 7.63757e-09 0 -2.34322e-09 0 2.00934e-08
90 3 0.001 0.00326437 0 0.00336421 -6.83735e-09 0 2.56403e-09 0 1.98297e-08
91 3 0.001 0.00348132 0 0.00395651 5.031e-09 0 -1.76321e-09 0 1.95787e-08
92 3 0.001 0.00370805 0 0.00454515 -1.52495e-09 0 6.67115e-10 0 1.93449e-08
93 3 0.001 0.00394342 0 0.00513041 -6.82036e-10 0 3.74824e-10 0 1.91327e-08
94 3 0.001 0.00418626 0 0.00571262 7.65565e-10 0 -1.17396e-10 0 1.89458e-08
95 3 0.001 0.00443539 0 0.00629219 -1.11361e-09 0 6.88882e-10 0 1.87873e-08
96 3 0.001 0.0046896 0 0.00686955 2.46279e-09 0 -1.00214e-09 0 1.86598e-08
97 3 0.001 0.00494768 0 0.0074452 -2.28069e-09 0 1.00219e-09 0 1.85656e-08
98 3 0.001 0.00520841 0 0.00801966 1.52115e-09 0 -7.48996e-10 0 1.85061e-08
99 3 0.001 0.00547058 0 0.00859347 1.12655e-09 0 -3.22896e-10 0 1.84822e-08
100 3 0.001 0.00573294 0 0.00916719 -1.58212e-09 0 9.7653e-10 0 1.84943e-08
101 3 0.001 0.00599428 0 0.00974138 -3.40624e-10 0 3.08495e-10 0 1.85422e-08
102 3 0.001 0.00625336 0 0.0103166 3.37175e-09 0 -1.37041e-09 0 1.86252e-08
103 3 0.001 0.00650898 0 0.0108933 -2.99857e-09 0 1.36593e-09 0 1.8742e-08
104 3 0.001 0.00675991 0 0.0114721 1.32077e-09 0 -5.15875e-10 0 1.88905e-08
105 3 0.001 0.00700494 0 0.0120534 8.10601e-10 0 -2.78564e-10 0 1.90685e-08
106 3 0.001 0.00724289 0 0.0126376 8.85637e-10 0 -2.83438e-10 0 1.92728e-08
107 3 0.001 0.00747259 0 0.0132251 -1.36641e-09 0 6.96365e-10 0 1.94999e-08
108 3 0.001 0.00769288 0 0.0138162 -2.9764e-10 0 2.24543e-10 0 1.97458e-08
109 3 0.001 0.00790263 0 0.0144111 5.55331e-09 0 -1.74283e-09 0 2.00059e-08
110 3 0.001 0.00810077 0 0.0150099 -8.91947e-09 0 2.81165e-09 0 2.02753e-08
111 3 0.001 0.00828624 0 0.0156128 8.46458e-09 0 -2.69064e-09 0 2.05488e-08
112 3 0.001 0.00845805 0 0.0162196 -3.00845e-09 0 8.87163e-10 0 2.08208e-08
113 3 0.001 0.00861525 0 0.0168304 2.93239e-10 0 6.10941e-11 0 2.10856e-08
114 3 0.001 0.00875696 0 0.017445 -4.60662e-10 0 3.07351e-10 0 2.13378e-08
115 3 0.001 0.00888239 0 0.0180631 1.97904e-09 0 -2.19513e-10 0 2.15716e-08
116 3 0.001 0.00899082 0 0.0186843 -2.94347e-10 0 -4.57843e-11 0 2.1782e-08
117 3 0.001 0.0090816 0 0.0193084 -3.33868e-09 0 1.93304e-10 0 2.19384e-08
118 3 0.001 0.00915421 0 0.0199349 7.13181e-09 0 -6.78044e-10 0 2.20192e-08
119 3 0.001 0.00920818 0 0.0205632 -7.356e-09 0 6.78965e-10 0 2.20636e-08
120 3 0.001 0.00924308 0 0.0211928 7.97913e-09 0 -2.14418e-10 0 2.21377e-08
121 3 0.001 0.00925843 0 0.0218233 -6.39601e-09 0 3.49934e-11 0 2.22974e-08
122 3 0.001 0.00925373 0 0.0224539 1.66734e-09 0 -1.75014e-10 0 2.25732e-08
123 3 0.001 0.00922841 0 0.023084 4.6356e-09 0 3.03039e-10 0 2.29612e-08
124 3 0.001 0.00918184 0 0.0237128 -7.11013e-09 0 -6.44894e-10 0 2.34196e-08
125 3 0.001 0.0091134 0 0.0243396 5.6915e-09 0 7.31619e-10 0 2.38736e-08
126 3 0.001 0.00902248 0 0.0249636 -3.80853e-09 0 -5.48934e-10 0 2.42417e-08
127 3 0.001 0.00890862 0 0.0255837 2.75459e-09 0 5.62468e-10 0 2.45129e-08
128 3 0.001 0.00877146 0 0.0261991 1.0153e-09 0 2.77726e-10 0 2.47152e-08
130 3 0.001 0.00842681 0 0.0274117 4.25397e-09 0 1.13284e-09 0 2.49081e-08
131 3 0.001 0.00821949 0 0.0280072 -4.12591e-09 0 -1.63193e-09 0 2.48933e-08
129 3 0.001 0.00861085 0 0.0268087 -3.42052e-09 0 -1.12819e-09 0 2.48482e-08
132 3 0.001 0.00798924 0 0.0285941 4.93755e-09 0 2.26636e-09 0 2.48042e-08
133 3 0.001 0.00773654 0 0.0291717 -5.12044e-09 0 -2.2176e-09 0 2.46433e-08
134 3 0.001 0.00746204 0 0.0297393 4.14601e-09 0 1.99272e-09 0 2.4415e-08
136 3 0.001 0.00685078 0 0.030842 -1.9121e-10 0 -3.32785e-10 0 2.37819e-08
135 3 0.001 0.00716649 0 0.0302962 -2.13755e-09 0 -1.35243e-09 0 2.41253e-08
137 3 0.001 0.0065159 0 0.0313763 2.1654e-09 0 1.5243e-09 0 2.33937e-08
138 3 0.001 0.00616292 0 0.0318988 -2.88887e-09 0 -1.95352e-09 0 2.29704e-08
139 3 0.001 0.00579297 0 0.0324095 2.89686e-09 0 2.0895e-09 0 2.25221e-08
141 3 0.001 0.00500702 0 0.0333958 6.33333e-10 0 3.55395e-10 0 2.15925e-08
142 3 0.001 0.0045935 0 0.0338719 1.48508e-09 0 1.40064e-09 0 2.11314e-08
140 3 0.001 0.00540727 0 0.0329084 -2.02318e-09 0 -1.73217e-09 0 2.20593e-08
144 3 0.001 0.00373169 0 0.034793 6.57375e-09 0 6.4855e-09 0 2.02638e-08
145 3 0.001 0.00328592 0 0.0352392 -7.60981e-09 0 -7.73675e-09 0 1.98735e-08
146 3 0.001 0.00283191 0 0.0356771 8.01482e-09 0 8.41262e-09 0 1.95219e-08
143 3 0.001 0.00416797 0 0.0343375 -4.65895e-09 0 -4.39527e-09 0 2.06857e-08
148 3 0.001 0.00190406 0 0.036532 5.0245e-09 0 5.58782e-09 0 1.89565e-08
149 3 0.001 0.00143262 0 0.0369511 -4.05567e-09 0 -4.71859e-09 0 1.84845e-08
147 3 0.001 0.00237089 0 0.0361077 -6.87028e-09 0 -7.43487e-09 0 1.92145e-08
151 3 0.001 0.000479994 0 0.0377795 -1.34663e-09 0 -1.64017e-09 0 9.57978e-09
2 2 0.001 0 0 0.03819 -0.00559021 0 0.0164606 0 4.76814e-09
150 3 0.001 0.0009577 0 0.0373664 2.90641e-09 0 3.31988e-09 0 1.3876e-08
