ITEM: TIMESTEP
3200000
ITEM: NUMBER OF ATOMS
151
ITEM: BOX BOUNDS ff ff ff
-1.0000000000000000e-02 1.0000000000000000e-02
-6.0000000000000001e-03 6.0000000000000001e-03
-5.2499999999999998e-02 5.2499999999999998e-02
ITEM: ATOMS id type radius x y z fx fy fz c_bendingE c_stretchingE
1 1 0.001 0 0 -0.0475 -0.00767491 0 -0.0186533 0 8.55558e-09
3 3 0.001 0.000446385 0 -0.0470541 6.35216e-10 0 -8.57942e-10 0 1.71557e-08
4 3 0.001 0.000890598 0 -0.046606 -3.49483e-09 0 3.19294e-09 0 2.26581e-08
5 3 0.001 0.00133218 0 -0.0461563 7.92858e-09 0 -7.83523e-09 0 2.85404e-08
6 3 0.001 0.00177048 0 -0.0457034 -9.89122e-09 0 9.60715e-09 0 2.90733e-08
7 3 0.001 0.00220445 0 -0.0452464 7.07679e-09 0 -6.17619e-09 0 2.93133e-08
8 3 0.001 0.00263299 0 -0.0447843 6.69902e-11 0 3.50695e-10 0 2.9596e-08
9 3 0.001 0.00305501 0 -0.0443162 -5.16328e-09 0 4.10982e-09 0 2.99153e-08
10 3 0.001 0.00346943 0 -0.0438415 9.4951e-09 0 -9.19251e-09 0 3.02639e-08
11 3 0.001 0.00387516 0 -0.0433593 -7.8454e-09 0 5.85838e-09 0 3.06341e-08
12 3 0.001 0.00427114 0 -0.0428691 -1.36645e-09 0 1.26409e-09 0 3.10169e-08
13 3 0.001 0.0046563 0 -0.0423704 8.26855e-09 0 -5.24192e-09 0 3.14032e-08
14 3 0.001 0.00502963 0 -0.0418628 -3.88504e-09 0 3.10559e-09 0 3.17832e-08
15 3 0.001 0.00539013 0 -0.0413461 -5.33727e-09 0 2.71074e-09 0 3.21474e-08
16 3 0.001 0.00573687 0 -0.04082 1.34467e-08 0 -9.39772e-09 0 3.24861e-08
17 3 0.001 0.00606896 0 -0.0402846 -2.01299e-08 0 1.17406e-08 0 3.27902e-08
18 3 0.001 0.00638558 0 -0.0397399 1.88081e-08 0 -1.01653e-08 0 3.30514e-08
19 3 0.001 0.00668601 0 -0.0391861 -9.43502e-09 0 5.27352e-09 0 3.32625e-08
20 3 0.001 0.00696961 0 -0.0386235 1.2745e-09 0 -7.43353e-10 0 3.34174e-08
21 3 0.001 0.00723585 0 -0.0380525 -3.93132e-09 0 1.05515e-09 0 3.35119e-08
22 3 0.001 0.00748431 0 -0.0374736 2.82804e-10 0 -5.34391e-10 0 3.3543e-08
23 3 0.001 0.00771471 0 -0.0368872 1.26632e-09 0 -5.46604e-11 0 3.351e-08
24 3 0.001 0.00792688 0 -0.036294 -2.55957e-09 0 1.18958e-09 0 3.34138e-08
25 3 0.001 0.00812079 0 -0.0356946 -6.60201e-09 0 2.17656e-09 0 3.32572e-08
26 3 0.001 0.00829656 0 -0.0350896 1.47982e-08 0 -4.1375e-09 0 3.30446e-08
27 3 0.001 0.00845445 0 -0.0344796 -1.81543e-08 0 4.08144e-09 0 3.2782e-08
28 3 0.001 0.00859484 0 -0.0338654 7.64799e-09 0 -1.77768e-09 0 3.24768e-08
29 3 0.001 0.00871826 0 -0.0332475 -7.00825e-09 0 1.5477e-09 0 3.21373e-08
30 3 0.001 0.00882536 0 -0.0326266 6.63568e-09 0 -1.45198e-11 0 3.17726e-08
31 3 0.001 0.00891693 0 -0.0320032 -6.91247e-09 0 1.73995e-09 0 3.13922e-08
32 3 0.001 0.00899385 0 -0.0313778 -1.03809e-09 0 -5.92311e-10 0 3.10059e-08
33 3 0.001 0.00905714 0 -0.0307508 -5.01957e-10 0 -5.17365e-10 0 3.06109e-08
34 3 0.001 0.00910788 0 -0.0301227 5.13553e-09 0 4.27884e-10 0 3.02067e-08
35 3 0.001 0.00914724 0 -0.0294938 -8.70887e-09 0 2.01663e-09 0 2.98149e-08
36 3 0.001 0.00917642 0 -0.0288642 9.32451e-09 0 2.88812e-10 0 2.94616e-08
37 3 0.001 0.00919659 0 -0.0282343 -1.33979e-08 0 -8.33521e-10 0 2.91641e-08
38 3 0.001 0.0092089 0 -0.0276042 6.42683e-09 0 -8.54463e-10 0 2.89296e-08
39 3 0.001 0.0092144 0 -0.026974 -3.31631e-10 0 1.02311e-09 0 2.87574e-08
40 3 0.001 0.00921406 0 -0.0263437 -6.26334e-09 0 1.52773e-09 0 2.86412e-08
41 3 0.001 0.00920875 0 -0.0257135 8.8362e-09 0 5.96201e-10 0 2.85717e-08
42 3 0.001 0.00919922 0 -0.0250833 -2.56956e-09 0 -8.56266e-10 0 2.85384e-08
43 3 0.001 0.00918612 0 -0.0244532 -2.10179e-09 0 -3.79098e-10 0 2.85312e-08
44 3 0.001 0.00917 0 -0.0238231 -1.28569e-08 0 3.59958e-10 0 2.8541e-08
45 3 0.001 0.0091513 0 -0.0231931 3.83271e-08 0 2.16831e-09 0 2.85603e-08
46 3 0.001 0.00913038 0 -0.0225632 -5.69603e-08 0 -1.56328e-09 0 2.85828e-08
47 3 0.001 0.00910755 0 -0.0219334 5.2211e-08 0 2.13575e-09 0 2.86041e-08
48 3 0.001 0.00908305 0 -0.0213036 -3.26788e-08 0 -8.03369e-10 0 2.8621e-08
49 3 0.001 0.00905708 0 -0.0206738 5.27454e-09 0 8.44252e-10 0 2.86316e-08
50 3 0.001 0.00902981 0 -0.0200442 1.43474e-08 0 5.1847e-10 0 2.86353e-08
51 3 0.001 0.00900141 0 -0.0194146 -2.05098e-08 0 -1.73351e-09 0 2.86334e-08
52 3 0.001 0.00897206 0 -0.018785 1.31481e-08 0 7.01819e-10 0 2.86298e-08
53 3 0.001 0.00894191 0 -0.0181554 -6.38396e-09 0 1.17601e-09 0 2.86267e-08
54 3 0.001 0.00891114 0 -0.0175259 -7.13054e-09 0 1.20737e-09 0 2.86244e-08
55 3 0.001 0.00887994 0 -0.0168964 1.50247e-08 0 4.75583e-10 0 2.86228e-08
56 3 0.001 0.00884847 0 -0.016267 -2.24863e-08 0 -2.49992e-09 0 2.86221e-08
57 3 0.001 0.00881694 0 -0.0156375 1.00017e-08 0 3.29246e-10 0 2.86222e-08
58 3 0.001 0.00878551 0 -0.015008 7.17466e-09 0 1.8652e-09 0 2.86231e-08
59 3 0.001 0.00875437 0 -0.0143785 -2.90091e-08 0 1.09552e-10 0 2.86248e-08
60 3 0.001 0.00872371 0 -0.013749 2.29676e-08 0 9.73552e-10 0 2.86273e-08
61 3 0.001 0.0086937 0 -0.0131195 -1.52556e-08 0 -1.55773e-09 0 2.86305e-08
62 3 0.001 0.00866451 0 -0.0124899 -6.55547e-09 0 -3.24749e-10 0 2.86343e-08
63 3 0.001 0.00863632 0 -0.0118603 1.46579e-08 0 1.24871e-09 0 2.86387e-08
64 3 0.001 0.00860928 0 -0.0112306 -3.29337e-08 0 -5.53601e-10 0 2.86435e-08
65 3 0.001 0.00858356 0 -0.0106008 3.1752e-08 0 1.69476e-09 0 2.86486e-08
66 3 0.001 0.00855931 0 -0.00997105 -4.10855e-08 0 -1.52061e-09 0 2.8654e-08
67 3 0.001 0.00853666 0 -0.0093412 2.70243e-08 0 9.51715e-10 0 2.86595e-08
68 3 0.001 0.00851576 0 -0.00871129 -1.94577e-08 0 -3.47349e-10 0 2.86649e-08
69 3 0.001 0.00849671 0 -0.00808132 -6.87428e-09 0 1.88406e-10 0 2.86702e-08
70 3 0.001 0.00847963 0 -0.00745129 -5.13927e-09 0 -3.07795e-10 0 2.86751e-08
71 3 0.001 0.00846462 0 -0.00682121 6.25118e-10 0 -1.04531e-10 0 2.86797e-08
72 3 0.001 0.00845177 0 -0.00619108 -7.54057e-09 0 9.43348e-11 0 2.86838e-08
73 3 0.001 0.00844115 0 -0.00556092 -1.00753e-09 0 7.18158e-10 0 2.86872e-08
74 3 0.001 0.00843283 0 -0.00493071 -1.09531e-08 0 1.909e-10 0 2.869e-08
75 3 0.001 0.00842685 0 -0.00430049 -1.09786e-08 0 -6.20333e-10 0 2.86921e-08
76 3 0.001 0.00842325 0 -0.00367024 7.44025e-09 0 -6.65528e-10 0 2.86933e-08
77 3 0.001 0.00842204 0 -0.00303998 -2.11736e-08 0 3.57281e-11 0 2.86937e-08
78 3 0.001 0.00842325 0 -0.00240973 3.1695e-09 0 9.21827e-10 0 2.86933e-08
79 3 0.001 0.00842685 0 -0.00177948 1.5446e-09 0 4.86324e-10 0 2.86921e-08
80 3 0.001 0.00843283 0 -0.00114925 -1.78777e-08 0 -2.75984e-10 0 2.86901e-08
81 3 0.001 0.00844115 0 -0.000519051 -8.55455e-09 0 -5.90001e-10 0 2.86873e-08
82 3 0.001 0.00845177 0 0.000111117 1.74968e-08 0 -9.71436e-10 0 2.86838e-08
83 3 0.001 0.00846462 0 0.000741243 -3.95021e-08 0 1.2097e-09 0 2.86798e-08
84 3 0.001 0.00847962 0 0.00137132 3.41955e-08 0 -5.39809e-11 0 2.86752e-08
85 3 0.001 0.0084967 0 0.00200135 -4.57569e-08 0 1.03299e-09 0 2.86702e-08
86 3 0.001 0.00851575 0 0.00263132 2.60737e-08 0 -1.52267e-09 0 2.8665e-08
87 3 0.001 0.00853666 0 0.00326123 -1.39971e-08 0 -1.81372e-10 0 2.86596e-08
88 3 0.001 0.0085593 0 0.00389108 -1.01023e-08 0 2.78795e-10 0 2.86541e-08
89 3 0.001 0.00858356 0 0.00452087 2.15398e-09 0 1.4255e-10 0 2.86488e-08
90 3 0.001 0.00860928 0 0.00515061 8.35357e-10 0 -2.09704e-10 0 2.86436e-08
91 3 0.001 0.00863631 0 0.00578029 -1.94482e-08 0 7.04303e-10 0 2.86388e-08
92 3 0.001 0.0086645 0 0.00640992 2.32989e-08 0 -1.29834e-09 0 2.86345e-08
93 3 0.001 0.00869369 0 0.0070395 -3.86997e-08 0 1.24473e-09 0 2.86306e-08
94 3 0.001 0.0087237 0 0.00766905 2.62759e-08 0 -1.87316e-09 0 2.86275e-08
95 3 0.001 0.00875437 0 0.00829856 -5.79517e-09 0 -2.3334e-11 0 2.8625e-08
96 3 0.001 0.0087855 0 0.00892805 -1.5396e-08 0 1.00986e-09 0 2.86233e-08
97 3 0.001 0.00881693 0 0.00955753 5.55038e-09 0 -2.20259e-10 0 2.86224e-08
98 3 0.001 0.00884846 0 0.010187 -2.30966e-09 0 -5.45515e-10 0 2.86223e-08
99 3 0.001 0.00887993 0 0.0108165 9.10405e-09 0 -9.28908e-10 0 2.86231e-08
100 3 0.001 0.00891113 0 0.011446 -2.41537e-08 0 1.15839e-09 0 2.86246e-08
101 3 0.001 0.0089419 0 0.0120755 1.47144e-08 0 -7.50026e-10 0 2.8627e-08
102 3 0.001 0.00897205 0 0.012705 1.20639e-09 0 -2.9448e-10 0 2.86301e-08
103 3 0.001 0.00900141 0 0.0133346 -9.47785e-09 0 -3.1393e-10 0 2.86337e-08
104 3 0.001 0.0090298 0 0.0139642 1.06599e-09 0 -5.86647e-10 0 2.86356e-08
105 3 0.001 0.00905707 0 0.0145939 9.74542e-09 0 -3.37398e-10 0 2.86319e-08
106 3 0.001 0.00908304 0 0.0152236 -1.40042e-08 0 5.23027e-10 0 2.86213e-08
107 3 0.001 0.00910755 0 0.0158534 3.32451e-09 0 -1.49414e-10 0 2.86045e-08
108 3 0.001 0.00913038 0 0.0164832 1.13971e-09 0 -3.32928e-10 0 2.85832e-08
109 3 0.001 0.00915129 0 0.0171131 -3.98962e-09 0 -5.20391e-10 0 2.85606e-08
110 3 0.001 0.00917 0 0.0177431 1.88477e-08 0 -1.03326e-09 0 2.85414e-08
111 3 0.001 0.00918612 0 0.0183732 -3.78243e-08 0 2.66014e-10 0 2.85316e-08
112 3 0.001 0.00919922 0 0.0190033 3.87231e-08 0 -9.00325e-10 0 2.85388e-08
113 3 0.001 0.00920875 0 0.0196335 -2.20451e-08 0 6.78226e-10 0 2.85721e-08
114 3 0.001 0.00921407 0 0.0202638 5.07838e-09 0 8.61291e-11 0 2.86416e-08
115 3 0.001 0.00921441 0 0.020894 -5.08587e-09 0 -8.68161e-10 0 2.87578e-08
116 3 0.001 0.00920891 0 0.0215242 7.01248e-09 0 -1.10648e-09 0 2.893e-08
117 3 0.001 0.0091966 0 0.0221544 -1.86886e-09 0 -1.70653e-10 0 2.91645e-08
118 3 0.001 0.00917643 0 0.0227843 -1.08418e-08 0 4.96845e-10 0 2.94621e-08
119 3 0.001 0.00914725 0 0.0234138 9.29615e-09 0 1.03536e-09 0 2.98153e-08
121 3 0.001 0.00905715 0 0.0246709 4.52981e-09 0 -7.87602e-10 0 3.06114e-08
120 3 0.001 0.00910789 0 0.0240427 -4.97174e-10 0 -9.56559e-10 0 3.02071e-08
122 3 0.001 0.00899387 0 0.0252978 -1.50549e-08 0 -2.2648e-09 0 3.10064e-08
123 3 0.001 0.00891695 0 0.0259232 2.6955e-09 0 3.52715e-10 0 3.13928e-08
124 3 0.001 0.00882539 0 0.0265467 4.33414e-09 0 1.1633e-09 0 3.17732e-08
127 3 0.001 0.00845448 0 0.0283997 -9.40492e-10 0 -7.35083e-10 0 3.27828e-08
126 3 0.001 0.00859487 0 0.0277854 -5.92736e-09 0 -1.70428e-09 0 3.24775e-08
125 3 0.001 0.00871829 0 0.0271676 2.3814e-10 0 1.2188e-10 0 3.21379e-08
128 3 0.001 0.0082966 0 0.0290096 4.3172e-09 0 1.11935e-09 0 3.30454e-08
129 3 0.001 0.00812083 0 0.0296146 -1.48716e-08 0 -4.71949e-09 0 3.3258e-08
130 3 0.001 0.00792691 0 0.030214 1.88883e-08 0 6.65865e-09 0 3.34147e-08
131 3 0.001 0.00771475 0 0.0308072 -1.97269e-08 0 -7.15068e-09 0 3.35109e-08
132 3 0.001 0.00748435 0 0.0313936 1.52192e-08 0 6.51784e-09 0 3.35439e-08
133 3 0.001 0.00723589 0 0.0319725 -8.42478e-09 0 -3.31292e-09 0 3.35128e-08
134 3 0.001 0.00696965 0 0.0325435 -1.14173e-08 0 -6.28944e-09 0 3.34183e-08
136 3 0.001 0.00638562 0 0.0336599 -2.00385e-08 0 -1.11624e-08 0 3.30523e-08
135 3 0.001 0.00668605 0 0.0331061 2.40456e-08 0 1.22847e-08 0 3.32634e-08
137 3 0.001 0.006069 0 0.0342046 1.71554e-09 0 1.4272e-09 0 3.27911e-08
139 3 0.001 0.00539017 0 0.0352661 -1.72304e-08 0 -1.12822e-08 0 3.21483e-08
140 3 0.001 0.00502966 0 0.0357829 1.71311e-08 0 1.16009e-08 0 3.17841e-08
138 3 0.001 0.00573691 0 0.03474 1.16923e-08 0 8.56736e-09 0 3.2487e-08
142 3 0.001 0.00427117 0 0.0367892 1.13766e-09 0 1.09864e-09 0 3.10178e-08
141 3 0.001 0.00465633 0 0.0362905 -1.14934e-08 0 -9.64482e-09 0 3.14041e-08
143 3 0.001 0.00387519 0 0.0372794 9.30644e-09 0 9.19602e-09 0 3.06349e-08
144 3 0.001 0.00346946 0 0.0377615 -1.00422e-08 0 -7.56196e-09 0 3.02648e-08
145 3 0.001 0.00305504 0 0.0382363 1.61382e-09 0 9.06196e-10 0 2.99161e-08
146 3 0.001 0.00263301 0 0.0387043 2.4054e-09 0 6.51472e-10 0 2.95968e-08
147 3 0.001 0.00220447 0 0.0391664 5.08456e-09 0 4.4361e-09 0 2.93141e-08
148 3 0.001 0.0017705 0 0.0396234 -9.05465e-09 0 -7.55492e-09 0 2.90742e-08
149 3 0.001 0.00133219 0 0.0400763 1.07832e-08 0 1.1358e-08 0 2.85412e-08
151 3 0.001 0.000446388 0 0.0409741 8.04941e-09 0 6.91804e-09 0 1.71563e-08
2 2 0.001 0 0 0.04142 -0.00767509 0 0.0186536 0 8.55589e-09
150 3 0.001 0.000890605 0 0.040526 -1.27385e-08 0 -1.26235e-08 0 2.26588e-08
