ITEM: TIMESTEP
9700000
ITEM: NUMBER OF ATOMS
151
ITEM: BOX BOUNDS ff ff ff
-1.0000000000000000e-02 1.0000000000000000e-02
-6.0000000000000001e-03 6.0000000000000001e-03
-5.2499999999999998e-02 5.2499999999999998e-02
ITEM: ATOMS id type radius x y z fx fy fz c_bendingE c_stretchingE
1 1 0.001 0 0 -0.0475 -0.00157777 0 -0.0145668 0 1.18278e-09
3 3 0.001 0.000522011 0 -0.0471429 -4.75119e-12 0 3.86952e-12 0 2.39991e-09
4 3 0.001 0.00104152 0 -0.0467822 -1.32343e-11 0 2.07647e-11 0 4.91594e-09
5 3 0.001 0.00155796 0 -0.0464183 2.09615e-11 0 -3.16709e-11 0 7.65386e-09
6 3 0.001 0.00207055 0 -0.0460491 -2.33344e-13 0 -4.56453e-12 0 8.03167e-09
7 3 0.001 0.00257798 0 -0.0456729 -3.31897e-11 0 5.57433e-11 0 8.30478e-09
8 3 0.001 0.00307886 0 -0.045288 4.66501e-11 0 -6.34043e-11 0 8.63743e-09
9 3 0.001 0.00357173 0 -0.044893 -3.29632e-11 0 3.81441e-11 0 9.02834e-09
10 3 0.001 0.00405506 0 -0.0444865 -7.19854e-13 0 -6.32002e-12 0 9.47546e-09
11 3 0.001 0.00452727 0 -0.0440671 -1.18726e-11 0 1.86921e-11 0 9.97572e-09
12 3 0.001 0.00498666 0 -0.0436338 4.73044e-11 0 -4.91584e-11 0 1.05249e-08
13 3 0.001 0.00543151 0 -0.0431857 -6.13173e-11 0 6.77934e-11 0 1.11172e-08
14 3 0.001 0.00586 0 -0.0427219 3.07362e-11 0 -2.57996e-11 0 1.17454e-08
15 3 0.001 0.00627028 0 -0.0422421 2.64716e-11 0 -3.36444e-11 0 1.24007e-08
16 3 0.001 0.00666046 0 -0.0417458 -9.45004e-11 0 6.69803e-11 0 1.30723e-08
17 3 0.001 0.00702865 0 -0.0412331 7.98591e-11 0 -4.47838e-11 0 1.37481e-08
18 3 0.001 0.00737296 0 -0.0407041 -2.73341e-11 0 2.23372e-11 0 1.44146e-08
19 3 0.001 0.00769154 0 -0.0401593 -4.8639e-12 0 4.5492e-12 0 1.50572e-08
20 3 0.001 0.00798263 0 -0.0395993 8.25641e-12 0 -2.21356e-12 0 1.56606e-08
21 3 0.001 0.00824456 0 -0.0390252 -7.51925e-12 0 -5.8184e-12 0 1.62096e-08
22 3 0.001 0.00847578 0 -0.0384381 -1.13477e-11 0 2.49696e-12 0 1.66897e-08
23 3 0.001 0.00867495 0 -0.0378394 1.28792e-11 0 1.15837e-11 0 1.70874e-08
24 3 0.001 0.00884089 0 -0.0372307 -1.03549e-12 0 -5.48374e-13 0 1.73912e-08
25 3 0.001 0.00897266 0 -0.0366136 -7.047e-11 0 1.21938e-11 0 1.75921e-08
26 3 0.001 0.00906957 0 -0.0359902 1.45066e-10 0 -1.54583e-11 0 1.76685e-08
27 3 0.001 0.00913116 0 -0.0353623 -1.69988e-10 0 1.16362e-11 0 1.7625e-08
28 3 0.001 0.00915726 0 -0.0347319 1.39994e-10 0 -2.55566e-12 0 1.75248e-08
29 3 0.001 0.00914788 0 -0.0341011 -1.06077e-10 0 2.61628e-12 0 1.74186e-08
30 3 0.001 0.00910321 0 -0.0334717 7.3371e-11 0 1.25499e-11 0 1.72895e-08
31 3 0.001 0.00902366 0 -0.0328458 -1.0384e-10 0 -1.79956e-11 0 1.70707e-08
32 3 0.001 0.00890983 0 -0.0322252 1.35692e-10 0 3.40166e-11 0 1.67371e-08
33 3 0.001 0.00876256 0 -0.0316116 -1.07972e-10 0 -2.9052e-11 0 1.63128e-08
35 3 0.001 0.00837218 0 -0.0304118 7.45917e-11 0 3.75898e-11 0 1.52534e-08
34 3 0.001 0.00858291 0 -0.0310067 1.33539e-11 0 -7.74009e-12 0 1.58137e-08
37 3 0.001 0.00786334 0 -0.0292571 1.02412e-11 0 -7.09082e-14 0 1.40074e-08
36 3 0.001 0.00813179 0 -0.0298283 -9.07187e-11 0 -2.90209e-11 0 1.46464e-08
38 3 0.001 0.00756855 0 -0.0286989 5.67973e-11 0 2.69284e-11 0 1.3351e-08
41 3 0.001 0.00654425 0 -0.0271071 -9.0224e-11 0 -6.38668e-11 0 1.14087e-08
39 3 0.001 0.0072492 0 -0.0281544 -8.0021e-11 0 -4.39313e-11 0 1.26908e-08
40 3 0.001 0.00690714 0 -0.0276238 1.0538e-10 0 6.561e-11 0 1.20397e-08
43 3 0.001 0.00576351 0 -0.0261147 1.23534e-11 0 -8.55273e-12 0 1.02444e-08
42 3 0.001 0.00616242 0 -0.0266042 4.1164e-11 0 2.82293e-11 0 1.08076e-08
44 3 0.001 0.00534937 0 -0.025638 -1.96646e-11 0 -9.81079e-12 0 9.72555e-09
46 3 0.001 0.00448251 0 -0.0247193 1.47343e-11 0 8.74688e-12 0 8.83983e-09
45 3 0.001 0.00492179 0 -0.0251732 2.24034e-11 0 1.83284e-11 0 9.25613e-09
47 3 0.001 0.00403323 0 -0.0242753 -2.28479e-11 0 -4.51322e-11 0 8.47927e-09
51 3 0.001 0.00216789 0 -0.0225712 2.53503e-11 0 1.57106e-11 0 7.62023e-09
49 3 0.001 0.00311111 0 -0.0234118 -5.81391e-11 0 -8.26557e-11 0 7.93164e-09
50 3 0.001 0.00264139 0 -0.0229894 3.66876e-11 0 3.94585e-11 0 7.74623e-09
48 3 0.001 0.00357557 0 -0.02384 6.70162e-11 0 6.73783e-11 0 8.17618e-09
53 3 0.001 0.00121536 0 -0.021741 8.1726e-11 0 7.9297e-11 0 7.54682e-09
52 3 0.001 0.00169207 0 -0.0221556 -2.60029e-11 0 -5.13324e-11 0 7.55375e-09
54 3 0.001 0.000739211 0 -0.0213258 -6.53555e-11 0 -8.90873e-11 0 7.59945e-09
58 3 0.001 -0.00113089 0 -0.0196268 1.2817e-10 0 1.08391e-10 0 8.40358e-09
56 3 0.001 -0.000205691 0 -0.0204871 4.07931e-11 0 2.08697e-11 0 7.88321e-09
57 3 0.001 -0.000671507 0 -0.0200604 -8.84952e-11 0 -1.09078e-10 0 8.11404e-09
55 3 0.001 0.000265042 0 -0.0209084 6.36147e-11 0 6.07704e-11 0 7.7116e-09
61 3 0.001 -0.00245447 0 -0.0182713 6.68894e-13 0 -1.92924e-11 0 9.61179e-09
60 3 0.001 -0.00202402 0 -0.0187335 2.82068e-11 0 1.8201e-11 0 9.15444e-09
59 3 0.001 -0.00158226 0 -0.0191849 -3.51562e-11 0 -5.29763e-11 0 8.7509e-09
63 3 0.001 -0.00327452 0 -0.0173109 -4.1523e-11 0 -4.62019e-11 0 1.06729e-08
62 3 0.001 -0.0028719 0 -0.0177974 6.58001e-11 0 3.56279e-11 0 1.01195e-08
64 3 0.001 -0.00366049 0 -0.0168112 1.08236e-10 0 5.94623e-11 0 1.12659e-08
66 3 0.001 -0.00437502 0 -0.0157704 1.24804e-10 0 7.76765e-11 0 1.25381e-08
65 3 0.001 -0.00402795 0 -0.0162977 -9.15274e-11 0 -7.49497e-11 0 1.18907e-08
67 3 0.001 -0.00469982 0 -0.0152291 -7.32686e-11 0 -5.95523e-11 0 1.31973e-08
68 3 0.001 -0.00500049 0 -0.0146741 1.0352e-10 0 3.02159e-11 0 1.38558e-08
69 3 0.001 -0.00527522 0 -0.0141058 1.26913e-11 0 -6.99619e-12 0 1.45001e-08
70 3 0.001 -0.00552228 0 -0.0135251 -6.58478e-11 0 -1.74581e-11 0 1.51159e-08
71 3 0.001 -0.00574005 0 -0.0129328 1.53538e-10 0 4.09086e-11 0 1.56884e-08
72 3 0.001 -0.00592704 0 -0.0123301 -6.03477e-11 0 -2.69206e-11 0 1.6203e-08
73 3 0.001 -0.00608195 0 -0.0117184 1.60248e-11 0 -4.55563e-12 0 1.66458e-08
74 3 0.001 -0.00620364 0 -0.0110992 7.35466e-11 0 6.73065e-12 0 1.70045e-08
75 3 0.001 -0.00629123 0 -0.0104744 -3.70636e-11 0 4.2471e-13 0 1.72686e-08
76 3 0.001 -0.00634405 0 -0.00984566 1.08645e-10 0 5.34586e-12 0 1.74304e-08
77 3 0.001 -0.0063617 0 -0.00921498 -7.79045e-11 0 -7.76596e-12 0 1.74849e-08
78 3 0.001 -0.00634405 0 -0.00858429 1.23576e-10 0 3.90516e-13 0 1.74304e-08
79 3 0.001 -0.00629124 0 -0.00795557 -9.60182e-11 0 1.4271e-11 0 1.72687e-08
80 3 0.001 -0.00620365 0 -0.00733072 1.69896e-10 0 -3.00028e-11 0 1.70046e-08
81 3 0.001 -0.00608196 0 -0.00671159 -1.35251e-10 0 3.56608e-11 0 1.66459e-08
82 3 0.001 -0.00592706 0 -0.0060999 1.77488e-10 0 -3.79558e-11 0 1.62031e-08
83 3 0.001 -0.00574007 0 -0.0054972 -9.53874e-11 0 2.98032e-11 0 1.56886e-08
84 3 0.001 -0.0055223 0 -0.00490488 7.47703e-11 0 -1.12417e-11 0 1.51161e-08
85 3 0.001 -0.00527525 0 -0.00432413 1.47278e-12 0 1.37441e-11 0 1.45003e-08
86 3 0.001 -0.00500052 0 -0.00375588 5.24087e-11 0 -2.39946e-11 0 1.3856e-08
87 3 0.001 -0.00469985 0 -0.00320087 1.37933e-12 0 5.9769e-12 0 1.31975e-08
88 3 0.001 -0.00437506 0 -0.00265956 -1.59725e-11 0 3.44966e-11 0 1.25383e-08
89 3 0.001 -0.00402799 0 -0.00213219 1.04019e-10 0 -5.46018e-11 0 1.18909e-08
90 3 0.001 -0.00366053 0 -0.00161876 -1.53067e-11 0 1.49825e-11 0 1.12661e-08
91 3 0.001 -0.00327456 0 -0.00111903 -4.29368e-11 0 6.20121e-11 0 1.06731e-08
92 3 0.001 -0.00287195 0 -0.000632536 1.28897e-10 0 -1.09516e-10 0 1.01197e-08
93 3 0.001 -0.00245452 0 -0.000158632 -7.06451e-11 0 8.87741e-11 0 9.61196e-09
94 3 0.001 -0.00202406 0 0.000303532 5.7971e-11 0 -3.45141e-11 0 9.1546e-09
95 3 0.001 -0.00158231 0 0.000754965 1.94941e-11 0 8.53224e-14 0 8.75106e-09
96 3 0.001 -0.00113093 0 0.00119683 2.00421e-11 0 -6.37308e-12 0 8.40373e-09
97 3 0.001 -0.000671554 0 0.00163042 -2.40071e-11 0 4.0106e-11 0 8.11418e-09
98 3 0.001 -0.000205738 0 0.00205712 6.57697e-11 0 -5.28693e-11 0 7.88335e-09
99 3 0.001 0.000264995 0 0.00247842 2.05896e-11 0 -4.68623e-12 0 7.71174e-09
100 3 0.001 0.000739165 0 0.00289587 -8.17691e-11 0 1.19979e-10 0 7.59957e-09
101 3 0.001 0.00121532 0 0.00331107 1.61003e-10 0 -1.84682e-10 0 7.54694e-09
102 3 0.001 0.00169202 0 0.00372564 -1.01026e-10 0 1.2283e-10 0 7.55387e-09
103 3 0.001 0.00216784 0 0.00414122 2.88651e-11 0 9.22286e-13 0 7.62034e-09
104 3 0.001 0.00264135 0 0.00455942 5.33327e-11 0 -4.66361e-11 0 7.74634e-09
105 3 0.001 0.00311107 0 0.00498184 -1.88691e-11 0 1.94503e-11 0 7.93176e-09
106 3 0.001 0.00357553 0 0.00541002 -3.08873e-13 0 9.73168e-12 0 8.1763e-09
107 3 0.001 0.00403319 0 0.0058454 3.52524e-11 0 -2.25397e-11 0 8.47939e-09
108 3 0.001 0.00448247 0 0.00628938 -1.92584e-11 0 2.37882e-11 0 8.83996e-09
109 3 0.001 0.00492175 0 0.00674321 8.51948e-13 0 1.29065e-11 0 9.25627e-09
110 3 0.001 0.00534934 0 0.00720802 5.58348e-11 0 -4.88965e-11 0 9.7257e-09
111 3 0.001 0.00576348 0 0.00768478 -4.63488e-11 0 4.16654e-11 0 1.02445e-08
112 3 0.001 0.00616239 0 0.00817429 -1.01465e-11 0 1.27548e-11 0 1.08077e-08
113 3 0.001 0.00654423 0 0.00867718 5.77244e-11 0 -4.03842e-11 0 1.14089e-08
114 3 0.001 0.00690712 0 0.00919384 -1.33269e-11 0 1.34582e-11 0 1.20399e-08
115 3 0.001 0.00724918 0 0.00972445 -3.95597e-11 0 2.11331e-11 0 1.26911e-08
116 3 0.001 0.00756853 0 0.010269 3.44811e-11 0 -1.5612e-11 0 1.33512e-08
117 3 0.001 0.00786333 0 0.0108271 1.14922e-11 0 -1.17472e-11 0 1.40077e-08
118 3 0.001 0.00813178 0 0.0113983 -2.47803e-11 0 1.51036e-11 0 1.46467e-08
119 3 0.001 0.00837217 0 0.0119819 -3.55488e-11 0 1.47934e-11 0 1.52538e-08
120 3 0.001 0.00858291 0 0.0125767 1.23502e-10 0 -4.46558e-11 0 1.58141e-08
121 3 0.001 0.00876255 0 0.0131816 -1.76124e-10 0 4.53608e-11 0 1.63132e-08
122 3 0.001 0.00890983 0 0.0137952 1.63315e-10 0 -3.72293e-11 0 1.67375e-08
123 3 0.001 0.00902367 0 0.0144158 -1.40909e-10 0 1.92383e-11 0 1.70711e-08
124 3 0.001 0.00910322 0 0.0150417 9.42124e-11 0 -1.00807e-11 0 1.72899e-08
125 3 0.001 0.00914789 0 0.0156711 -4.16959e-11 0 3.40783e-12 0 1.7419e-08
126 3 0.001 0.00915727 0 0.016302 -3.99084e-11 0 -7.86229e-12 0 1.75253e-08
127 3 0.001 0.00913118 0 0.0169323 1.10143e-10 0 4.81995e-12 0 1.76255e-08
128 3 0.001 0.00906958 0 0.0175602 -1.35008e-10 0 -1.33071e-11 0 1.7669e-08
129 3 0.001 0.00897268 0 0.0181837 1.2383e-10 0 2.28469e-11 0 1.75926e-08
130 3 0.001 0.00884091 0 0.0188007 -1.25605e-10 0 -4.1729e-11 0 1.73918e-08
133 3 0.001 0.00824458 0 0.0205953 -6.35998e-11 0 -2.58837e-11 0 1.62102e-08
132 3 0.001 0.00847581 0 0.0200081 2.93514e-11 0 1.5914e-11 0 1.66903e-08
131 3 0.001 0.00867497 0 0.0194094 6.13303e-11 0 1.76299e-11 0 1.7088e-08
134 3 0.001 0.00798266 0 0.0211694 2.97835e-11 0 9.2507e-12 0 1.56612e-08
135 3 0.001 0.00769157 0 0.0217293 -1.43561e-11 0 -1.64143e-11 0 1.50578e-08
136 3 0.001 0.00737298 0 0.0222741 1.35581e-11 0 4.98269e-12 0 1.44152e-08
138 3 0.001 0.00666049 0 0.0233158 -7.37185e-13 0 4.31057e-12 0 1.30729e-08
137 3 0.001 0.00702868 0 0.0228031 -1.53982e-11 0 1.4686e-12 0 1.37487e-08
142 3 0.001 0.00498668 0 0.0252038 9.9427e-12 0 2.85475e-13 0 1.05254e-08
139 3 0.001 0.0062703 0 0.0238121 -2.0288e-11 0 -3.1228e-11 0 1.24012e-08
140 3 0.001 0.00586002 0 0.024292 4.7727e-11 0 3.28249e-11 0 1.1746e-08
141 3 0.001 0.00543153 0 0.0247557 -3.87459e-11 0 -1.49687e-11 0 1.11177e-08
145 3 0.001 0.00357174 0 0.0264631 -2.69054e-11 0 -4.28943e-11 0 9.02876e-09
143 3 0.001 0.00452728 0 0.0256371 -3.48716e-11 0 -3.79857e-11 0 9.97618e-09
144 3 0.001 0.00405508 0 0.0260565 5.3763e-11 0 6.54698e-11 0 9.4759e-09
148 3 0.001 0.00207056 0 0.0276191 -3.38608e-11 0 -4.4521e-11 0 8.03204e-09
149 3 0.001 0.00155796 0 0.0279884 -3.01309e-12 0 -5.17857e-12 0 7.65423e-09
146 3 0.001 0.00307887 0 0.0268581 -1.87932e-11 0 -1.54725e-11 0 8.63783e-09
147 3 0.001 0.00257799 0 0.0272429 3.55628e-11 0 4.60838e-11 0 8.30516e-09
151 3 0.001 0.000522014 0 0.0287129 -2.23775e-11 0 -3.5916e-11 0 2.40011e-09
2 2 0.001 0 0 0.02907 -0.00157793 0 0.0145671 0 1.18288e-09
150 3 0.001 0.00104152 0 0.0283523 3.29913e-11 0 4.72349e-11 0 4.91622e-09
