ITEM: TIMESTEP
6300000
ITEM: NUMBER OF ATOMS
151
ITEM: BOX BOUNDS ff ff ff
-1.0000000000000000e-02 1.0000000000000000e-02
-6.0000000000000001e-03 6.0000000000000001e-03
-5.2499999999999998e-02 5.2499999999999998e-02
ITEM: ATOMS id type radius x y z fx fy fz c_bendingE c_stretchingE
1 1 0.001 0 0 -0.0475 -0.00416455 0 -0.0154839 0 3.11773e-09
3 3 0.001 0.000495283 0 -0.0471076 -7.00095e-09 0 9.09522e-09 0 6.27626e-09
4 3 0.001 0.000988209 0 -0.0467122 1.21357e-08 0 -1.46501e-08 0 9.89179e-09
5 3 0.001 0.00147826 0 -0.0463144 -1.24777e-08 0 1.46808e-08 0 1.37829e-08
6 3 0.001 0.00196472 0 -0.0459122 1.03932e-08 0 -1.27849e-08 0 1.42168e-08
7 3 0.001 0.00244639 0 -0.0455043 -8.32703e-09 0 1.00918e-08 0 1.44785e-08
8 3 0.001 0.00292203 0 -0.0450895 7.36766e-09 0 -7.96462e-09 0 1.47924e-08
9 3 0.001 0.00339036 0 -0.0446664 -6.75985e-09 0 7.35239e-09 0 1.51548e-08
10 3 0.001 0.00385004 0 -0.044234 2.10732e-09 0 -3.05686e-09 0 1.55608e-08
11 3 0.001 0.00429975 0 -0.0437913 7.75533e-09 0 -7.43142e-09 0 1.60048e-08
12 3 0.001 0.00473808 0 -0.0433374 -1.86454e-08 0 1.80063e-08 0 1.648e-08
13 3 0.001 0.00516364 0 -0.0428715 2.28414e-08 0 -2.02181e-08 0 1.69786e-08
14 3 0.001 0.005575 0 -0.0423931 -1.48586e-08 0 1.23878e-08 0 1.7492e-08
15 3 0.001 0.00597072 0 -0.0419017 1.6766e-09 0 -2.13834e-09 0 1.80104e-08
16 3 0.001 0.00634938 0 -0.0413971 3.69407e-09 0 -2.64616e-09 0 1.85234e-08
17 3 0.001 0.00670958 0 -0.0408792 -4.63447e-09 0 3.88701e-09 0 1.90201e-08
18 3 0.001 0.00704994 0 -0.0403481 1.4509e-08 0 -8.37164e-09 0 1.94895e-08
19 3 0.001 0.00736917 0 -0.0398041 -2.79539e-08 0 1.47034e-08 0 1.99205e-08
20 3 0.001 0.00766603 0 -0.0392475 3.20581e-08 0 -1.67464e-08 0 2.03025e-08
21 3 0.001 0.0079394 0 -0.0386791 -2.89917e-08 0 1.34333e-08 0 2.06258e-08
22 3 0.001 0.00818828 0 -0.0380996 2.31458e-08 0 -8.93588e-09 0 2.08819e-08
23 3 0.001 0.00841178 0 -0.0375098 -1.53019e-08 0 5.91538e-09 0 2.10641e-08
24 3 0.001 0.0086092 0 -0.0369108 7.47094e-09 0 -2.68177e-09 0 2.11673e-08
25 3 0.001 0.00877999 0 -0.0363037 1.3965e-09 0 -4.34804e-10 0 2.11887e-08
26 3 0.001 0.00892377 0 -0.0356896 -1.06906e-08 0 1.75565e-09 0 2.11277e-08
27 3 0.001 0.00904039 0 -0.0350698 1.45281e-08 0 -2.29473e-09 0 2.09753e-08
28 3 0.001 0.00912983 0 -0.0344455 -1.05419e-08 0 1.83587e-09 0 2.07064e-08
29 3 0.001 0.00919231 0 -0.0338178 1.55883e-09 0 -2.09139e-10 0 2.03544e-08
30 3 0.001 0.00922815 0 -0.0331881 5.90562e-09 0 -1.07771e-10 0 2.00148e-08
31 3 0.001 0.00923772 0 -0.0325574 -3.96967e-09 0 -1.1795e-10 0 1.97571e-08
32 3 0.001 0.00922143 0 -0.0319268 -8.8712e-09 0 -1.04858e-09 0 1.95994e-08
33 3 0.001 0.0091797 0 -0.0312974 2.43859e-08 0 2.65175e-09 0 1.95079e-08
34 3 0.001 0.00911297 0 -0.0306701 -3.27573e-08 0 -3.95808e-09 0 1.94103e-08
35 3 0.001 0.0090217 0 -0.030046 2.75518e-08 0 4.30194e-09 0 1.92304e-08
36 3 0.001 0.00890649 0 -0.0294258 -1.26539e-08 0 -2.30778e-09 0 1.89653e-08
37 3 0.001 0.00876804 0 -0.0288103 2.00099e-09 0 3.4436e-10 0 1.86524e-08
39 3 0.001 0.00842489 0 -0.0275963 8.60839e-09 0 2.83305e-09 0 1.79258e-08
38 3 0.001 0.00860719 0 -0.0282003 -3.00582e-09 0 -9.70459e-10 0 1.83033e-08
42 3 0.001 0.00776039 0 -0.0258246 -3.24577e-08 0 -1.38061e-08 0 1.67067e-08
41 3 0.001 0.00800031 0 -0.0264082 2.73927e-08 0 1.12701e-08 0 1.71192e-08
40 3 0.001 0.00822222 0 -0.0269988 -1.60658e-08 0 -5.98504e-09 0 1.75283e-08
44 3 0.001 0.00723171 0 -0.0246788 -7.10977e-09 0 -3.2939e-09 0 1.59026e-08
43 3 0.001 0.00750375 0 -0.0252482 2.22478e-08 0 9.76857e-09 0 1.62987e-08
45 3 0.001 0.00694564 0 -0.0241163 -2.48405e-09 0 -1.44515e-09 0 1.55251e-08
47 3 0.001 0.006337 0 -0.0230106 -1.1741e-08 0 -6.66667e-09 0 1.485e-08
46 3 0.001 0.00664693 0 -0.0235604 7.92183e-09 0 4.41195e-09 0 1.51725e-08
49 3 0.001 0.00568913 0 -0.0219273 -9.67785e-09 0 -5.75738e-09 0 1.43132e-08
48 3 0.001 0.00601726 0 -0.0224665 1.15017e-08 0 6.90127e-09 0 1.45622e-08
50 3 0.001 0.00535405 0 -0.0213925 6.61604e-09 0 3.94605e-09 0 1.4106e-08
52 3 0.001 0.00466867 0 -0.0203323 -9.19098e-09 0 -5.91787e-09 0 1.38267e-08
53 3 0.001 0.00432121 0 -0.0198054 1.5092e-08 0 1.03506e-08 0 1.37578e-08
51 3 0.001 0.00501342 0 -0.0208611 5.18176e-10 0 -3.77883e-11 0 1.39432e-08
56 3 0.001 0.00327667 0 -0.0182259 -1.05327e-08 0 -7.6509e-09 0 1.38416e-08
55 3 0.001 0.0036238 0 -0.0187531 1.36008e-08 0 8.71439e-09 0 1.37653e-08
54 3 0.001 0.00397245 0 -0.0192793 -1.64069e-08 0 -1.05156e-08 0 1.37372e-08
58 3 0.001 0.0025926 0 -0.017165 -9.47343e-09 0 -5.47218e-09 0 1.41352e-08
57 3 0.001 0.00293246 0 -0.0176968 8.87276e-09 0 5.76267e-09 0 1.39654e-08
59 3 0.001 0.0022585 0 -0.0166295 1.02249e-08 0 6.82417e-09 0 1.4349e-08
61 3 0.001 0.00161326 0 -0.0155446 2.23058e-09 0 3.81806e-10 0 1.48977e-08
60 3 0.001 0.00193158 0 -0.0160896 -6.71944e-09 0 -4.21374e-09 0 1.46043e-08
63 3 0.001 0.00100813 0 -0.014437 7.88792e-09 0 4.74048e-09 0 1.5582e-08
62 3 0.001 0.00130497 0 -0.014994 -3.79614e-09 0 -2.11074e-09 0 1.52252e-08
64 3 0.001 0.000724136 0 -0.0138735 -7.85396e-09 0 -3.54704e-09 0 1.59628e-08
66 3 0.001 0.000200244 0 -0.0127255 -1.01333e-08 0 -4.8932e-09 0 1.67704e-08
65 3 0.001 0.000454388 0 -0.013303 7.42757e-09 0 3.11811e-09 0 1.63612e-08
67 3 0.001 -3.6971e-05 0 -0.0121408 1.09434e-08 0 4.33606e-09 0 1.71829e-08
68 3 0.001 -0.000255982 0 -0.0115491 -1.01461e-08 0 -3.0429e-09 0 1.75908e-08
69 3 0.001 -0.000455577 0 -0.0109506 1.06237e-08 0 3.36137e-09 0 1.79857e-08
72 3 0.001 -0.000926978 0 -0.00911851 -1.727e-08 0 -2.84133e-09 0 1.90101e-08
71 3 0.001 -0.000792067 0 -0.00973476 5.70001e-09 0 1.12804e-09 0 1.87035e-08
70 3 0.001 -0.00063462 0 -0.0103457 -7.39714e-09 0 -2.44636e-09 0 1.83594e-08
73 3 0.001 -0.00103853 0 -0.00849763 3.59999e-08 0 5.71642e-09 0 1.9272e-08
74 3 0.001 -0.00112603 0 -0.00787293 -4.30485e-08 0 -5.51807e-09 0 1.94828e-08
75 3 0.001 -0.00118894 0 -0.00724528 3.73897e-08 0 2.97253e-09 0 1.96374e-08
76 3 0.001 -0.00122684 0 -0.00661564 -2.70446e-08 0 -1.04435e-09 0 1.97317e-08
77 3 0.001 -0.00123951 0 -0.00598498 1.13884e-08 0 6.37818e-10 0 1.97634e-08
78 3 0.001 -0.00122685 0 -0.00535433 4.47723e-09 0 -6.28717e-10 0 1.97317e-08
79 3 0.001 -0.00118895 0 -0.00472469 -8.18431e-09 0 -1.23975e-10 0 1.96374e-08
80 3 0.001 -0.00112604 0 -0.00409704 6.65885e-09 0 -5.42648e-10 0 1.94829e-08
81 3 0.001 -0.00103855 0 -0.00347233 -1.48026e-08 0 3.68134e-09 0 1.92721e-08
82 3 0.001 -0.000926996 0 -0.00285145 3.02455e-08 0 -6.39771e-09 0 1.90102e-08
83 3 0.001 -0.000792088 0 -0.00223521 -3.72313e-08 0 8.05773e-09 0 1.87036e-08
84 3 0.001 -0.000634644 0 -0.00162431 3.07525e-08 0 -8.784e-09 0 1.83595e-08
85 3 0.001 -0.000455604 0 -0.00101936 -1.96535e-08 0 6.41695e-09 0 1.79859e-08
86 3 0.001 -0.000256012 0 -0.000420857 1.45571e-08 0 -4.17239e-09 0 1.7591e-08
87 3 0.001 -3.70035e-05 0 0.000170851 -1.43626e-08 0 5.75007e-09 0 1.71831e-08
88 3 0.001 0.000200209 0 0.00075553 1.32542e-08 0 -6.33438e-09 0 1.67706e-08
89 3 0.001 0.000454351 0 0.00133308 -6.56537e-09 0 2.30007e-09 0 1.63614e-08
90 3 0.001 0.000724098 0 0.00190355 -4.99168e-09 0 2.91348e-09 0 1.5963e-08
91 3 0.001 0.00100809 0 0.00246709 1.03906e-08 0 -4.78072e-09 0 1.55822e-08
92 3 0.001 0.00130493 0 0.00302399 -6.4825e-09 0 3.62458e-09 0 1.52253e-08
93 3 0.001 0.00161322 0 0.00357468 7.77611e-09 0 -4.98779e-09 0 1.48979e-08
94 3 0.001 0.00193153 0 0.00411965 -2.02887e-08 0 1.19688e-08 0 1.46045e-08
95 3 0.001 0.00225845 0 0.00465953 2.90818e-08 0 -1.78359e-08 0 1.43492e-08
96 3 0.001 0.00259256 0 0.00519502 -2.39658e-08 0 1.54378e-08 0 1.41354e-08
97 3 0.001 0.00293242 0 0.00572689 1.29798e-08 0 -7.94783e-09 0 1.39656e-08
98 3 0.001 0.00327662 0 0.00625597 -5.62295e-09 0 3.34376e-09 0 1.38418e-08
99 3 0.001 0.00362376 0 0.00678315 4.46596e-09 0 -3.38848e-09 0 1.37655e-08
100 3 0.001 0.00397241 0 0.00730932 -6.16974e-09 0 4.0811e-09 0 1.37374e-08
101 3 0.001 0.00432117 0 0.00783543 3.23909e-09 0 -1.84972e-09 0 1.3758e-08
102 3 0.001 0.00466863 0 0.00836239 3.37363e-09 0 -1.62879e-09 0 1.38269e-08
103 3 0.001 0.00501338 0 0.00889111 -6.91141e-09 0 4.47021e-09 0 1.39434e-08
104 3 0.001 0.00535401 0 0.00942249 5.09689e-09 0 -3.96906e-09 0 1.41062e-08
105 3 0.001 0.0056891 0 0.00995737 -8.92154e-10 0 2.58271e-10 0 1.43134e-08
106 3 0.001 0.00601722 0 0.0104965 -3.07233e-09 0 2.12669e-09 0 1.45624e-08
107 3 0.001 0.00633696 0 0.0110407 4.84069e-09 0 -2.10249e-09 0 1.48502e-08
108 3 0.001 0.0066469 0 0.0115904 -6.74251e-09 0 3.72211e-09 0 1.51727e-08
109 3 0.001 0.00694561 0 0.0121463 1.27351e-08 0 -7.28302e-09 0 1.55253e-08
110 3 0.001 0.00723168 0 0.0127088 -1.96773e-08 0 9.61223e-09 0 1.59028e-08
111 3 0.001 0.00750372 0 0.0132782 2.14467e-08 0 -9.57057e-09 0 1.62989e-08
112 3 0.001 0.00776037 0 0.0138547 -1.87841e-08 0 8.04577e-09 0 1.6707e-08
113 3 0.001 0.00800029 0 0.0144382 1.10502e-08 0 -4.66981e-09 0 1.71195e-08
114 3 0.001 0.0082222 0 0.0150289 4.72914e-09 0 -1.35088e-09 0 1.75286e-08
115 3 0.001 0.00842488 0 0.0156263 -2.48421e-08 0 7.95729e-09 0 1.79261e-08
116 3 0.001 0.00860717 0 0.0162303 3.48116e-08 0 -9.7044e-09 0 1.83036e-08
117 3 0.001 0.00876803 0 0.0168403 -2.97712e-08 0 7.02862e-09 0 1.86528e-08
118 3 0.001 0.00890648 0 0.0174558 1.79822e-08 0 -4.16354e-09 0 1.89657e-08
119 3 0.001 0.0090217 0 0.018076 -3.50285e-09 0 1.03317e-09 0 1.92308e-08
120 3 0.001 0.00911296 0 0.0187002 -1.10969e-08 0 1.53309e-09 0 1.94107e-08
121 3 0.001 0.0091797 0 0.0193274 2.03236e-08 0 -1.52712e-09 0 1.95083e-08
122 3 0.001 0.00922143 0 0.0199568 -2.58377e-08 0 5.88864e-10 0 1.95998e-08
123 3 0.001 0.00923772 0 0.0205874 3.07075e-08 0 -3.26588e-10 0 1.97575e-08
124 3 0.001 0.00922815 0 0.0212181 -3.18721e-08 0 -8.0563e-10 0 2.00153e-08
125 3 0.001 0.00919232 0 0.0218479 2.94635e-08 0 2.57795e-09 0 2.03548e-08
126 3 0.001 0.00912985 0 0.0224755 -2.50735e-08 0 -2.72984e-09 0 2.07069e-08
127 3 0.001 0.0090404 0 0.0230998 1.20607e-08 0 9.31735e-10 0 2.09759e-08
128 3 0.001 0.00892379 0 0.0237196 6.12292e-09 0 1.289e-09 0 2.11283e-08
129 3 0.001 0.00878001 0 0.0243337 -1.45293e-08 0 -3.22381e-09 0 2.11893e-08
130 3 0.001 0.00860922 0 0.0249408 1.08014e-08 0 3.59586e-09 0 2.11679e-08
131 3 0.001 0.0084118 0 0.0255398 -8.70234e-09 0 -2.96901e-09 0 2.10648e-08
132 3 0.001 0.0081883 0 0.0261296 1.28664e-08 0 4.82558e-09 0 2.08826e-08
133 3 0.001 0.00793943 0 0.0267092 -1.32299e-08 0 -6.49865e-09 0 2.06265e-08
134 3 0.001 0.00766606 0 0.0272776 9.6526e-09 0 4.89734e-09 0 2.03032e-08
135 3 0.001 0.00736919 0 0.0278341 -8.13547e-09 0 -4.29713e-09 0 1.99212e-08
137 3 0.001 0.0067096 0 0.0289093 -3.43846e-09 0 -1.98277e-09 0 1.90208e-08
138 3 0.001 0.00634941 0 0.0294272 2.39761e-09 0 1.28759e-09 0 1.85241e-08
136 3 0.001 0.00704997 0 0.0283781 6.14385e-09 0 4.19119e-09 0 1.94902e-08
141 3 0.001 0.00516366 0 0.0309016 7.04817e-09 0 6.80278e-09 0 1.69793e-08
139 3 0.001 0.00597075 0 0.0299318 -2.74393e-10 0 -6.94817e-10 0 1.8011e-08
140 3 0.001 0.00557502 0 0.0304231 -4.07584e-09 0 -3.73354e-09 0 1.74926e-08
144 3 0.001 0.00385006 0 0.0322641 9.94268e-09 0 9.74201e-09 0 1.55614e-08
145 3 0.001 0.00339037 0 0.0326964 -1.00586e-08 0 -1.14465e-08 0 1.51554e-08
142 3 0.001 0.0047381 0 0.0313674 -4.72185e-09 0 -3.49474e-09 0 1.64806e-08
143 3 0.001 0.00429977 0 0.0318214 -2.92553e-09 0 -3.18944e-09 0 1.60054e-08
148 3 0.001 0.00196473 0 0.0339422 -8.25316e-09 0 -9.6246e-09 0 1.42173e-08
149 3 0.001 0.00147827 0 0.0343444 7.23093e-09 0 8.22573e-09 0 1.37835e-08
146 3 0.001 0.00292205 0 0.0331195 3.05033e-09 0 3.45516e-09 0 1.4793e-08
147 3 0.001 0.00244641 0 0.0335343 4.87199e-09 0 6.73548e-09 0 1.4479e-08
151 3 0.001 0.000495285 0 0.0351376 2.48032e-09 0 3.06851e-09 0 6.27662e-09
2 2 0.001 0 0 0.03553 -0.00416472 0 0.0154842 0 3.11791e-09
150 3 0.001 0.000988214 0 0.0347422 -4.75587e-09 0 -6.09364e-09 0 9.89223e-09
