ITEM: TIMESTEP
7700000
ITEM: NUMBER OF ATOMS
151
ITEM: BOX BOUNDS ff ff ff
-1.0000000000000000e-02 1.0000000000000000e-02
-6.0000000000000001e-03 6.0000000000000001e-03
-5.2499999999999998e-02 5.2499999999999998e-02
ITEM: ATOMS id type radius x y z fx fy fz c_bendingE c_stretchingE
1 1 0.001 0 0 -0.0475 -0.00301397 0 -0.0149624 0 2.11084e-09
3 3 0.001 0.00050779 0 -0.0471235 -1.23926e-11 0 1.23217e-11 0 4.26024e-09
4 3 0.001 0.00101316 0 -0.0467437 2.19524e-11 0 -1.7951e-11 0 7.36868e-09
5 3 0.001 0.00151556 0 -0.0463612 -2.39028e-11 0 2.36363e-11 0 1.07273e-08
6 3 0.001 0.00201426 0 -0.0459739 9.94388e-12 0 -1.55379e-11 0 1.11358e-08
7 3 0.001 0.00250801 0 -0.0455803 -1.07792e-12 0 3.87466e-12 0 1.14039e-08
8 3 0.001 0.00299551 0 -0.0451791 -1.59838e-11 0 1.95724e-11 0 1.17274e-08
9 3 0.001 0.00347538 0 -0.0447688 2.18949e-11 0 -3.00998e-11 0 1.21035e-08
10 3 0.001 0.00394623 0 -0.0443483 -2.53458e-11 0 2.83495e-11 0 1.25287e-08
11 3 0.001 0.0044066 0 -0.0439163 1.24279e-11 0 -9.96919e-12 0 1.29981e-08
12 3 0.001 0.00485499 0 -0.043472 -1.21977e-11 0 1.08406e-11 0 1.3506e-08
13 3 0.001 0.00528985 0 -0.0430145 3.75614e-12 0 -1.09572e-11 0 1.40453e-08
14 3 0.001 0.0057096 0 -0.0425431 -3.73232e-13 0 2.0859e-13 0 1.46078e-08
15 3 0.001 0.00611263 0 -0.0420575 -1.04702e-11 0 1.00376e-11 0 1.5184e-08
16 3 0.001 0.00649731 0 -0.0415572 2.69219e-12 0 -2.49646e-12 0 1.57634e-08
17 3 0.001 0.00686204 0 -0.0410422 -8.01117e-12 0 4.30877e-12 0 1.63345e-08
18 3 0.001 0.00720524 0 -0.0405127 1.99397e-11 0 -1.73065e-11 0 1.68851e-08
19 3 0.001 0.00752538 0 -0.039969 -2.51312e-11 0 1.52679e-11 0 1.74028e-08
20 3 0.001 0.007821 0 -0.0394117 -8.88593e-12 0 6.59771e-12 0 1.78752e-08
21 3 0.001 0.00809075 0 -0.0388414 2.24568e-11 0 -1.38318e-11 0 1.82903e-08
22 3 0.001 0.00833339 0 -0.038259 -7.51279e-12 0 5.08973e-12 0 1.86374e-08
23 3 0.001 0.00854785 0 -0.0376657 -2.55299e-11 0 6.29471e-12 0 1.89071e-08
24 3 0.001 0.0087332 0 -0.0370628 2.09243e-11 0 -7.50882e-12 0 1.90919e-08
25 3 0.001 0.00888873 0 -0.0364514 -8.5702e-13 0 1.3442e-12 0 1.91866e-08
26 3 0.001 0.00901391 0 -0.0358331 -2.93439e-11 0 5.68347e-12 0 1.91863e-08
27 3 0.001 0.00910844 0 -0.0352095 2.83534e-11 0 -7.72452e-12 0 1.90617e-08
28 3 0.001 0.00917223 0 -0.0345819 -2.12421e-11 0 2.95373e-12 0 1.88318e-08
29 3 0.001 0.00920536 0 -0.0339519 2.76946e-11 0 -1.51157e-12 0 1.859e-08
30 3 0.001 0.00920805 0 -0.033321 -5.09945e-11 0 -2.01469e-12 0 1.8404e-08
31 3 0.001 0.00918057 0 -0.0326907 5.70959e-11 0 2.2661e-12 0 1.82799e-08
32 3 0.001 0.0091233 0 -0.0320625 -3.80863e-11 0 -8.77821e-12 0 1.81636e-08
33 3 0.001 0.00903671 0 -0.0314375 3.67782e-11 0 7.40455e-12 0 1.79711e-08
34 3 0.001 0.00892138 0 -0.0308173 -1.05885e-11 0 -6.2904e-12 0 1.76772e-08
35 3 0.001 0.00877808 0 -0.0302028 -1.06256e-12 0 -3.28915e-12 0 1.7313e-08
36 3 0.001 0.00860775 0 -0.0295953 3.9506e-11 0 4.03669e-12 0 1.6896e-08
37 3 0.001 0.00841148 0 -0.0289956 -1.71151e-11 0 -9.61543e-12 0 1.64365e-08
39 3 0.001 0.00794608 0 -0.0278227 1.73272e-11 0 -3.43435e-12 0 1.54329e-08
40 3 0.001 0.00767971 0 -0.0272506 2.00821e-11 0 -2.15543e-12 0 1.49105e-08
38 3 0.001 0.00819048 0 -0.0284045 3.07167e-11 0 4.77536e-12 0 1.59451e-08
43 3 0.001 0.00676389 0 -0.0255941 4.24137e-11 0 1.27792e-11 0 1.33812e-08
42 3 0.001 0.00708705 0 -0.0261363 3.34582e-11 0 2.24798e-12 0 1.38755e-08
41 3 0.001 0.00739285 0 -0.0266884 1.30241e-11 0 -2.09618e-12 0 1.43882e-08
45 3 0.001 0.00607187 0 -0.0245382 7.31379e-11 0 3.38103e-11 0 1.24773e-08
44 3 0.001 0.00642496 0 -0.0250615 -6.45325e-13 0 -2.46458e-11 0 1.2913e-08
48 3 0.001 0.0049435 0 -0.0230173 3.12167e-11 0 2.90291e-12 0 1.14176e-08
47 3 0.001 0.00532956 0 -0.0235169 6.22146e-11 0 2.02136e-11 0 1.17255e-08
46 3 0.001 0.0057062 0 -0.0240236 3.18897e-12 0 -2.36193e-11 0 1.208e-08
50 3 0.001 0.0041493 0 -0.0220355 5.89738e-11 0 1.95134e-11 0 1.09526e-08
49 3 0.001 0.00454957 0 -0.0225238 4.83304e-11 0 -8.97411e-13 0 1.11592e-08
51 3 0.001 0.00374417 0 -0.0215511 2.31519e-11 0 -1.65559e-11 0 1.07993e-08
54 3 0.001 0.00251453 0 -0.0201101 3.55369e-11 0 -3.83007e-12 0 1.06684e-08
53 3 0.001 0.00292532 0 -0.0205897 4.91469e-11 0 -4.99125e-12 0 1.06567e-08
52 3 0.001 0.00333569 0 -0.0210696 7.67108e-11 0 3.40073e-11 0 1.07005e-08
57 3 0.001 0.00129428 0 -0.0186612 6.62401e-11 0 4.81614e-12 0 1.10333e-08
56 3 0.001 0.00169754 0 -0.0191471 2.04795e-11 0 -1.50227e-11 0 1.08574e-08
58 3 0.001 0.000896492 0 -0.0181708 7.54845e-11 0 2.47244e-11 0 1.1262e-08
55 3 0.001 0.00210478 0 -0.0196296 9.00542e-11 0 3.3621e-11 0 1.07355e-08
60 3 0.001 0.000123418 0 -0.0171724 3.14174e-11 0 -1.09135e-11 0 1.18695e-08
59 3 0.001 0.000505695 0 -0.0176749 4.74399e-11 0 -7.12681e-12 0 1.15416e-08
62 3 0.001 -0.000609339 0 -0.0161442 1.45695e-11 0 -3.93684e-11 0 1.26567e-08
61 3 0.001 -0.000248784 0 -0.0166624 1.02779e-10 0 3.70863e-11 0 1.22426e-08
63 3 0.001 -0.000956653 0 -0.0156171 8.72775e-11 0 2.96904e-11 0 1.31069e-08
65 3 0.001 -0.00160516 0 -0.0145341 4.57496e-11 0 -7.73632e-12 0 1.409e-08
66 3 0.001 -0.00190316 0 -0.0139777 7.70955e-11 0 8.33846e-12 0 1.46079e-08
64 3 0.001 -0.00128913 0 -0.0150805 4.34254e-11 0 -6.65978e-12 0 1.3587e-08
69 3 0.001 -0.00267354 0 -0.0122493 4.8676e-11 0 -5.66748e-12 0 1.61556e-08
67 3 0.001 -0.00218156 0 -0.0134114 3.51712e-11 0 -7.0814e-12 0 1.51314e-08
68 3 0.001 -0.00243884 0 -0.0128351 6.91344e-11 0 1.12671e-12 0 1.56508e-08
71 3 0.001 -0.00306973 0 -0.0110514 3.84677e-11 0 -6.83765e-12 0 1.70778e-08
70 3 0.001 -0.00288426 0 -0.0116545 6.85904e-11 0 3.21748e-12 0 1.66349e-08
72 3 0.001 -0.00322878 0 -0.0104409 6.44471e-11 0 3.11583e-12 0 1.74737e-08
73 3 0.001 -0.00336038 0 -0.00982383 6.58597e-11 0 -3.37054e-12 0 1.78128e-08
75 3 0.001 -0.00353796 0 -0.00857495 8.51683e-11 0 8.43224e-13 0 1.82874e-08
74 3 0.001 -0.00346367 0 -0.00920144 3.0269e-11 0 -6.3433e-12 0 1.80865e-08
76 3 0.001 -0.00358274 0 -0.00794567 4.2579e-11 0 -1.32802e-12 0 1.84102e-08
77 3 0.001 -0.0035977 0 -0.00731498 7.94937e-11 0 -6.88264e-12 0 1.84516e-08
78 3 0.001 -0.00358274 0 -0.00668429 4.76397e-12 0 8.14335e-12 0 1.84103e-08
79 3 0.001 -0.00353797 0 -0.00605501 1.1201e-10 0 -7.08297e-12 0 1.82875e-08
80 3 0.001 -0.00346368 0 -0.00542852 1.67816e-11 0 -7.00572e-13 0 1.80866e-08
81 3 0.001 -0.0033604 0 -0.00480613 8.52435e-11 0 -7.80323e-12 0 1.78129e-08
82 3 0.001 -0.0032288 0 -0.00418909 4.74153e-11 0 4.29905e-12 0 1.74738e-08
83 3 0.001 -0.00306975 0 -0.00357852 3.71946e-11 0 1.33794e-13 0 1.70779e-08
84 3 0.001 -0.00288429 0 -0.00297542 7.99415e-11 0 -7.59813e-12 0 1.6635e-08
85 3 0.001 -0.00267356 0 -0.00238063 4.67204e-11 0 -9.83015e-13 0 1.61558e-08
86 3 0.001 -0.00243887 0 -0.00179486 4.59455e-11 0 2.75332e-12 0 1.5651e-08
87 3 0.001 -0.0021816 0 -0.0012186 7.66458e-11 0 -1.09011e-11 0 1.51316e-08
88 3 0.001 -0.0019032 0 -0.000652205 3.00865e-11 0 8.84574e-12 0 1.4608e-08
89 3 0.001 -0.0016052 0 -9.58256e-05 7.76178e-11 0 -1.60293e-11 0 1.40902e-08
90 3 0.001 -0.00128917 0 0.000450558 3.44604e-11 0 8.77228e-12 0 1.35872e-08
91 3 0.001 -0.000956697 0 0.00098714 6.56756e-11 0 -9.52066e-12 0 1.31071e-08
92 3 0.001 -0.000609383 0 0.00151428 5.21733e-11 0 -2.04856e-12 0 1.26569e-08
93 3 0.001 -0.00024883 0 0.0020325 5.24017e-11 0 -5.61754e-12 0 1.22428e-08
94 3 0.001 0.000123372 0 0.00254246 6.04733e-11 0 -5.45196e-12 0 1.18697e-08
95 3 0.001 0.000505648 0 0.00304494 3.72479e-11 0 4.29375e-12 0 1.15418e-08
96 3 0.001 0.000896444 0 0.00354086 6.85528e-11 0 -2.24162e-11 0 1.12622e-08
97 3 0.001 0.00129423 0 0.00403123 3.97127e-11 0 1.00295e-11 0 1.10335e-08
98 3 0.001 0.00169749 0 0.00451712 8.45101e-11 0 -3.65077e-11 0 1.08575e-08
99 3 0.001 0.00210473 0 0.00499969 -4.44076e-12 0 3.83386e-11 0 1.07356e-08
100 3 0.001 0.00251448 0 0.00548015 1.07433e-10 0 -5.86159e-11 0 1.06686e-08
101 3 0.001 0.00292528 0 0.00595972 -6.76997e-13 0 4.30757e-11 0 1.06569e-08
102 3 0.001 0.00333565 0 0.00643966 9.96139e-11 0 -5.84984e-11 0 1.07006e-08
103 3 0.001 0.00374413 0 0.00692119 5.9905e-12 0 2.40112e-11 0 1.07995e-08
104 3 0.001 0.00414925 0 0.00740554 5.28271e-11 0 -6.3823e-12 0 1.09528e-08
105 3 0.001 0.00454953 0 0.00789387 6.49554e-11 0 -3.15392e-11 0 1.11594e-08
106 3 0.001 0.00494346 0 0.00838732 1.66735e-11 0 1.56533e-11 0 1.14178e-08
107 3 0.001 0.00532952 0 0.00888692 4.50868e-11 0 -1.11346e-11 0 1.17257e-08
108 3 0.001 0.00570617 0 0.00939362 5.08768e-11 0 -1.67973e-11 0 1.20801e-08
109 3 0.001 0.00607183 0 0.00990826 8.8468e-12 0 8.18023e-12 0 1.24775e-08
110 3 0.001 0.00642493 0 0.0104316 5.96243e-11 0 -1.63815e-11 0 1.29131e-08
111 3 0.001 0.00676386 0 0.0109641 5.54591e-13 0 1.08694e-11 0 1.33814e-08
112 3 0.001 0.00708703 0 0.0115063 5.99608e-11 0 -2.46734e-11 0 1.38757e-08
113 3 0.001 0.00739283 0 0.0120585 -1.81811e-11 0 2.40937e-11 0 1.43884e-08
114 3 0.001 0.00767969 0 0.0126206 7.3154e-11 0 -3.07422e-11 0 1.49107e-08
115 3 0.001 0.00794606 0 0.0131928 -3.14189e-11 0 2.01416e-11 0 1.54331e-08
116 3 0.001 0.00819046 0 0.0137746 4.86387e-11 0 -1.19448e-11 0 1.59454e-08
117 3 0.001 0.00841146 0 0.0143656 7.55428e-12 0 -1.06594e-12 0 1.64368e-08
118 3 0.001 0.00860774 0 0.0149653 3.55859e-12 0 4.29886e-12 0 1.68963e-08
119 3 0.001 0.00877807 0 0.0155729 3.42829e-11 0 -1.13959e-11 0 1.73133e-08
120 3 0.001 0.00892137 0 0.0161873 -4.35593e-11 0 1.12106e-11 0 1.76776e-08
121 3 0.001 0.0090367 0 0.0168076 7.25146e-11 0 -1.09097e-11 0 1.79715e-08
122 3 0.001 0.0091233 0 0.0174325 -5.45004e-11 0 4.86309e-12 0 1.8164e-08
123 3 0.001 0.00918057 0 0.0180608 4.47462e-11 0 -5.43606e-12 0 1.82803e-08
124 3 0.001 0.00920805 0 0.018691 -1.7723e-11 0 -2.60484e-13 0 1.84044e-08
125 3 0.001 0.00920537 0 0.0193219 1.02099e-12 0 -3.89865e-13 0 1.85904e-08
126 3 0.001 0.00917224 0 0.0199519 9.579e-12 0 -4.86262e-13 0 1.88323e-08
127 3 0.001 0.00910846 0 0.0205795 -1.34245e-11 0 -4.58747e-12 0 1.90622e-08
128 3 0.001 0.00901393 0 0.0212032 3.36613e-11 0 6.70478e-12 0 1.91868e-08
129 3 0.001 0.00888875 0 0.0218214 -5.91269e-11 0 -1.958e-11 0 1.91872e-08
130 3 0.001 0.00873322 0 0.0224328 4.21824e-11 0 1.32698e-11 0 1.90925e-08
131 3 0.001 0.00854787 0 0.0230358 -2.80348e-12 0 -3.96576e-12 0 1.89077e-08
132 3 0.001 0.00833342 0 0.023629 -2.04658e-11 0 -7.42307e-12 0 1.86381e-08
133 3 0.001 0.00809077 0 0.0242114 2.85667e-12 0 -5.29863e-13 0 1.8291e-08
134 3 0.001 0.00782103 0 0.0247817 1.13611e-11 0 -1.97166e-12 0 1.78758e-08
137 3 0.001 0.00686207 0 0.0264123 1.57049e-11 0 1.30731e-11 0 1.63352e-08
135 3 0.001 0.00752541 0 0.0253391 -1.33453e-11 0 -5.01653e-14 0 1.74035e-08
136 3 0.001 0.00720527 0 0.0258828 -1.24873e-12 0 -4.98926e-12 0 1.68858e-08
138 3 0.001 0.00649733 0 0.0269272 -3.01409e-11 0 -2.6819e-11 0 1.57641e-08
139 3 0.001 0.00611265 0 0.0274275 3.00777e-11 0 1.90732e-11 0 1.51846e-08
140 3 0.001 0.00570962 0 0.0279132 -2.09844e-11 0 -1.23605e-11 0 1.46084e-08
141 3 0.001 0.00528988 0 0.0283845 7.6553e-12 0 6.21095e-12 0 1.40459e-08
142 3 0.001 0.00485501 0 0.028842 1.31979e-12 0 3.10305e-12 0 1.35066e-08
143 3 0.001 0.00440662 0 0.0292863 -8.66543e-12 0 -1.22295e-11 0 1.29987e-08
145 3 0.001 0.00347539 0 0.0301388 -4.96306e-12 0 -1.26581e-11 0 1.2104e-08
146 3 0.001 0.00299552 0 0.0305491 -1.54746e-12 0 8.14062e-12 0 1.17279e-08
147 3 0.001 0.00250803 0 0.0309503 -6.63638e-12 0 -8.32931e-12 0 1.14043e-08
144 3 0.001 0.00394625 0 0.0297183 9.77649e-12 0 1.161e-11 0 1.25292e-08
151 3 0.001 0.000507792 0 0.0324935 -1.27529e-11 0 -2.12313e-11 0 4.26053e-09
148 3 0.001 0.00201427 0 0.0313439 2.07388e-11 0 1.71726e-11 0 1.11363e-08
149 3 0.001 0.00151557 0 0.0317312 -3.02813e-11 0 -3.47644e-11 0 1.07277e-08
150 3 0.001 0.00101316 0 0.0321137 2.70173e-11 0 3.7313e-11 0 7.36904e-09
2 2 0.001 0 0 0.03287 -0.00301414 0 0.0149627 0 2.11098e-09
