ITEM: TIMESTEP
6100000
ITEM: NUMBER OF ATOMS
151
ITEM: BOX BOUNDS ff ff ff
-1.0000000000000000e-02 1.0000000000000000e-02
-6.0000000000000001e-03 6.0000000000000001e-03
-5.2499999999999998e-02 5.2499999999999998e-02
ITEM: ATOMS id type radius x y z fx fy fz c_bendingE c_stretchingE
1 1 0.001 0 0 -0.0475 -0.00434234 0 -0.0155838 0 3.29759e-09
3 3 0.001 0.000493303 0 -0.0471052 -3.55731e-12 0 1.22772e-11 0 6.63629e-09
4 3 0.001 0.00098426 0 -0.0467074 2.95548e-11 0 -3.87644e-11 0 1.03333e-08
5 3 0.001 0.00147235 0 -0.0463072 -8.03275e-12 0 8.61406e-12 0 1.43102e-08
6 3 0.001 0.00195687 0 -0.0459028 5.46768e-11 0 -6.25968e-11 0 1.47482e-08
7 3 0.001 0.00243663 0 -0.0454927 1.49606e-11 0 -3.36248e-11 0 1.5009e-08
8 3 0.001 0.00291039 0 -0.0450758 2.72664e-11 0 -3.4374e-11 0 1.53215e-08
9 3 0.001 0.00337687 0 -0.0446508 1.88439e-11 0 -2.637e-11 0 1.56819e-08
10 3 0.001 0.00383478 0 -0.0442166 9.26657e-11 0 -1.05615e-10 0 1.60851e-08
11 3 0.001 0.00428277 0 -0.0437722 7.1719e-12 0 -9.88684e-12 0 1.65255e-08
12 3 0.001 0.00471948 0 -0.0433167 1.01463e-10 0 -1.15656e-10 0 1.6996e-08
13 3 0.001 0.00514353 0 -0.0428495 -3.69399e-11 0 1.78844e-11 0 1.74888e-08
14 3 0.001 0.0055535 0 -0.04237 1.84831e-10 0 -1.83423e-10 0 1.79952e-08
15 3 0.001 0.005948 0 -0.0418776 -5.41051e-11 0 1.45713e-11 0 1.85053e-08
16 3 0.001 0.00632562 0 -0.0413723 1.16039e-10 0 -1.08304e-10 0 1.90089e-08
17 3 0.001 0.00668499 0 -0.0408539 4.26244e-11 0 -4.48731e-11 0 1.94951e-08
18 3 0.001 0.00702477 0 -0.0403224 1.23894e-10 0 -1.19289e-10 0 1.9953e-08
19 3 0.001 0.00734368 0 -0.0397782 -8.64469e-11 0 4.51814e-12 0 2.03717e-08
20 3 0.001 0.00764055 0 -0.0392217 1.72584e-10 0 -1.30208e-10 0 2.07409e-08
21 3 0.001 0.00791427 0 -0.0386535 -2.03129e-12 0 -3.59333e-11 0 2.10512e-08
22 3 0.001 0.00816386 0 -0.0380743 8.31594e-11 0 -7.76158e-11 0 2.12944e-08
23 3 0.001 0.00838849 0 -0.037485 -9.45949e-11 0 -1.49989e-11 0 2.14641e-08
24 3 0.001 0.00858747 0 -0.0368865 1.92693e-10 0 -1.03368e-10 0 2.15557e-08
25 3 0.001 0.00876028 0 -0.03628 -6.95381e-11 0 -3.10494e-11 0 2.15665e-08
26 3 0.001 0.00890658 0 -0.0356665 -2.0326e-11 0 -5.95686e-11 0 2.14964e-08
27 3 0.001 0.00902621 0 -0.0350473 8.95399e-11 0 -6.16925e-11 0 2.13414e-08
28 3 0.001 0.00911921 0 -0.0344235 1.39176e-11 0 -5.1212e-11 0 2.10724e-08
29 3 0.001 0.00918578 0 -0.0337963 -1.64128e-10 0 -2.77776e-11 0 2.071e-08
30 3 0.001 0.00922627 0 -0.0331669 2.10816e-10 0 -7.54977e-11 0 2.03477e-08
31 3 0.001 0.00924109 0 -0.0325363 -1.4632e-10 0 -4.18372e-11 0 2.00611e-08
32 3 0.001 0.00923066 0 -0.0319057 -9.84664e-12 0 -6.51321e-11 0 1.98787e-08
33 3 0.001 0.00919542 0 -0.0312759 4.22994e-11 0 -4.7232e-11 0 1.97778e-08
34 3 0.001 0.00913581 0 -0.0306479 -7.3614e-11 0 -5.5096e-11 0 1.96946e-08
35 3 0.001 0.00905227 0 -0.0300227 4.64172e-11 0 -3.97514e-11 0 1.95496e-08
36 3 0.001 0.00894535 0 -0.029401 -9.0244e-11 0 -7.32962e-11 0 1.93166e-08
37 3 0.001 0.00881571 0 -0.0287836 -7.51342e-12 0 -6.51675e-11 0 1.90262e-08
38 3 0.001 0.00866413 0 -0.0281713 7.20922e-11 0 -2.89357e-11 0 1.86994e-08
39 3 0.001 0.00849151 0 -0.0275645 -1.41831e-10 0 -1.0142e-10 0 1.83438e-08
42 3 0.001 0.00785788 0 -0.0257816 -1.09206e-10 0 -1.0667e-10 0 1.71829e-08
41 3 0.001 0.00808725 0 -0.0263694 -5.57423e-12 0 -6.44004e-11 0 1.75775e-08
40 3 0.001 0.00829885 0 -0.0269638 8.55586e-11 0 -1.09787e-11 0 1.79671e-08
44 3 0.001 0.0073508 0 -0.0246261 2.45432e-11 0 -4.17641e-11 0 1.64087e-08
43 3 0.001 0.00761197 0 -0.0252005 1.25113e-10 0 -1.35625e-11 0 1.67908e-08
45 3 0.001 0.00707571 0 -0.0240582 -8.81216e-11 0 -9.79864e-11 0 1.60431e-08
47 3 0.001 0.00648916 0 -0.0229408 7.5963e-11 0 -3.81033e-11 0 1.53854e-08
46 3 0.001 0.00678803 0 -0.0234966 7.4796e-11 0 -3.21474e-11 0 1.57002e-08
49 3 0.001 0.00586335 0 -0.0218447 4.371e-11 0 -4.36858e-11 0 1.4858e-08
48 3 0.001 0.00618046 0 -0.0223903 -4.78134e-13 0 -6.95071e-11 0 1.51033e-08
50 3 0.001 0.00553922 0 -0.0213031 8.34128e-11 0 -2.63916e-11 0 1.46527e-08
52 3 0.001 0.00487549 0 -0.0202294 1.30895e-10 0 -1.40708e-12 0 1.4372e-08
53 3 0.001 0.00453869 0 -0.0196957 -2.99216e-11 0 -1.1206e-10 0 1.43001e-08
51 3 0.001 0.00520947 0 -0.020765 2.05272e-11 0 -6.72036e-11 0 1.449e-08
56 3 0.001 0.00352524 0 -0.0180962 5.36699e-11 0 -5.49725e-11 0 1.43665e-08
55 3 0.001 0.00386217 0 -0.0186299 2.66993e-11 0 -7.52711e-11 0 1.42973e-08
54 3 0.001 0.00420045 0 -0.0191628 1.97944e-10 0 4.31161e-11 0 1.42751e-08
58 3 0.001 0.00286103 0 -0.0170228 -1.93941e-12 0 -9.76683e-11 0 1.46419e-08
57 3 0.001 0.00319106 0 -0.0175608 1.98828e-10 0 3.65569e-11 0 1.44819e-08
61 3 0.001 0.00190974 0 -0.015386 1.7905e-10 0 9.59584e-12 0 1.5368e-08
60 3 0.001 0.00221897 0 -0.0159361 7.45324e-11 0 -5.35219e-11 0 1.50879e-08
59 3 0.001 0.00253653 0 -0.0164815 1.78052e-10 0 1.15148e-11 0 1.48448e-08
63 3 0.001 0.00132189 0 -0.0142692 2.89724e-10 0 5.52041e-11 0 1.60224e-08
62 3 0.001 0.00161025 0 -0.0148305 2.93256e-11 0 -6.78462e-11 0 1.5681e-08
64 3 0.001 0.00104602 0 -0.0137016 -5.60789e-11 0 -1.03306e-10 0 1.63868e-08
66 3 0.001 0.000537161 0 -0.0125469 4.12114e-11 0 -6.62661e-11 0 1.71598e-08
65 3 0.001 0.000783999 0 -0.0131276 3.49581e-10 0 7.49838e-11 0 1.67682e-08
68 3 0.001 9.41194e-05 0 -0.0113656 3.39526e-10 0 5.05444e-11 0 1.79447e-08
67 3 0.001 0.000306789 0 -0.0119596 1.55852e-10 0 -1.33534e-11 0 1.75545e-08
69 3 0.001 -9.96741e-05 0 -0.0107652 -4.07924e-11 0 -6.88324e-11 0 1.83223e-08
71 3 0.001 -0.00042633 0 -0.0095467 1.94263e-10 0 -6.78316e-12 0 1.90081e-08
70 3 0.001 -0.000273493 0 -0.0101587 3.35702e-10 0 4.29053e-11 0 1.86794e-08
72 3 0.001 -0.000557276 0 -0.00892962 1.26907e-10 0 -1.56947e-11 0 1.93009e-08
73 3 0.001 -0.000665541 0 -0.00830818 2.69668e-10 0 5.94589e-12 0 1.95509e-08
74 3 0.001 -0.000750459 0 -0.00768314 1.55767e-10 0 -3.77778e-12 0 1.97521e-08
75 3 0.001 -0.0008115 0 -0.00705532 3.07181e-10 0 1.17912e-11 0 1.98995e-08
76 3 0.001 -0.000848282 0 -0.00642563 1.6639e-10 0 -1.60277e-12 0 1.99895e-08
77 3 0.001 -0.000860569 0 -0.00579498 2.09216e-10 0 5.10739e-12 0 2.00198e-08
78 3 0.001 -0.000848285 0 -0.00516434 2.46363e-10 0 -3.49072e-12 0 1.99895e-08
79 3 0.001 -0.000811508 0 -0.00453465 2.1171e-10 0 -3.2978e-14 0 1.98996e-08
80 3 0.001 -0.00075047 0 -0.00390683 2.14444e-10 0 -5.62136e-12 0 1.97521e-08
81 3 0.001 -0.000665556 0 -0.00328179 1.53143e-10 0 1.53101e-11 0 1.9551e-08
82 3 0.001 -0.000557294 0 -0.00266034 3.31865e-10 0 -1.66858e-11 0 1.9301e-08
83 3 0.001 -0.000426351 0 -0.00204327 5.13644e-11 0 3.1231e-11 0 1.90082e-08
84 3 0.001 -0.000273517 0 -0.00143122 2.91399e-10 0 -1.68323e-11 0 1.86795e-08
85 3 0.001 -9.9701e-05 0 -0.000824774 1.4661e-10 0 2.15799e-12 0 1.83224e-08
86 3 0.001 9.40897e-05 0 -0.000224387 1.28779e-10 0 2.5603e-11 0 1.79448e-08
87 3 0.001 0.000306757 0 0.000369603 2.18491e-10 0 -3.11078e-12 0 1.75547e-08
88 3 0.001 0.000537127 0 0.000956983 1.90341e-10 0 3.94706e-12 0 1.716e-08
89 3 0.001 0.000783963 0 0.00153767 4.73818e-11 0 5.43121e-11 0 1.67684e-08
90 3 0.001 0.00104598 0 0.00211169 1.9238e-10 0 -6.48164e-12 0 1.6387e-08
91 3 0.001 0.00132185 0 0.00267921 1.58348e-10 0 5.35963e-12 0 1.60226e-08
92 3 0.001 0.00161021 0 0.00324052 1.43454e-10 0 1.78587e-11 0 1.56812e-08
93 3 0.001 0.0019097 0 0.003796 5.56237e-11 0 6.39267e-11 0 1.53682e-08
94 3 0.001 0.00221892 0 0.00434615 2.04931e-10 0 -2.10106e-11 0 1.50881e-08
95 3 0.001 0.00253648 0 0.00489154 3.15363e-11 0 6.82745e-11 0 1.4845e-08
96 3 0.001 0.00286098 0 0.00543286 1.80444e-10 0 -1.14339e-11 0 1.46421e-08
97 3 0.001 0.00319102 0 0.00597083 6.83256e-11 0 4.68936e-11 0 1.4482e-08
98 3 0.001 0.0035252 0 0.00650626 7.8212e-11 0 5.81842e-11 0 1.43667e-08
99 3 0.001 0.00386213 0 0.00703996 1.68059e-10 0 -2.15773e-11 0 1.42975e-08
100 3 0.001 0.0042004 0 0.00757282 -1.66005e-11 0 9.93367e-11 0 1.42753e-08
101 3 0.001 0.00453864 0 0.0081057 1.39966e-10 0 -6.73892e-12 0 1.43003e-08
102 3 0.001 0.00487545 0 0.00863948 6.46957e-11 0 5.82134e-11 0 1.43722e-08
103 3 0.001 0.00520943 0 0.00917503 7.18797e-11 0 4.05574e-11 0 1.44902e-08
104 3 0.001 0.00553918 0 0.00971318 5.23402e-11 0 4.14157e-11 0 1.46528e-08
105 3 0.001 0.00586331 0 0.0102547 5.15281e-11 0 4.93588e-11 0 1.48582e-08
106 3 0.001 0.00618043 0 0.0108004 5.31183e-11 0 3.73331e-11 0 1.51035e-08
107 3 0.001 0.00648912 0 0.0113508 4.24152e-11 0 6.39398e-11 0 1.53856e-08
108 3 0.001 0.006788 0 0.0119066 -2.11335e-12 0 6.71794e-11 0 1.57005e-08
109 3 0.001 0.00707568 0 0.0124683 9.22452e-11 0 1.84021e-11 0 1.60434e-08
110 3 0.001 0.00735078 0 0.0130362 -5.14343e-12 0 6.38944e-11 0 1.64089e-08
111 3 0.001 0.00761194 0 0.0136106 -9.80259e-12 0 6.70944e-11 0 1.67911e-08
112 3 0.001 0.00785786 0 0.0141917 1.92819e-11 0 5.30983e-11 0 1.71831e-08
113 3 0.001 0.00808723 0 0.0147794 6.94536e-12 0 6.05479e-11 0 1.75778e-08
114 3 0.001 0.00829883 0 0.0153738 2.06869e-11 0 4.70225e-11 0 1.79674e-08
115 3 0.001 0.00849149 0 0.0159745 -5.02221e-11 0 7.23388e-11 0 1.83441e-08
116 3 0.001 0.00866411 0 0.0165813 1.78259e-11 0 4.33542e-11 0 1.86997e-08
117 3 0.001 0.0088157 0 0.0171937 -4.31244e-11 0 7.30161e-11 0 1.90265e-08
118 3 0.001 0.00894534 0 0.017811 4.26472e-11 0 4.47972e-11 0 1.9317e-08
119 3 0.001 0.00905226 0 0.0184327 -4.29389e-11 0 6.62319e-11 0 1.955e-08
120 3 0.001 0.0091358 0 0.0190579 -7.42374e-11 0 5.32628e-11 0 1.9695e-08
121 3 0.001 0.00919543 0 0.0196859 8.19562e-11 0 3.85452e-11 0 1.97782e-08
122 3 0.001 0.00923066 0 0.0203157 -4.62525e-11 0 7.00048e-11 0 1.98791e-08
123 3 0.001 0.00924109 0 0.0209464 -4.0582e-11 0 5.61107e-11 0 2.00615e-08
124 3 0.001 0.00922628 0 0.0215769 1.84854e-11 0 4.88608e-11 0 2.03481e-08
125 3 0.001 0.00918579 0 0.0222064 2.74722e-11 0 5.10431e-11 0 2.07105e-08
126 3 0.001 0.00911922 0 0.0228336 -7.00558e-11 0 4.25092e-11 0 2.10729e-08
127 3 0.001 0.00902623 0 0.0234574 1.1071e-10 0 7.67735e-11 0 2.13419e-08
128 3 0.001 0.0089066 0 0.0240766 -6.63844e-11 0 3.90603e-11 0 2.1497e-08
129 3 0.001 0.0087603 0 0.02469 2.02178e-11 0 5.00327e-11 0 2.15671e-08
131 3 0.001 0.00838851 0 0.025895 -1.75323e-11 0 4.78173e-11 0 2.14648e-08
132 3 0.001 0.00816388 0 0.0264843 -4.79793e-11 0 1.62073e-11 0 2.12951e-08
130 3 0.001 0.00858749 0 0.0252966 1.08262e-10 0 8.26512e-11 0 2.15563e-08
133 3 0.001 0.00791429 0 0.0270635 2.56067e-10 0 1.66253e-10 0 2.10519e-08
134 3 0.001 0.00764058 0 0.0276318 -1.67613e-10 0 -5.0809e-11 0 2.07416e-08
135 3 0.001 0.00734371 0 0.0281883 2.27362e-10 0 1.70587e-10 0 2.03724e-08
137 3 0.001 0.00668501 0 0.0292639 1.43637e-10 0 1.18815e-10 0 1.94959e-08
138 3 0.001 0.00632565 0 0.0297823 6.22363e-11 0 7.48024e-11 0 1.90096e-08
136 3 0.001 0.00702479 0 0.0287324 -7.94664e-11 0 -8.90033e-12 0 1.99537e-08
141 3 0.001 0.00514355 0 0.0312595 8.35796e-11 0 9.74357e-11 0 1.74895e-08
139 3 0.001 0.00594803 0 0.0302877 1.39789e-11 0 2.39688e-11 0 1.8506e-08
140 3 0.001 0.00555353 0 0.03078 8.84925e-11 0 9.75496e-11 0 1.79958e-08
144 3 0.001 0.00383479 0 0.0326266 -1.55976e-11 0 -1.52159e-11 0 1.60857e-08
142 3 0.001 0.0047195 0 0.0317268 -1.46429e-11 0 2.15149e-12 0 1.69966e-08
143 3 0.001 0.00428279 0 0.0321822 1.24491e-10 0 1.28705e-10 0 1.65261e-08
145 3 0.001 0.00337689 0 0.0330608 7.98464e-11 0 9.79893e-11 0 1.56825e-08
146 3 0.001 0.0029104 0 0.0334858 1.489e-12 0 5.41682e-12 0 1.53221e-08
147 3 0.001 0.00243664 0 0.0339027 8.85638e-11 0 1.15455e-10 0 1.50095e-08
151 3 0.001 0.000493306 0 0.0355152 -1.03112e-11 0 -2.17116e-11 0 6.63666e-09
148 3 0.001 0.00195688 0 0.0343128 -6.87331e-11 0 -8.90983e-11 0 1.47487e-08
149 3 0.001 0.00147236 0 0.0347172 6.51067e-11 0 7.6269e-11 0 1.43107e-08
150 3 0.001 0.000984265 0 0.0351174 1.73992e-11 0 3.54459e-11 0 1.03338e-08
2 2 0.001 0 0 0.03591 -0.00434251 0 0.0155841 0 3.29778e-09
