ITEM: TIMESTEP
9600000
ITEM: NUMBER OF ATOMS
151
ITEM: BOX BOUNDS ff ff ff
-1.0000000000000000e-02 1.0000000000000000e-02
-6.0000000000000001e-03 6.0000000000000001e-03
-5.2499999999999998e-02 5.2499999999999998e-02
ITEM: ATOMS id type radius x y z fx fy fz c_bendingE c_stretchingE
1 1 0.001 0 0 -0.0475 -0.00164576 0 -0.0145802 0 1.21954e-09
3 3 0.001 0.00052138 0 -0.047142 3.08945e-12 0 1.68608e-11 0 2.47368e-09
4 3 0.001 0.00104026 0 -0.0467805 1.99884e-11 0 -3.96694e-11 0 5.01695e-09
5 3 0.001 0.00155608 0 -0.0464157 -7.66233e-11 0 1.13189e-10 0 7.78339e-09
6 3 0.001 0.00206805 0 -0.0460457 1.3609e-10 0 -1.94706e-10 0 8.16269e-09
7 3 0.001 0.00257488 0 -0.0456686 -1.39025e-10 0 1.86632e-10 0 8.43569e-09
8 3 0.001 0.00307516 0 -0.045283 6.12567e-11 0 -7.97652e-11 0 8.76806e-09
9 3 0.001 0.00356746 0 -0.0448873 2.07063e-11 0 -2.26183e-11 0 9.15842e-09
10 3 0.001 0.00405025 0 -0.0444801 -5.41717e-11 0 6.54428e-11 0 9.60464e-09
11 3 0.001 0.00452193 0 -0.0440602 4.05892e-11 0 -4.1446e-11 0 1.01036e-08
12 3 0.001 0.00498085 0 -0.0436264 -4.13818e-11 0 3.81104e-11 0 1.06509e-08
13 3 0.001 0.00542527 0 -0.0431779 2.81753e-11 0 -3.38048e-11 0 1.12407e-08
14 3 0.001 0.00585339 0 -0.0427138 -9.71831e-12 0 1.50161e-11 0 1.18658e-08
15 3 0.001 0.00626337 0 -0.0422337 8.06709e-12 0 -3.64042e-12 0 1.25173e-08
16 3 0.001 0.00665335 0 -0.0417373 -5.27859e-11 0 5.03841e-11 0 1.31844e-08
17 3 0.001 0.00702143 0 -0.0412245 1.13885e-10 0 -8.65355e-11 0 1.3855e-08
18 3 0.001 0.00736575 0 -0.0406955 -1.70384e-10 0 1.08937e-10 0 1.45156e-08
19 3 0.001 0.00768447 0 -0.0401508 1.83524e-10 0 -1.03765e-10 0 1.51519e-08
20 3 0.001 0.00797584 0 -0.039591 -1.71389e-10 0 8.0848e-11 0 1.57486e-08
21 3 0.001 0.00823822 0 -0.0390171 8.22539e-11 0 -2.40171e-11 0 1.62908e-08
22 3 0.001 0.00847007 0 -0.0384303 -1.16984e-11 0 1.15494e-11 0 1.67641e-08
23 3 0.001 0.00867005 0 -0.0378318 -8.9384e-12 0 4.2804e-12 0 1.71552e-08
24 3 0.001 0.00883701 0 -0.0372234 -1.41893e-11 0 -2.41427e-12 0 1.74529e-08
25 3 0.001 0.00897001 0 -0.0366066 6.98789e-11 0 -7.3697e-12 0 1.76483e-08
26 3 0.001 0.00906836 0 -0.0359834 -1.3783e-10 0 1.92025e-11 0 1.77201e-08
27 3 0.001 0.00913163 0 -0.0353557 8.07159e-11 0 -4.39378e-13 0 1.76714e-08
28 3 0.001 0.00915964 0 -0.0347254 -1.40749e-11 0 1.06927e-11 0 1.75652e-08
29 3 0.001 0.00915238 0 -0.0340945 6.0217e-11 0 3.5055e-12 0 1.74558e-08
30 3 0.001 0.00911008 0 -0.033465 -1.65114e-10 0 -1.51955e-11 0 1.73303e-08
31 3 0.001 0.00903309 0 -0.0328387 7.73166e-11 0 6.44785e-12 0 1.71224e-08
32 3 0.001 0.00892202 0 -0.0322176 6.8558e-11 0 1.95027e-11 0 1.68004e-08
33 3 0.001 0.00877768 0 -0.0316034 -1.50293e-11 0 1.9863e-11 0 1.63858e-08
35 3 0.001 0.00839357 0 -0.0304016 3.2262e-10 0 1.20209e-10 0 1.53455e-08
34 3 0.001 0.00860111 0 -0.0309976 -2.33663e-10 0 -8.36068e-11 0 1.58964e-08
37 3 0.001 0.00789138 0 -0.0292439 -3.75032e-11 0 -2.49397e-11 0 1.41165e-08
36 3 0.001 0.00815647 0 -0.0298167 -1.69327e-10 0 -6.15908e-11 0 1.47474e-08
38 3 0.001 0.00759999 0 -0.028684 1.11219e-10 0 6.73986e-11 0 1.34673e-08
41 3 0.001 0.00658599 0 -0.0270857 -1.12405e-10 0 -7.80042e-11 0 1.15408e-08
39 3 0.001 0.00728408 0 -0.0281375 -1.41982e-10 0 -9.02963e-11 0 1.28135e-08
40 3 0.001 0.00694545 0 -0.0276047 1.57987e-10 0 1.14965e-10 0 1.21676e-08
43 3 0.001 0.00581202 0 -0.026088 1.02461e-11 0 6.55927e-12 0 1.0382e-08
42 3 0.001 0.00620757 0 -0.0265802 3.23376e-11 0 1.87995e-11 0 1.09429e-08
44 3 0.001 0.0054012 0 -0.0256084 6.83278e-12 0 2.06993e-12 0 9.86455e-09
46 3 0.001 0.00454082 0 -0.0246837 -3.60997e-11 0 -2.71414e-11 0 8.97956e-09
45 3 0.001 0.00497689 0 -0.0251406 -1.07636e-11 0 -1.19618e-11 0 9.39581e-09
47 3 0.001 0.00409469 0 -0.0242366 1.22168e-10 0 1.13345e-10 0 8.61854e-09
51 3 0.001 0.00224139 0 -0.0225194 -1.01271e-10 0 -1.15953e-10 0 7.75461e-09
49 3 0.001 0.0031787 0 -0.0233666 1.363e-10 0 1.43365e-10 0 8.06892e-09
50 3 0.001 0.00271196 0 -0.0229409 -2.14373e-12 0 -9.00274e-12 0 7.88214e-09
48 3 0.001 0.00364012 0 -0.023798 -1.55069e-10 0 -1.78752e-10 0 8.31461e-09
53 3 0.001 0.00129459 0 -0.0216828 -6.95816e-11 0 -9.47305e-11 0 7.67784e-09
52 3 0.001 0.00176845 0 -0.0221006 1.27436e-10 0 1.33844e-10 0 7.68649e-09
54 3 0.001 0.000821228 0 -0.0212644 6.66035e-11 0 4.83672e-11 0 7.72865e-09
58 3 0.001 -0.00103804 0 -0.0195536 1.00337e-10 0 8.97378e-11 0 8.52411e-09
56 3 0.001 -0.000118191 0 -0.0204196 2.12356e-11 0 3.57098e-11 0 8.00844e-09
57 3 0.001 -0.000581316 0 -0.0199899 -4.39502e-11 0 -7.05274e-11 0 8.23703e-09
55 3 0.001 0.000349817 0 -0.0208439 -1.33736e-11 0 -2.77066e-11 0 7.83889e-09
61 3 0.001 -0.00235387 0 -0.0181906 4.82399e-11 0 4.21601e-11 0 9.72287e-09
60 3 0.001 -0.00192596 0 -0.0186551 8.45504e-12 0 -1.60994e-11 0 9.26907e-09
59 3 0.001 -0.00148679 0 -0.0191091 -3.63028e-11 0 -5.28987e-11 0 8.86866e-09
63 3 0.001 -0.00316898 0 -0.0172261 9.31707e-11 0 5.24551e-11 0 1.07755e-08
62 3 0.001 -0.0027688 0 -0.0177146 -4.77727e-11 0 -4.97442e-11 0 1.02266e-08
64 3 0.001 -0.00355258 0 -0.0167245 -3.7189e-11 0 -5.38243e-11 0 1.13634e-08
66 3 0.001 -0.00426264 0 -0.0156807 2.88783e-11 0 1.11428e-11 0 1.26241e-08
65 3 0.001 -0.00391776 0 -0.0162095 4.0651e-11 0 2.55713e-11 0 1.19827e-08
67 3 0.001 -0.00458536 0 -0.0151381 1.57255e-11 0 9.70703e-12 0 1.32769e-08
68 3 0.001 -0.00488407 0 -0.0145821 -3.23074e-11 0 -3.24932e-11 0 1.39288e-08
69 3 0.001 -0.00515699 0 -0.014013 9.39993e-11 0 2.46536e-11 0 1.45665e-08
70 3 0.001 -0.0054024 0 -0.0134315 -8.87172e-11 0 -5.22223e-11 0 1.51757e-08
71 3 0.001 -0.00561871 0 -0.0128387 1.52682e-10 0 5.81948e-11 0 1.57418e-08
72 3 0.001 -0.00580443 0 -0.0122356 -7.45713e-11 0 -2.04698e-11 0 1.62505e-08
73 3 0.001 -0.00595827 0 -0.0116236 6.70005e-11 0 8.21573e-12 0 1.66882e-08
74 3 0.001 -0.00607912 0 -0.0110043 -4.32157e-11 0 -1.38133e-11 0 1.70427e-08
75 3 0.001 -0.0061661 0 -0.0103794 1.50301e-10 0 8.03023e-12 0 1.73037e-08
76 3 0.001 -0.00621855 0 -0.00975066 -1.46595e-10 0 -9.6052e-12 0 1.74635e-08
77 3 0.001 -0.00623608 0 -0.00911998 1.19402e-10 0 8.61156e-12 0 1.75173e-08
78 3 0.001 -0.00621855 0 -0.00848929 4.88439e-11 0 -3.46686e-12 0 1.74635e-08
79 3 0.001 -0.0061661 0 -0.00786054 -1.14563e-10 0 1.53089e-11 0 1.73037e-08
80 3 0.001 -0.00607913 0 -0.00723561 2.2971e-10 0 -3.31786e-11 0 1.70428e-08
81 3 0.001 -0.00595828 0 -0.00661632 -2.04688e-10 0 4.51253e-11 0 1.66883e-08
82 3 0.001 -0.00580445 0 -0.00600436 1.34282e-10 0 -3.09275e-11 0 1.62507e-08
83 3 0.001 -0.00561873 0 -0.00540127 4.07702e-11 0 -9.07868e-12 0 1.57419e-08
84 3 0.001 -0.00540243 0 -0.00480842 -4.63402e-11 0 2.7805e-11 0 1.51758e-08
85 3 0.001 -0.00515702 0 -0.00422697 7.14334e-11 0 -2.2357e-11 0 1.45666e-08
86 3 0.001 -0.0048841 0 -0.00365786 -2.22747e-11 0 2.76056e-11 0 1.3929e-08
87 3 0.001 -0.00458539 0 -0.0031018 9.32286e-11 0 -5.00142e-11 0 1.32771e-08
88 3 0.001 -0.00426268 0 -0.00255926 -1.10734e-10 0 7.71855e-11 0 1.26243e-08
89 3 0.001 -0.0039178 0 -0.00203046 9.78105e-11 0 -5.16364e-11 0 1.19829e-08
90 3 0.001 -0.00355263 0 -0.00151541 5.42442e-11 0 -2.29609e-11 0 1.13636e-08
91 3 0.001 -0.00316903 0 -0.00101387 -8.59456e-11 0 7.5896e-11 0 1.07756e-08
92 3 0.001 -0.00276885 0 -0.000525382 6.7074e-11 0 -4.13876e-11 0 1.02268e-08
93 3 0.001 -0.00235392 0 -4.93046e-05 1.19177e-10 0 -9.1628e-11 0 9.72304e-09
94 3 0.001 -0.00192601 0 0.0004152 -2.4642e-10 0 2.46971e-10 0 9.26923e-09
95 3 0.001 -0.00148684 0 0.000869135 2.97748e-10 0 -2.80499e-10 0 8.86882e-09
96 3 0.001 -0.00103808 0 0.00131365 -1.30787e-10 0 1.49481e-10 0 8.52426e-09
97 3 0.001 -0.000581363 0 0.00175001 -3.46032e-11 0 5.50908e-11 0 8.23718e-09
98 3 0.001 -0.000118239 0 0.00217962 1.36322e-10 0 -1.45702e-10 0 8.00858e-09
99 3 0.001 0.00034977 0 0.00260392 -7.14224e-11 0 9.72134e-11 0 7.83902e-09
100 3 0.001 0.000821181 0 0.00302447 4.2279e-11 0 -4.21495e-11 0 7.72877e-09
101 3 0.001 0.00129454 0 0.00344283 -2.10262e-11 0 3.81725e-11 0 7.67796e-09
102 3 0.001 0.00176841 0 0.00386062 3.89929e-11 0 -1.94206e-11 0 7.68661e-09
103 3 0.001 0.00224135 0 0.00427946 -1.92984e-11 0 1.98293e-11 0 7.75473e-09
104 3 0.001 0.00271192 0 0.00470093 5.67641e-11 0 -4.99467e-11 0 7.88225e-09
105 3 0.001 0.00317866 0 0.00512662 -2.25516e-11 0 2.24057e-11 0 8.06904e-09
106 3 0.001 0.00364008 0 0.00555804 -9.99922e-11 0 1.13054e-10 0 8.31473e-09
107 3 0.001 0.00409465 0 0.00599664 2.41013e-10 0 -2.35781e-10 0 8.61867e-09
108 3 0.001 0.00454078 0 0.00644377 -1.88076e-10 0 1.94167e-10 0 8.97969e-09
109 3 0.001 0.00497685 0 0.00690067 1.342e-11 0 -1.96197e-11 0 9.39594e-09
110 3 0.001 0.00540117 0 0.00736844 7.89502e-11 0 -6.82494e-11 0 9.86469e-09
111 3 0.001 0.00581199 0 0.00784805 1.91711e-11 0 -3.50601e-12 0 1.03821e-08
112 3 0.001 0.00620754 0 0.00834027 -1.52525e-10 0 1.117e-10 0 1.09431e-08
113 3 0.001 0.00658597 0 0.00884571 1.91315e-10 0 -1.48684e-10 0 1.1541e-08
114 3 0.001 0.00694543 0 0.00936474 -1.10904e-10 0 8.22637e-11 0 1.21678e-08
115 3 0.001 0.00728405 0 0.00989755 -1.74111e-11 0 6.07749e-12 0 1.28137e-08
116 3 0.001 0.00759998 0 0.0104441 9.49865e-11 0 -5.33679e-11 0 1.34676e-08
117 3 0.001 0.00789137 0 0.011004 -9.90335e-11 0 5.92235e-11 0 1.41168e-08
118 3 0.001 0.00815646 0 0.0115768 3.82591e-11 0 -2.90244e-11 0 1.47476e-08
119 3 0.001 0.00839356 0 0.0121616 -6.98261e-11 0 4.55055e-12 0 1.53458e-08
120 3 0.001 0.0086011 0 0.0127576 2.36958e-10 0 -6.40668e-11 0 1.58967e-08
121 3 0.001 0.00877767 0 0.0133634 -3.92292e-10 0 1.06365e-10 0 1.63861e-08
122 3 0.001 0.00892202 0 0.0139777 3.29649e-10 0 -7.94212e-11 0 1.68008e-08
123 3 0.001 0.0090331 0 0.0145988 -1.59167e-10 0 2.59152e-11 0 1.71228e-08
124 3 0.001 0.00911008 0 0.015225 1.83249e-11 0 -9.23175e-12 0 1.73307e-08
125 3 0.001 0.00915239 0 0.0158545 7.49385e-13 0 -9.78907e-12 0 1.74562e-08
126 3 0.001 0.00915965 0 0.0164854 2.51984e-11 0 3.93671e-12 0 1.75657e-08
127 3 0.001 0.00913165 0 0.0171157 -5.57232e-11 0 -6.59801e-12 0 1.76719e-08
128 3 0.001 0.00906838 0 0.0177434 2.11555e-11 0 -5.80023e-12 0 1.77206e-08
129 3 0.001 0.00897003 0 0.0183667 -4.73135e-12 0 -1.82205e-12 0 1.76489e-08
130 3 0.001 0.00883703 0 0.0189834 2.31894e-12 0 4.86436e-12 0 1.74535e-08
133 3 0.001 0.00823824 0 0.0207771 7.00953e-11 0 2.21945e-11 0 1.62915e-08
132 3 0.001 0.00847009 0 0.0201903 -4.18994e-11 0 -1.41113e-11 0 1.67647e-08
131 3 0.001 0.00867007 0 0.0195919 -8.33801e-12 0 -1.25461e-11 0 1.71558e-08
134 3 0.001 0.00797587 0 0.021351 1.78809e-11 0 4.73039e-12 0 1.57492e-08
135 3 0.001 0.0076845 0 0.0219108 -1.92068e-10 0 -1.02273e-10 0 1.51525e-08
136 3 0.001 0.00736577 0 0.0224556 2.17792e-10 0 1.35254e-10 0 1.45163e-08
138 3 0.001 0.00665337 0 0.0234973 -3.40019e-11 0 -4.3825e-11 0 1.31849e-08
137 3 0.001 0.00702146 0 0.0229845 -1.09766e-10 0 -6.92509e-11 0 1.38556e-08
142 3 0.001 0.00498087 0 0.0253865 -1.38147e-10 0 -1.33167e-10 0 1.06513e-08
139 3 0.001 0.0062634 0 0.0239937 1.48109e-10 0 1.23488e-10 0 1.25178e-08
140 3 0.001 0.00585341 0 0.0244738 -2.08112e-10 0 -1.84823e-10 0 1.18664e-08
141 3 0.001 0.00542529 0 0.0249379 1.98675e-10 0 1.98018e-10 0 1.12412e-08
145 3 0.001 0.00356747 0 0.0266474 -5.45402e-11 0 -5.70484e-11 0 9.15885e-09
143 3 0.001 0.00452195 0 0.0258202 5.772e-12 0 -1.94301e-11 0 1.0104e-08
144 3 0.001 0.00405026 0 0.0262402 7.88403e-11 0 8.91054e-11 0 9.60508e-09
148 3 0.001 0.00206806 0 0.0278057 1.11271e-10 0 1.41318e-10 0 8.16307e-09
149 3 0.001 0.00155608 0 0.0281757 -1.73274e-10 0 -2.55164e-10 0 7.78375e-09
146 3 0.001 0.00307518 0 0.0270431 -2.60078e-12 0 1.04476e-11 0 8.76846e-09
147 3 0.001 0.00257489 0 0.0274287 -2.62273e-11 0 -3.6975e-11 0 8.43608e-09
151 3 0.001 0.000521382 0 0.028902 -9.40583e-11 0 -1.06231e-10 0 2.47389e-09
2 2 0.001 0 0 0.02926 -0.00164593 0 0.0145805 0 1.21964e-09
150 3 0.001 0.00104026 0 0.0285405 1.62857e-10 0 2.35636e-10 0 5.01723e-09
