ITEM: TIMESTEP
9200000
ITEM: NUMBER OF ATOMS
151
ITEM: BOX BOUNDS ff ff ff
-1.0000000000000000e-02 1.0000000000000000e-02
-6.0000000000000001e-03 6.0000000000000001e-03
-5.2499999999999998e-02 5.2499999999999998e-02
ITEM: ATOMS id type radius x y z fx fy fz c_bendingE c_stretchingE
1 1 0.001 0 0 -0.0475 -0.00192238 0 -0.0146401 0 1.37599e-09
3 3 0.001 0.000518778 0 -0.0471384 -7.93429e-11 0 2.01568e-10 0 2.78754e-09
4 3 0.001 0.00103507 0 -0.0467732 6.62713e-11 0 -1.1044e-10 0 5.44233e-09
5 3 0.001 0.00154832 0 -0.046405 1.63655e-10 0 -2.47651e-10 0 8.32554e-09
6 3 0.001 0.00205776 0 -0.0460315 -4.34406e-10 0 5.71969e-10 0 8.71089e-09
7 3 0.001 0.00256208 0 -0.0456512 6.13333e-10 0 -8.20593e-10 0 8.98332e-09
8 3 0.001 0.00305993 0 -0.0452626 -5.65705e-10 0 7.58143e-10 0 9.31437e-09
9 3 0.001 0.00354986 0 -0.044864 -2.07936e-10 0 2.74916e-10 0 9.70236e-09
10 3 0.001 0.00403038 0 -0.0444542 1.29069e-09 0 -1.49737e-09 0 1.01448e-08
11 3 0.001 0.00449992 0 -0.044032 -1.8277e-09 0 1.93349e-09 0 1.06382e-08
12 3 0.001 0.00495686 0 -0.0435962 1.41281e-09 0 -1.40796e-09 0 1.11778e-08
13 3 0.001 0.0053995 0 -0.0431459 -9.26743e-10 0 9.09016e-10 0 1.17576e-08
14 3 0.001 0.00582609 0 -0.0426805 7.2309e-10 0 -6.52258e-10 0 1.237e-08
15 3 0.001 0.00623483 0 -0.0421994 -7.1183e-10 0 6.30591e-10 0 1.3006e-08
16 3 0.001 0.00662391 0 -0.0417024 5.61197e-10 0 -4.46763e-10 0 1.36549e-08
17 3 0.001 0.0069915 0 -0.0411893 -3.1055e-10 0 1.77698e-10 0 1.43047e-08
18 3 0.001 0.0073358 0 -0.0406603 2.54707e-11 0 5.93427e-11 0 1.49421e-08
19 3 0.001 0.00765502 0 -0.0401159 -1.58131e-10 0 1.07215e-10 0 1.55531e-08
20 3 0.001 0.00794749 0 -0.0395567 6.5619e-10 0 -3.25903e-10 0 1.61233e-08
21 3 0.001 0.00821161 0 -0.0389836 -8.3151e-10 0 3.69757e-10 0 1.66383e-08
22 3 0.001 0.00844592 0 -0.0383978 -2.16196e-10 0 2.30985e-11 0 1.70844e-08
23 3 0.001 0.00864913 0 -0.0378005 1.32992e-09 0 -3.50975e-10 0 1.74493e-08
24 3 0.001 0.00882012 0 -0.0371932 -1.13195e-09 0 3.97165e-10 0 1.77227e-08
25 3 0.001 0.00895802 0 -0.0365775 -1.12303e-10 0 -9.61855e-12 0 1.78964e-08
26 3 0.001 0.00906216 0 -0.0359553 8.79814e-10 0 -1.68541e-10 0 1.79504e-08
27 3 0.001 0.00913212 0 -0.0353283 -4.63445e-10 0 8.57823e-11 0 1.78814e-08
28 3 0.001 0.00916775 0 -0.0346983 -6.1605e-10 0 3.93576e-11 0 1.77497e-08
29 3 0.001 0.00916905 0 -0.0340674 1.39907e-09 0 4.62176e-11 0 1.76229e-08
30 3 0.001 0.0091362 0 -0.0334374 -1.65411e-09 0 -8.46903e-11 0 1.75054e-08
31 3 0.001 0.00906956 0 -0.03281 1.07855e-09 0 1.65472e-10 0 1.73383e-08
32 3 0.001 0.00896963 0 -0.032187 -2.53778e-10 0 -4.34797e-11 0 1.70638e-08
33 3 0.001 0.00883714 0 -0.0315701 1.7592e-11 0 5.48158e-11 0 1.66878e-08
34 3 0.001 0.00867305 0 -0.0309608 -2.70443e-10 0 -6.26742e-11 0 1.62373e-08
35 3 0.001 0.00847849 0 -0.0303605 3.27259e-10 0 6.42122e-11 0 1.57245e-08
37 3 0.001 0.0080034 0 -0.0291915 -5.34308e-11 0 6.94058e-11 0 1.45651e-08
36 3 0.001 0.00825478 0 -0.0297704 -2.29671e-10 0 -4.97623e-11 0 1.51625e-08
38 3 0.001 0.00772593 0 -0.0286246 3.34903e-10 0 2.06049e-10 0 1.3946e-08
39 3 0.001 0.00742406 0 -0.0280702 -7.7768e-10 0 -4.89791e-10 0 1.33183e-08
40 3 0.001 0.00709954 0 -0.0275288 6.70557e-10 0 4.4193e-10 0 1.26945e-08
43 3 0.001 0.00600807 0 -0.0259817 9.16813e-10 0 7.98183e-10 0 1.09508e-08
42 3 0.001 0.00638974 0 -0.0264847 -8.71687e-10 0 -6.27824e-10 0 1.15017e-08
41 3 0.001 0.00675416 0 -0.0270003 6.40826e-11 0 1.12336e-10 0 1.20857e-08
46 3 0.001 0.00477738 0 -0.024542 3.3871e-10 0 4.10039e-10 0 9.55958e-09
45 3 0.001 0.00520015 0 -0.0250112 1.89336e-10 0 1.47925e-10 0 9.97487e-09
47 3 0.001 0.00434432 0 -0.0240823 -5.05999e-10 0 -4.71939e-10 0 9.19738e-09
44 3 0.001 0.00561095 0 -0.0254908 -7.82009e-10 0 -6.57826e-10 0 1.044e-08
49 3 0.001 0.00345378 0 -0.0231864 -2.94721e-11 0 7.95977e-11 0 8.64057e-09
50 3 0.001 0.00299942 0 -0.0227476 2.2551e-10 0 2.52696e-10 0 8.4485e-09
48 3 0.001 0.00390259 0 -0.0236309 3.74986e-11 0 5.16227e-11 0 8.89052e-09
53 3 0.001 0.00161799 0 -0.0214504 -3.91017e-10 0 -3.9288e-10 0 8.22444e-09
52 3 0.001 0.00208006 0 -0.0218811 4.65163e-10 0 5.68844e-10 0 8.2402e-09
51 3 0.001 0.00254102 0 -0.022313 -6.61722e-10 0 -7.18064e-10 0 8.31494e-09
56 3 0.001 0.000239605 0 -0.02015 1.32597e-09 0 1.47791e-09 0 8.53077e-09
57 3 0.001 -0.000212355 0 -0.0197087 -1.03659e-09 0 -1.10115e-09 0 8.74991e-09
55 3 0.001 0.000696303 0 -0.0205863 -1.35524e-09 0 -1.34863e-09 0 8.36988e-09
54 3 0.001 0.00115625 0 -0.0210193 6.90059e-10 0 7.35869e-10 0 8.2677e-09
60 3 0.001 -0.00152442 0 -0.018342 -1.17587e-09 0 -1.05297e-09 0 9.7467e-09
59 3 0.001 -0.00109595 0 -0.018806 4.26312e-10 0 4.21468e-10 0 9.35942e-09
58 3 0.001 -0.000658059 0 -0.0192612 2.4755e-10 0 2.64836e-10 0 9.02654e-09
63 3 0.001 -0.0027366 0 -0.0168868 9.51033e-10 0 7.04951e-10 0 1.1203e-08
61 3 0.001 -0.00194183 0 -0.0178681 1.48012e-09 0 1.35566e-09 0 1.01857e-08
62 3 0.001 -0.00234647 0 -0.0173833 -1.49234e-09 0 -1.17993e-09 0 1.06727e-08
65 3 0.001 -0.00346623 0 -0.0158565 -1.03751e-09 0 -6.17859e-10 0 1.23669e-08
64 3 0.001 -0.00311046 0 -0.016378 -1.70742e-10 0 -1.37324e-10 0 1.17702e-08
66 3 0.001 -0.00380211 0 -0.0153219 1.68759e-09 0 9.95813e-10 0 1.29841e-08
68 3 0.001 -0.004407 0 -0.0142142 6.61391e-10 0 3.93497e-10 0 1.42364e-08
67 3 0.001 -0.00411629 0 -0.0147744 -1.41572e-09 0 -7.86065e-10 0 1.36111e-08
69 3 0.001 -0.00467252 0 -0.0136416 -3.74046e-10 0 -1.58085e-10 0 1.48471e-08
70 3 0.001 -0.00491119 0 -0.0130574 4.70757e-10 0 1.70569e-10 0 1.54297e-08
71 3 0.001 -0.00512149 0 -0.0124624 -1.08073e-09 0 -3.03953e-10 0 1.59705e-08
72 3 0.001 -0.005302 0 -0.0118578 1.33346e-09 0 2.90386e-10 0 1.64559e-08
73 3 0.001 -0.0054515 0 -0.0112447 -7.09239e-10 0 -2.28659e-10 0 1.68731e-08
74 3 0.001 -0.00556891 0 -0.0106248 -3.08792e-10 0 7.34253e-11 0 1.72107e-08
75 3 0.001 -0.0056534 0 -0.00999953 8.10048e-10 0 1.20519e-10 0 1.74591e-08
76 3 0.001 -0.00570435 0 -0.00937067 -7.16197e-10 0 -5.69996e-11 0 1.76111e-08
77 3 0.001 -0.00572138 0 -0.00873998 3.99511e-10 0 -8.30797e-12 0 1.76623e-08
78 3 0.001 -0.00570435 0 -0.00810929 -8.4668e-10 0 8.7975e-12 0 1.76112e-08
79 3 0.001 -0.00565341 0 -0.00748042 1.44878e-09 0 -1.95688e-10 0 1.74591e-08
80 3 0.001 -0.00556893 0 -0.00685516 -1.53676e-09 0 2.85505e-10 0 1.72107e-08
81 3 0.001 -0.00545151 0 -0.00623522 1.18618e-09 0 -1.99399e-10 0 1.68732e-08
82 3 0.001 -0.00530202 0 -0.0056222 -6.24896e-10 0 1.37973e-10 0 1.6456e-08
83 3 0.001 -0.00512151 0 -0.00501755 -4.31625e-10 0 1.45524e-10 0 1.59706e-08
84 3 0.001 -0.00491122 0 -0.00442256 1.23321e-09 0 -5.42664e-10 0 1.54299e-08
85 3 0.001 -0.00467255 0 -0.00383834 -1.18951e-09 0 4.74136e-10 0 1.48473e-08
86 3 0.001 -0.00440704 0 -0.00326576 2.96423e-10 0 -3.72483e-11 0 1.42366e-08
87 3 0.001 -0.00411633 0 -0.0027055 2.42697e-10 0 -1.21217e-10 0 1.36113e-08
88 3 0.001 -0.00380215 0 -0.002158 -5.53247e-11 0 -8.8291e-11 0 1.29843e-08
89 3 0.001 -0.00346627 0 -0.00162348 -2.14219e-10 0 1.28808e-10 0 1.23671e-08
90 3 0.001 -0.0031105 0 -0.00110193 -5.16874e-10 0 4.1823e-10 0 1.17704e-08
91 3 0.001 -0.00273665 0 -0.000593126 1.12976e-09 0 -9.04836e-10 0 1.12032e-08
92 3 0.001 -0.00234651 0 -9.66331e-05 -8.95729e-10 0 7.27746e-10 0 1.06729e-08
93 3 0.001 -0.00194187 0 0.00038817 5.79584e-11 0 -5.63286e-11 0 1.01859e-08
94 3 0.001 -0.00152447 0 0.000862082 5.31717e-10 0 -5.88417e-10 0 9.74687e-09
95 3 0.001 -0.001096 0 0.00132606 -1.14623e-09 0 1.07519e-09 0 9.35958e-09
96 3 0.001 -0.000658107 0 0.00178122 1.02774e-09 0 -9.5864e-10 0 9.02669e-09
97 3 0.001 -0.000212403 0 0.00222876 -3.88781e-10 0 3.3324e-10 0 8.75005e-09
98 3 0.001 0.000239557 0 0.00267002 -6.98363e-10 0 6.78495e-10 0 8.53091e-09
99 3 0.001 0.000696256 0 0.0031064 1.30945e-09 0 -1.42202e-09 0 8.37002e-09
100 3 0.001 0.0011562 0 0.00353937 -1.57334e-09 0 1.5967e-09 0 8.26783e-09
101 3 0.001 0.00161794 0 0.00397044 1.2048e-09 0 -1.29978e-09 0 8.22457e-09
102 3 0.001 0.00208002 0 0.00440116 -1.04948e-09 0 1.17111e-09 0 8.24032e-09
103 3 0.001 0.00254098 0 0.00483306 6.86918e-10 0 -8.20857e-10 0 8.31506e-09
104 3 0.001 0.00299938 0 0.00526766 -4.13979e-10 0 3.79293e-10 0 8.44863e-09
105 3 0.001 0.00345373 0 0.00570647 9.50348e-11 0 -1.38736e-10 0 8.64069e-09
106 3 0.001 0.00390255 0 0.00615091 -2.83289e-10 0 1.96106e-10 0 8.89065e-09
107 3 0.001 0.00434428 0 0.00660235 3.39366e-10 0 -3.04715e-10 0 9.19751e-09
108 3 0.001 0.00477734 0 0.00706207 -3.82154e-10 0 3.89575e-10 0 9.55972e-09
109 3 0.001 0.00520012 0 0.00753123 1.35829e-10 0 -2.02429e-10 0 9.97501e-09
110 3 0.001 0.00561092 0 0.00801084 -3.83229e-10 0 2.14411e-10 0 1.04402e-08
111 3 0.001 0.00600804 0 0.00850179 6.81497e-10 0 -5.15641e-10 0 1.0951e-08
112 3 0.001 0.00638971 0 0.00900479 -7.93612e-10 0 5.5961e-10 0 1.15019e-08
113 3 0.001 0.00675414 0 0.00952036 4.52536e-10 0 -3.60431e-10 0 1.20859e-08
114 3 0.001 0.00709952 0 0.0100488 -6.158e-10 0 3.87731e-10 0 1.26947e-08
115 3 0.001 0.00742404 0 0.0105903 1.02681e-09 0 -5.90395e-10 0 1.33186e-08
116 3 0.001 0.00772591 0 0.0111446 -1.06445e-09 0 5.05344e-10 0 1.39462e-08
117 3 0.001 0.00800338 0 0.0117115 2.52561e-10 0 -1.4207e-10 0 1.45654e-08
118 3 0.001 0.00825477 0 0.0122904 5.90017e-10 0 -2.71835e-10 0 1.51628e-08
119 3 0.001 0.00847848 0 0.0128805 -6.73357e-10 0 1.76856e-10 0 1.57248e-08
120 3 0.001 0.00867304 0 0.0134808 -1.89455e-10 0 3.09126e-11 0 1.62377e-08
121 3 0.001 0.00883714 0 0.0140901 9.70179e-10 0 -1.93589e-10 0 1.66882e-08
122 3 0.001 0.00896963 0 0.014707 -1.21435e-09 0 2.38097e-10 0 1.70642e-08
123 3 0.001 0.00906956 0 0.01533 5.74117e-10 0 -1.27341e-10 0 1.73387e-08
124 3 0.001 0.00913621 0 0.0159574 2.12135e-10 0 -5.9795e-11 0 1.75058e-08
125 3 0.001 0.00916905 0 0.0165875 1.94845e-10 0 -5.53239e-11 0 1.76234e-08
126 3 0.001 0.00916776 0 0.0172184 -1.36558e-09 0 -7.59511e-11 0 1.77501e-08
127 3 0.001 0.00913214 0 0.0178483 1.49049e-09 0 1.5574e-10 0 1.78819e-08
128 3 0.001 0.00906217 0 0.0184753 -2.75035e-10 0 1.11661e-11 0 1.79509e-08
129 3 0.001 0.00895804 0 0.0190975 -1.50644e-09 0 -3.70014e-10 0 1.78969e-08
130 3 0.001 0.00882014 0 0.0197132 2.3506e-09 0 5.55871e-10 0 1.77233e-08
131 3 0.001 0.00864915 0 0.0203205 -1.79011e-09 0 -5.95161e-10 0 1.74499e-08
132 3 0.001 0.00844594 0 0.0209178 7.8208e-10 0 2.94377e-10 0 1.7085e-08
133 3 0.001 0.00821163 0 0.0215037 -2.77214e-10 0 -7.83379e-11 0 1.66389e-08
134 3 0.001 0.00794751 0 0.0220768 5.53919e-10 0 2.24211e-10 0 1.61239e-08
135 3 0.001 0.00765505 0 0.0226359 -1.56571e-09 0 -9.40283e-10 0 1.55537e-08
136 3 0.001 0.00733582 0 0.0231803 1.95612e-09 0 1.25814e-09 0 1.49427e-08
137 3 0.001 0.00699153 0 0.0237093 -1.30421e-09 0 -8.4549e-10 0 1.43053e-08
138 3 0.001 0.00662394 0 0.0242224 2.4766e-10 0 1.05919e-10 0 1.36555e-08
139 3 0.001 0.00623485 0 0.0247195 5.27636e-10 0 4.14021e-10 0 1.30066e-08
140 3 0.001 0.00582611 0 0.0252005 -1.11508e-09 0 -1.02853e-09 0 1.23706e-08
142 3 0.001 0.00495688 0 0.0261162 -1.09291e-09 0 -1.00736e-09 0 1.11783e-08
143 3 0.001 0.00449994 0 0.026552 3.7582e-10 0 2.94907e-10 0 1.06387e-08
141 3 0.001 0.00539952 0 0.025666 1.32781e-09 0 1.30886e-09 0 1.17581e-08
145 3 0.001 0.00354987 0 0.027384 -8.74213e-10 0 -1.00296e-09 0 9.7028e-09
146 3 0.001 0.00305994 0 0.0277826 8.07194e-10 0 1.04641e-09 0 9.3148e-09
147 3 0.001 0.0025621 0 0.0281713 -3.54833e-10 0 -4.35599e-10 0 8.98373e-09
144 3 0.001 0.00403039 0 0.0269743 3.6741e-10 0 3.42732e-10 0 1.01453e-08
151 3 0.001 0.000518781 0 0.0296584 -2.97414e-10 0 -3.47253e-10 0 2.78776e-09
148 3 0.001 0.00205777 0 0.0285515 -1.24724e-10 0 -1.52523e-10 0 8.71129e-09
149 3 0.001 0.00154833 0 0.028925 5.81558e-11 0 5.07006e-12 0 8.32592e-09
150 3 0.001 0.00103507 0 0.0292932 2.78602e-10 0 3.61343e-10 0 5.44263e-09
2 2 0.001 0 0 0.03002 -0.00192255 0 0.0146404 0 1.3761e-09
