ITEM: TIMESTEP
2400000
ITEM: NUMBER OF ATOMS
151
ITEM: BOX BOUNDS ff ff ff
-1.0000000000000000e-02 1.0000000000000000e-02
-6.0000000000000001e-03 6.0000000000000001e-03
-5.2499999999999998e-02 5.2499999999999998e-02
ITEM: ATOMS id type radius x y z fx fy fz c_bendingE c_stretchingE
1 1 0.001 0 0 -0.0475 -0.00394466 0 -0.0125371 0 2.87391e-09
3 3 0.001 0.000362608 0 -0.0469824 5.71138e-09 0 -1.07234e-08 0 5.75455e-09
4 3 0.001 0.000723932 0 -0.046464 -6.29465e-09 0 1.23119e-08 0 9.15684e-09
5 3 0.001 0.0010836 0 -0.0459451 -3.70383e-09 0 8.21149e-10 0 1.2786e-08
6 3 0.001 0.00144134 0 -0.045425 1.33916e-08 0 -9.73578e-09 0 1.3039e-08
7 3 0.001 0.00179652 0 -0.0449032 3.17157e-09 0 5.54286e-10 0 1.30821e-08
8 3 0.001 0.00214852 0 -0.0443792 -7.60154e-09 0 5.16557e-09 0 1.31335e-08
9 3 0.001 0.00249672 0 -0.0438526 8.18514e-09 0 -5.5056e-09 0 1.31923e-08
10 3 0.001 0.0028405 0 -0.0433232 -9.30349e-09 0 5.36674e-09 0 1.32577e-08
11 3 0.001 0.00317925 0 -0.0427906 3.08589e-08 0 -1.62657e-08 0 1.33288e-08
12 3 0.001 0.00351237 0 -0.0422544 -2.37614e-08 0 1.48543e-08 0 1.34043e-08
13 3 0.001 0.00383927 0 -0.0417144 9.9764e-09 0 -1.13286e-08 0 1.34832e-08
14 3 0.001 0.00415938 0 -0.0411704 4.75416e-11 0 -1.76852e-10 0 1.35642e-08
15 3 0.001 0.00447214 0 -0.0406221 1.16515e-08 0 -1.25052e-08 0 1.36459e-08
16 3 0.001 0.00477701 0 -0.0400694 -1.68186e-08 0 9.70604e-09 0 1.37272e-08
17 3 0.001 0.00507349 0 -0.0395122 2.77182e-08 0 -7.27345e-09 0 1.38065e-08
18 3 0.001 0.00536107 0 -0.0389503 -8.96846e-09 0 8.38202e-09 0 1.38826e-08
19 3 0.001 0.0056393 0 -0.0383837 1.32142e-08 0 -5.75305e-10 0 1.39543e-08
20 3 0.001 0.00590775 0 -0.0378125 -1.30403e-09 0 -2.06513e-09 0 1.40203e-08
21 3 0.001 0.00616603 0 -0.0372365 -7.9134e-09 0 2.48439e-09 0 1.40794e-08
22 3 0.001 0.00641376 0 -0.036656 2.51301e-08 0 -1.75109e-08 0 1.41307e-08
23 3 0.001 0.00665065 0 -0.036071 -1.39074e-08 0 4.64648e-09 0 1.41731e-08
24 3 0.001 0.0068764 0 -0.0354816 -8.07322e-09 0 -1.76742e-09 0 1.42061e-08
25 3 0.001 0.00709079 0 -0.0348879 1.6341e-08 0 -1.4337e-08 0 1.4229e-08
26 3 0.001 0.00729365 0 -0.0342903 3.08316e-09 0 3.35305e-09 0 1.42414e-08
27 3 0.001 0.00748483 0 -0.0336887 -2.77589e-09 0 -1.09208e-09 0 1.4243e-08
28 3 0.001 0.00766427 0 -0.0330836 -8.82937e-09 0 4.66997e-09 0 1.42338e-08
29 3 0.001 0.00783193 0 -0.0324751 2.74247e-08 0 -3.55545e-10 0 1.42141e-08
30 3 0.001 0.00798784 0 -0.0318635 -7.62285e-09 0 3.19731e-09 0 1.41841e-08
31 3 0.001 0.00813208 0 -0.031249 -1.3466e-08 0 3.88188e-11 0 1.41444e-08
32 3 0.001 0.00826479 0 -0.030632 1.13595e-08 0 -1.44805e-09 0 1.40957e-08
33 3 0.001 0.00838615 0 -0.0300126 6.36731e-09 0 -6.75736e-09 0 1.40388e-08
34 3 0.001 0.00849642 0 -0.0293911 -1.29774e-08 0 -4.01948e-09 0 1.39748e-08
35 3 0.001 0.00859588 0 -0.0287678 5.1808e-09 0 -2.06416e-09 0 1.39047e-08
36 3 0.001 0.00868488 0 -0.0281429 -5.87141e-09 0 -4.36725e-09 0 1.38298e-08
37 3 0.001 0.00876381 0 -0.0275167 8.03493e-09 0 -1.21008e-09 0 1.37513e-08
38 3 0.001 0.00883312 0 -0.0268893 -7.38695e-10 0 -7.94659e-10 0 1.36705e-08
39 3 0.001 0.00889327 0 -0.0262609 -1.26096e-08 0 1.32951e-09 0 1.35887e-08
40 3 0.001 0.00894481 0 -0.0256318 1.17667e-08 0 -9.36504e-10 0 1.35074e-08
41 3 0.001 0.00898829 0 -0.0250021 -1.41472e-09 0 -2.27244e-09 0 1.34277e-08
42 3 0.001 0.0090243 0 -0.0243719 -2.21131e-08 0 -1.37457e-09 0 1.33498e-08
43 3 0.001 0.00905348 0 -0.0237413 1.85721e-08 0 -4.64855e-09 0 1.32729e-08
44 3 0.001 0.00907648 0 -0.0231105 -1.0368e-09 0 1.40788e-09 0 1.31991e-08
45 3 0.001 0.00909396 0 -0.0224795 -1.21908e-08 0 -3.40142e-10 0 1.31321e-08
46 3 0.001 0.00910658 0 -0.0218484 1.72527e-09 0 5.16877e-09 0 1.30747e-08
47 3 0.001 0.00911497 0 -0.0212172 5.70067e-09 0 4.3742e-09 0 1.30279e-08
48 3 0.001 0.00911973 0 -0.0205859 -1.43712e-08 0 -6.20678e-09 0 1.2992e-08
49 3 0.001 0.00912144 0 -0.0199547 4.9517e-09 0 -1.19138e-09 0 1.29661e-08
50 3 0.001 0.0091206 0 -0.0193234 -2.36937e-09 0 -5.48962e-09 0 1.29488e-08
51 3 0.001 0.00911767 0 -0.0186921 1.76129e-09 0 -6.4548e-09 0 1.29384e-08
52 3 0.001 0.00911309 0 -0.0180609 -1.73189e-08 0 3.12271e-09 0 1.29334e-08
53 3 0.001 0.00910722 0 -0.0174296 2.31169e-08 0 1.93966e-09 0 1.29323e-08
54 3 0.001 0.00910036 0 -0.0167984 -3.86179e-08 0 -2.67829e-09 0 1.29337e-08
55 3 0.001 0.00909281 0 -0.0161672 3.33835e-08 0 -3.85766e-10 0 1.29366e-08
56 3 0.001 0.00908478 0 -0.015536 -1.84168e-08 0 -3.40299e-09 0 1.29403e-08
57 3 0.001 0.00907648 0 -0.0149048 -1.55277e-10 0 -4.22502e-09 0 1.29441e-08
58 3 0.001 0.00906806 0 -0.0142735 -6.41918e-09 0 9.01603e-10 0 1.29478e-08
59 3 0.001 0.00905965 0 -0.0136423 3.40015e-09 0 5.069e-10 0 1.29511e-08
60 3 0.001 0.00905136 0 -0.0130111 -1.30161e-08 0 6.03835e-09 0 1.29538e-08
61 3 0.001 0.00904327 0 -0.0123799 4.54167e-09 0 4.19594e-09 0 1.2956e-08
62 3 0.001 0.00903545 0 -0.0117487 -1.37748e-08 0 -4.06699e-09 0 1.29577e-08
63 3 0.001 0.00902797 0 -0.0111175 2.28695e-08 0 5.6491e-09 0 1.2959e-08
64 3 0.001 0.00902085 0 -0.0104862 -3.77127e-08 0 -4.4264e-09 0 1.29599e-08
65 3 0.001 0.00901413 0 -0.00985502 1.65958e-08 0 -2.60816e-09 0 1.29605e-08
66 3 0.001 0.00900785 0 -0.00922378 -1.15674e-08 0 3.17652e-10 0 1.29608e-08
67 3 0.001 0.00900203 0 -0.00859254 4.13616e-09 0 -3.34801e-09 0 1.29611e-08
68 3 0.001 0.00899669 0 -0.0079613 -2.19522e-08 0 -2.53359e-09 0 1.29613e-08
69 3 0.001 0.00899186 0 -0.00733005 1.25884e-08 0 -3.72174e-09 0 1.29614e-08
70 3 0.001 0.00898755 0 -0.0066988 -6.32348e-09 0 -2.45424e-09 0 1.29616e-08
71 3 0.001 0.00898378 0 -0.00606755 -1.65268e-08 0 -1.1808e-09 0 1.29617e-08
72 3 0.001 0.00898056 0 -0.00543629 -9.98724e-10 0 -4.32187e-09 0 1.29619e-08
73 3 0.001 0.00897791 0 -0.00480503 1.34695e-08 0 2.78832e-09 0 1.2962e-08
74 3 0.001 0.00897584 0 -0.00417377 -3.48495e-08 0 -1.03207e-09 0 1.2962e-08
75 3 0.001 0.00897436 0 -0.0035425 3.34499e-08 0 -3.73658e-09 0 1.29621e-08
76 3 0.001 0.00897347 0 -0.00291124 -4.39199e-08 0 -3.1583e-09 0 1.29621e-08
77 3 0.001 0.00897317 0 -0.00227997 1.53597e-08 0 -4.38175e-10 0 1.29622e-08
78 3 0.001 0.00897346 0 -0.00164871 -1.08158e-08 0 1.97421e-09 0 1.29622e-08
79 3 0.001 0.00897436 0 -0.00101744 2.12885e-09 0 2.20912e-09 0 1.29621e-08
80 3 0.001 0.00897584 0 -0.000386179 8.32302e-10 0 -9.7607e-10 0 1.29621e-08
81 3 0.001 0.00897791 0 0.000245083 -2.89285e-08 0 -4.33987e-09 0 1.2962e-08
82 3 0.001 0.00898056 0 0.000876343 1.72338e-08 0 2.99388e-09 0 1.29619e-08
83 3 0.001 0.00898378 0 0.0015076 -1.48309e-08 0 1.91636e-10 0 1.29618e-08
84 3 0.001 0.00898754 0 0.00213885 1.21723e-09 0 1.25372e-09 0 1.29617e-08
85 3 0.001 0.00899185 0 0.00277011 -9.18498e-09 0 2.1485e-09 0 1.29615e-08
86 3 0.001 0.00899669 0 0.00340135 4.22139e-09 0 3.8155e-10 0 1.29614e-08
87 3 0.001 0.00900202 0 0.0040326 -5.45328e-09 0 2.21581e-09 0 1.29612e-08
88 3 0.001 0.00900784 0 0.00466383 -2.86299e-08 0 -5.95773e-10 0 1.29609e-08
89 3 0.001 0.00901412 0 0.00529507 3.15089e-08 0 1.59272e-09 0 1.29606e-08
90 3 0.001 0.00902084 0 0.0059263 -2.52614e-08 0 2.37337e-09 0 1.296e-08
91 3 0.001 0.00902796 0 0.00655752 2.15444e-09 0 -7.68748e-09 0 1.29591e-08
92 3 0.001 0.00903545 0 0.00718875 -6.04381e-10 0 2.43938e-09 0 1.29579e-08
93 3 0.001 0.00904326 0 0.00781996 -6.48889e-09 0 -4.7615e-09 0 1.29562e-08
94 3 0.001 0.00905135 0 0.00845118 -6.58516e-10 0 -7.20489e-09 0 1.2954e-08
95 3 0.001 0.00905964 0 0.00908239 -1.33625e-08 0 -1.79715e-09 0 1.29513e-08
96 3 0.001 0.00906805 0 0.0097136 1.25518e-08 0 -2.90311e-09 0 1.2948e-08
97 3 0.001 0.00907647 0 0.0103448 -1.07702e-08 0 2.69902e-09 0 1.29444e-08
98 3 0.001 0.00908478 0 0.010976 -7.13486e-09 0 2.13282e-09 0 1.29405e-08
99 3 0.001 0.00909281 0 0.0116072 1.14647e-08 0 -6.65871e-11 0 1.29368e-08
100 3 0.001 0.00910036 0 0.0122385 -2.59695e-08 0 1.78428e-09 0 1.29339e-08
101 3 0.001 0.00910721 0 0.0128697 2.85449e-08 0 -3.29648e-09 0 1.29325e-08
102 3 0.001 0.00911309 0 0.0135009 -2.45122e-08 0 -5.04342e-09 0 1.29337e-08
103 3 0.001 0.00911768 0 0.0141322 5.54801e-09 0 4.45483e-09 0 1.29387e-08
104 3 0.001 0.0091206 0 0.0147634 2.48674e-09 0 3.81537e-09 0 1.2949e-08
105 3 0.001 0.00912144 0 0.0153947 -1.87194e-08 0 1.04913e-10 0 1.29664e-08
106 3 0.001 0.00911974 0 0.016026 2.05354e-08 0 6.03179e-09 0 1.29923e-08
107 3 0.001 0.00911498 0 0.0166572 -1.98963e-08 0 -5.39136e-09 0 1.30282e-08
108 3 0.001 0.00910659 0 0.0172884 9.45319e-09 0 -7.41436e-09 0 1.3075e-08
110 3 0.001 0.0090765 0 0.0185506 4.27584e-08 0 -1.39251e-09 0 1.31994e-08
109 3 0.001 0.00909398 0 0.0179195 -2.62962e-08 0 -3.08341e-09 0 1.31325e-08
111 3 0.001 0.0090535 0 0.0191814 -3.18631e-08 0 2.88992e-09 0 1.32732e-08
112 3 0.001 0.00902433 0 0.0198119 -1.77605e-08 0 1.27794e-09 0 1.33501e-08
113 3 0.001 0.00898832 0 0.0204421 4.10858e-08 0 3.47048e-09 0 1.34281e-08
114 3 0.001 0.00894485 0 0.0210719 -3.68565e-08 0 -5.7066e-09 0 1.35078e-08
115 3 0.001 0.00889332 0 0.021701 1.33553e-08 0 -1.94437e-09 0 1.35891e-08
118 3 0.001 0.00868494 0 0.023583 -1.41323e-08 0 3.47884e-09 0 1.38302e-08
117 3 0.001 0.00876387 0 0.0229567 1.51865e-08 0 2.73905e-09 0 1.37517e-08
116 3 0.001 0.00883317 0 0.0223293 -1.40022e-08 0 -1.4405e-09 0 1.36709e-08
119 3 0.001 0.00859595 0 0.0242079 -2.47897e-09 0 -1.06242e-09 0 1.39052e-08
120 3 0.001 0.00849649 0 0.0248312 5.14871e-09 0 4.07924e-09 0 1.39753e-08
121 3 0.001 0.00838623 0 0.0254526 -3.48245e-09 0 3.05376e-09 0 1.40393e-08
122 3 0.001 0.00826487 0 0.026072 -4.78408e-09 0 -2.20142e-09 0 1.40962e-08
123 3 0.001 0.00813216 0 0.0266891 -3.25843e-09 0 2.47261e-09 0 1.4145e-08
124 3 0.001 0.00798792 0 0.0273036 3.81659e-09 0 -6.63163e-10 0 1.41847e-08
125 3 0.001 0.00783202 0 0.0279152 -1.78867e-09 0 -9.21228e-09 0 1.42147e-08
128 3 0.001 0.00729375 0 0.0297303 5.15779e-09 0 -2.49433e-09 0 1.4242e-08
127 3 0.001 0.00748493 0 0.0291288 -3.07883e-09 0 -8.9152e-11 0 1.42436e-08
126 3 0.001 0.00766436 0 0.0285237 1.14666e-09 0 -4.29562e-09 0 1.42345e-08
129 3 0.001 0.00709089 0 0.030328 1.1627e-09 0 9.12895e-09 0 1.42297e-08
130 3 0.001 0.0068765 0 0.0309216 -5.14965e-09 0 2.4551e-09 0 1.42068e-08
131 3 0.001 0.00665075 0 0.031511 -1.44155e-08 0 -5.5912e-09 0 1.41739e-08
132 3 0.001 0.00641386 0 0.0320961 2.39619e-08 0 1.59134e-08 0 1.41314e-08
133 3 0.001 0.00616613 0 0.0326766 -1.30506e-08 0 -5.96901e-09 0 1.40801e-08
135 3 0.001 0.0056394 0 0.0338238 1.53127e-08 0 1.63969e-09 0 1.3955e-08
134 3 0.001 0.00590785 0 0.0332525 -7.1507e-09 0 -1.50432e-09 0 1.4021e-08
137 3 0.001 0.00507357 0 0.0349522 3.97813e-09 0 -5.13e-09 0 1.38072e-08
136 3 0.001 0.00536116 0 0.0343903 -4.78283e-09 0 -5.42694e-09 0 1.38834e-08
138 3 0.001 0.0047771 0 0.0355094 1.17406e-08 0 4.9321e-09 0 1.37279e-08
140 3 0.001 0.00415945 0 0.0366104 3.02878e-08 0 1.72164e-08 0 1.35649e-08
141 3 0.001 0.00383934 0 0.0371545 -2.56878e-08 0 -8.7689e-09 0 1.34839e-08
139 3 0.001 0.00447222 0 0.0360621 -2.46838e-08 0 -9.28189e-09 0 1.36467e-08
142 3 0.001 0.00351244 0 0.0376944 1.21872e-08 0 8.60878e-09 0 1.3405e-08
143 3 0.001 0.00317931 0 0.0382306 3.83276e-09 0 -8.99686e-10 0 1.33295e-08
145 3 0.001 0.00249677 0 0.0392927 1.21511e-08 0 6.8234e-09 0 1.3193e-08
146 3 0.001 0.00214857 0 0.0398192 2.79743e-09 0 2.22482e-09 0 1.31342e-08
144 3 0.001 0.00284056 0 0.0387633 -1.16989e-08 0 -8.79624e-09 0 1.32584e-08
147 3 0.001 0.00179655 0 0.0403432 -9.84726e-09 0 -8.49722e-09 0 1.30828e-08
148 3 0.001 0.00144136 0 0.040865 1.27295e-08 0 9.87493e-09 0 1.30397e-08
149 3 0.001 0.00108362 0 0.0413851 1.12638e-09 0 2.67099e-09 0 1.27867e-08
150 3 0.001 0.000723947 0 0.041904 -1.55572e-08 0 -1.92857e-08 0 9.15741e-09
151 3 0.001 0.000362615 0 0.0424224 1.2583e-08 0 1.48647e-08 0 5.75502e-09
2 2 0.001 0 0 0.04294 -0.00394481 0 0.0125374 0 2.87414e-09
