ITEM: TIMESTEP
7600000
ITEM: NUMBER OF ATOMS
151
ITEM: BOX BOUNDS ff ff ff
-1.0000000000000000e-02 1.0000000000000000e-02
-6.0000000000000001e-03 6.0000000000000001e-03
-5.2499999999999998e-02 5.2499999999999998e-02
ITEM: ATOMS id type radius x y z fx fy fz c_bendingE c_stretchingE
1 1 0.001 0 0 -0.0475 -0.00308972 0 -0.0149903 0 2.16945e-09
3 3 0.001 0.000506977 0 -0.0471224 5.88118e-12 0 -1.79446e-12 0 4.37764e-09
4 3 0.001 0.00101153 0 -0.0467416 -1.55721e-11 0 1.28561e-11 0 7.51852e-09
5 3 0.001 0.00151314 0 -0.046358 3.7414e-11 0 -4.23851e-11 0 1.09112e-08
6 3 0.001 0.00201105 0 -0.0459697 -4.56532e-11 0 6.13624e-11 0 1.13213e-08
7 3 0.001 0.00250401 0 -0.0455752 5.8224e-11 0 -7.8753e-11 0 1.15889e-08
8 3 0.001 0.00299074 0 -0.0451731 -4.53967e-11 0 6.24181e-11 0 1.19118e-08
9 3 0.001 0.00346986 0 -0.044762 3.99123e-11 0 -5.35752e-11 0 1.2287e-08
10 3 0.001 0.00393999 0 -0.0443406 -8.99574e-12 0 1.54645e-11 0 1.27108e-08
11 3 0.001 0.00439968 0 -0.043908 7.65816e-12 0 -1.75415e-12 0 1.31785e-08
12 3 0.001 0.00484742 0 -0.043463 1.11939e-11 0 -2.22478e-11 0 1.36841e-08
13 3 0.001 0.00528169 0 -0.043005 -1.17035e-11 0 1.17498e-11 0 1.42205e-08
14 3 0.001 0.00570091 0 -0.0425332 2.91774e-11 0 -2.00526e-11 0 1.47796e-08
15 3 0.001 0.00610348 0 -0.0420471 7.4506e-12 0 -3.19042e-12 0 1.53517e-08
16 3 0.001 0.0064878 0 -0.0415466 -1.17494e-11 0 7.30037e-12 0 1.59264e-08
17 3 0.001 0.00685227 0 -0.0410315 2.45777e-11 0 -2.19386e-11 0 1.64923e-08
18 3 0.001 0.00719533 0 -0.0405019 -1.38148e-11 0 8.797e-12 0 1.70371e-08
19 3 0.001 0.00751546 0 -0.0399582 5.45259e-11 0 -3.04933e-11 0 1.75487e-08
20 3 0.001 0.00781123 0 -0.0394009 -7.14402e-11 0 3.64256e-11 0 1.80146e-08
21 3 0.001 0.00808128 0 -0.0388308 9.21623e-11 0 -4.43272e-11 0 1.84232e-08
22 3 0.001 0.00832442 0 -0.0382486 -6.25813e-11 0 2.59892e-11 0 1.87639e-08
23 3 0.001 0.00853956 0 -0.0376556 4.37473e-11 0 -2.27444e-11 0 1.90274e-08
24 3 0.001 0.00872581 0 -0.0370529 -9.19907e-12 0 3.31646e-12 0 1.92065e-08
25 3 0.001 0.00888246 0 -0.0364419 2.79568e-12 0 -2.27255e-12 0 1.9296e-08
26 3 0.001 0.00900899 0 -0.0358239 5.60529e-12 0 -5.28803e-12 0 1.92924e-08
27 3 0.001 0.0091051 0 -0.0352004 -8.54997e-12 0 4.94615e-12 0 1.91655e-08
28 3 0.001 0.00917072 0 -0.034573 3.30696e-11 0 -7.33355e-12 0 1.89305e-08
29 3 0.001 0.00920594 0 -0.0339432 -6.12402e-11 0 3.63248e-13 0 1.86797e-08
30 3 0.001 0.00921097 0 -0.0333123 6.61308e-11 0 -4.321e-12 0 1.84843e-08
31 3 0.001 0.0091861 0 -0.032682 -5.52811e-11 0 -3.39901e-12 0 1.83555e-08
32 3 0.001 0.0091317 0 -0.0320534 1.33353e-11 0 1.05151e-12 0 1.82434e-08
33 3 0.001 0.00904822 0 -0.0314281 -8.36893e-12 0 -4.49538e-12 0 1.80644e-08
34 3 0.001 0.00893624 0 -0.0308072 -3.01213e-14 0 -4.75304e-13 0 1.77843e-08
35 3 0.001 0.00879649 0 -0.030192 -2.07184e-11 0 -1.05433e-11 0 1.74303e-08
36 3 0.001 0.00862989 0 -0.0295834 1.26308e-13 0 -4.49495e-13 0 1.70235e-08
37 3 0.001 0.00843751 0 -0.0289825 -5.58981e-12 0 -5.98685e-13 0 1.65738e-08
39 3 0.001 0.00798024 0 -0.0278064 4.1936e-11 0 1.63147e-11 0 1.55884e-08
40 3 0.001 0.00771806 0 -0.0272324 -4.64962e-11 0 -1.79365e-11 0 1.50739e-08
38 3 0.001 0.00822052 0 -0.0283899 -3.94035e-11 0 -2.19929e-11 0 1.60919e-08
43 3 0.001 0.00681509 0 -0.0255688 7.94869e-12 0 -1.26494e-13 0 1.35627e-08
42 3 0.001 0.00713395 0 -0.0261136 -1.07194e-11 0 -8.59811e-12 0 1.4052e-08
41 3 0.001 0.00743546 0 -0.0266681 1.03458e-11 0 -3.0923e-12 0 1.45586e-08
45 3 0.001 0.00613167 0 -0.0245074 -3.22906e-11 0 -2.3163e-11 0 1.2666e-08
44 3 0.001 0.00648047 0 -0.0250336 1.35404e-11 0 4.73807e-12 0 1.30985e-08
48 3 0.001 0.00501602 0 -0.0229772 -1.23686e-12 0 -3.40172e-12 0 1.16106e-08
47 3 0.001 0.00539788 0 -0.02348 1.74355e-11 0 -6.10709e-12 0 1.19177e-08
46 3 0.001 0.00577028 0 -0.0239898 3.64758e-11 0 1.72113e-11 0 1.22708e-08
50 3 0.001 0.00423008 0 -0.0219888 3.15197e-11 0 6.35657e-12 0 1.11451e-08
49 3 0.001 0.00462625 0 -0.0224805 1.487e-11 0 3.01661e-12 0 1.13522e-08
51 3 0.001 0.00382901 0 -0.0215011 2.0527e-12 0 -5.97793e-12 0 1.09908e-08
54 3 0.001 0.0026112 0 -0.0200501 2.07508e-11 0 1.12945e-12 0 1.08543e-08
53 3 0.001 0.0030181 0 -0.020533 1.89861e-11 0 -5.25111e-12 0 1.08449e-08
52 3 0.001 0.00342453 0 -0.0210163 3.68925e-11 0 1.49337e-11 0 1.08905e-08
57 3 0.001 0.00140225 0 -0.0185918 2.04003e-11 0 -3.25919e-12 0 1.12104e-08
56 3 0.001 0.0018018 0 -0.0190808 4.23951e-11 0 8.92075e-12 0 1.10377e-08
58 3 0.001 0.00100811 0 -0.0180986 -5.71655e-12 0 -2.10038e-11 0 1.14353e-08
55 3 0.001 0.00220528 0 -0.0195665 1.84669e-11 0 4.61563e-12 0 1.09188e-08
60 3 0.001 0.000242099 0 -0.0170948 -3.43282e-11 0 -4.19658e-11 0 1.20341e-08
59 3 0.001 0.000620882 0 -0.0175999 9.25279e-11 0 4.69675e-11 0 1.17107e-08
62 3 0.001 -0.000483935 0 -0.0160619 3.82339e-11 0 1.76579e-12 0 1.28107e-08
61 3 0.001 -0.000126695 0 -0.0165823 4.40737e-11 0 1.47578e-11 0 1.24021e-08
63 3 0.001 -0.00082804 0 -0.0155326 9.70715e-12 0 -1.2541e-11 0 1.32548e-08
65 3 0.001 -0.0014705 0 -0.0144461 3.55525e-11 0 -2.60282e-13 0 1.42246e-08
66 3 0.001 -0.00176568 0 -0.0138882 -3.1406e-14 0 -8.57696e-12 0 1.47352e-08
64 3 0.001 -0.00115742 0 -0.0149942 3.28808e-11 0 3.35376e-12 0 1.37284e-08
69 3 0.001 -0.00252868 0 -0.0121565 6.33362e-11 0 1.40507e-11 0 1.62606e-08
67 3 0.001 -0.00204144 0 -0.0133205 6.77782e-11 0 1.29959e-11 0 1.52513e-08
68 3 0.001 -0.00229625 0 -0.0127432 -1.99709e-11 0 -2.68182e-11 0 1.57632e-08
71 3 0.001 -0.002921 0 -0.0109574 1.75668e-11 0 -3.19768e-12 0 1.71687e-08
70 3 0.001 -0.00273735 0 -0.011561 2.15207e-11 0 -5.23251e-12 0 1.67326e-08
72 3 0.001 -0.00307848 0 -0.0103464 4.22657e-11 0 -1.95946e-12 0 1.75584e-08
73 3 0.001 -0.00320878 0 -0.0097291 2.81903e-11 0 -3.61329e-12 0 1.78922e-08
75 3 0.001 -0.00338459 0 -0.00847998 1.01249e-11 0 1.22581e-12 0 1.83592e-08
74 3 0.001 -0.00331104 0 -0.00910655 4.02558e-11 0 2.72657e-12 0 1.81615e-08
76 3 0.001 -0.00342892 0 -0.00785067 5.11869e-11 0 -4.23146e-12 0 1.848e-08
77 3 0.001 -0.00344373 0 -0.00721998 3.35132e-11 0 -3.65228e-12 0 1.85207e-08
78 3 0.001 -0.00342892 0 -0.00658929 2.94792e-11 0 3.44065e-12 0 1.848e-08
79 3 0.001 -0.00338459 0 -0.00595999 3.16502e-11 0 1.34637e-12 0 1.83592e-08
80 3 0.001 -0.00331105 0 -0.00533341 3.91656e-11 0 -5.00326e-12 0 1.81616e-08
81 3 0.001 -0.00320879 0 -0.00471086 4.16107e-11 0 2.46591e-12 0 1.78923e-08
82 3 0.001 -0.0030785 0 -0.00409354 2.64712e-11 0 -7.22095e-13 0 1.75586e-08
83 3 0.001 -0.00292102 0 -0.00348257 5.58673e-11 0 -8.72898e-12 0 1.71688e-08
84 3 0.001 -0.00273738 0 -0.00287892 5.14586e-12 0 1.79651e-11 0 1.67327e-08
85 3 0.001 -0.00252871 0 -0.00228342 7.78083e-11 0 -2.00882e-11 0 1.62607e-08
86 3 0.001 -0.00229628 0 -0.00169675 -1.47896e-11 0 1.7951e-11 0 1.57634e-08
87 3 0.001 -0.00204147 0 -0.00111941 9.78663e-11 0 -2.66224e-11 0 1.52515e-08
88 3 0.001 -0.00176572 0 -0.000551731 -1.57363e-11 0 2.19205e-11 0 1.47354e-08
89 3 0.001 -0.00147054 0 6.13357e-06 5.97487e-11 0 -6.56848e-12 0 1.42248e-08
90 3 0.001 -0.00115746 0 0.000554206 3.48728e-11 0 -6.46213e-12 0 1.37286e-08
91 3 0.001 -0.000828083 0 0.00109268 1.82505e-11 0 1.01892e-11 0 1.3255e-08
92 3 0.001 -0.00048398 0 0.00162191 3.26324e-11 0 -3.71091e-12 0 1.28109e-08
93 3 0.001 -0.000126741 0 0.0021424 4.67066e-11 0 -6.83017e-12 0 1.24023e-08
94 3 0.001 0.000242052 0 0.00265481 -3.99931e-12 0 2.29838e-11 0 1.20343e-08
95 3 0.001 0.000620835 0 0.00315992 5.89948e-11 0 -2.71388e-11 0 1.17109e-08
96 3 0.001 0.00100806 0 0.00365861 -2.45616e-12 0 2.48246e-11 0 1.14355e-08
97 3 0.001 0.0014022 0 0.00415189 5.24724e-11 0 -1.70866e-11 0 1.12105e-08
98 3 0.001 0.00180176 0 0.00464081 -1.54566e-11 0 3.47345e-11 0 1.10379e-08
99 3 0.001 0.00220523 0 0.00512652 7.60966e-11 0 -5.18535e-11 0 1.09189e-08
100 3 0.001 0.00261115 0 0.0056102 -4.59379e-11 0 5.96398e-11 0 1.08545e-08
101 3 0.001 0.00301806 0 0.00609305 6.60889e-11 0 -3.15438e-11 0 1.0845e-08
102 3 0.001 0.00342448 0 0.00657631 -5.03901e-12 0 1.1105e-11 0 1.08906e-08
103 3 0.001 0.00382896 0 0.00706119 2.01233e-11 0 1.43516e-12 0 1.09909e-08
104 3 0.001 0.00423003 0 0.00754887 7.80664e-12 0 8.50283e-12 0 1.11452e-08
105 3 0.001 0.0046262 0 0.00804053 7.01678e-12 0 1.49081e-12 0 1.13524e-08
106 3 0.001 0.00501598 0 0.00853724 1.56363e-11 0 1.49561e-12 0 1.16107e-08
107 3 0.001 0.00539784 0 0.00904004 2.75091e-12 0 9.52321e-12 0 1.19179e-08
108 3 0.001 0.00577025 0 0.00954984 -4.79104e-13 0 3.7437e-12 0 1.2271e-08
109 3 0.001 0.00613164 0 0.0100675 -4.05819e-12 0 1.27541e-11 0 1.26662e-08
110 3 0.001 0.00648044 0 0.0105936 1.89415e-11 0 -1.22364e-11 0 1.30987e-08
111 3 0.001 0.00681506 0 0.0111289 -2.07605e-11 0 1.91831e-11 0 1.35629e-08
112 3 0.001 0.00713392 0 0.0116736 -4.10773e-12 0 6.1762e-12 0 1.40522e-08
113 3 0.001 0.00743543 0 0.0122281 1.67429e-11 0 -3.88428e-12 0 1.45588e-08
114 3 0.001 0.00771804 0 0.0127924 -4.24994e-11 0 1.9162e-11 0 1.50742e-08
115 3 0.001 0.00798022 0 0.0133665 4.20433e-11 0 -1.83552e-11 0 1.55887e-08
116 3 0.001 0.0082205 0 0.01395 -6.4847e-11 0 3.27311e-11 0 1.60922e-08
117 3 0.001 0.00843749 0 0.0145425 3.86738e-11 0 -1.75094e-11 0 1.65742e-08
118 3 0.001 0.00862988 0 0.0151434 -1.98124e-11 0 1.05248e-11 0 1.70238e-08
119 3 0.001 0.00879648 0 0.015752 -4.13507e-11 0 8.2526e-12 0 1.74306e-08
120 3 0.001 0.00893623 0 0.0163672 2.14501e-11 0 -4.43358e-12 0 1.77847e-08
121 3 0.001 0.00904822 0 0.0169881 -5.70159e-12 0 2.09126e-13 0 1.80648e-08
122 3 0.001 0.0091317 0 0.0176135 -1.80812e-11 0 7.43474e-12 0 1.82438e-08
123 3 0.001 0.00918611 0 0.018242 -1.83934e-11 0 -1.03137e-13 0 1.83559e-08
124 3 0.001 0.00921098 0 0.0188724 1.92723e-11 0 -3.1333e-12 0 1.84847e-08
125 3 0.001 0.00920595 0 0.0195032 -4.29364e-11 0 2.27052e-12 0 1.86802e-08
126 3 0.001 0.00917074 0 0.0201331 4.30188e-11 0 2.15223e-12 0 1.8931e-08
127 3 0.001 0.00910512 0 0.0207605 -5.90492e-11 0 -4.82277e-14 0 1.9166e-08
128 3 0.001 0.009009 0 0.0213839 3.29159e-11 0 8.19506e-13 0 1.92929e-08
129 3 0.001 0.00888248 0 0.0220019 -1.45964e-12 0 -1.68151e-12 0 1.92966e-08
130 3 0.001 0.00872583 0 0.022613 -4.38071e-11 0 -2.50176e-12 0 1.92071e-08
131 3 0.001 0.00853958 0 0.0232157 6.26513e-11 0 1.63026e-11 0 1.9028e-08
132 3 0.001 0.00832444 0 0.0238087 -7.85538e-11 0 -2.79018e-11 0 1.87646e-08
133 3 0.001 0.00808131 0 0.0243908 7.3732e-11 0 3.20465e-11 0 1.84239e-08
134 3 0.001 0.00781125 0 0.024961 -5.75001e-11 0 -1.91227e-11 0 1.80153e-08
137 3 0.001 0.0068523 0 0.0265915 -2.15476e-11 0 -1.18423e-11 0 1.64929e-08
135 3 0.001 0.00751549 0 0.0255182 2.36781e-11 0 5.54474e-12 0 1.75493e-08
136 3 0.001 0.00719536 0 0.0260619 4.8669e-12 0 1.01822e-11 0 1.70378e-08
138 3 0.001 0.00648783 0 0.0271066 2.42094e-11 0 1.71434e-11 0 1.59271e-08
139 3 0.001 0.00610351 0 0.0276072 -9.09807e-12 0 -8.56648e-12 0 1.53524e-08
140 3 0.001 0.00570093 0 0.0280932 -2.09627e-12 0 1.05511e-12 0 1.47802e-08
141 3 0.001 0.00528171 0 0.028565 1.51813e-11 0 1.91019e-11 0 1.42211e-08
142 3 0.001 0.00484744 0 0.0290231 -8.45828e-12 0 -9.40302e-12 0 1.36847e-08
143 3 0.001 0.0043997 0 0.029468 9.91142e-12 0 4.72219e-12 0 1.3179e-08
145 3 0.001 0.00346988 0 0.030322 -6.31771e-12 0 -1.29959e-11 0 1.22875e-08
146 3 0.001 0.00299075 0 0.0307331 1.71529e-11 0 2.31963e-11 0 1.19123e-08
147 3 0.001 0.00250402 0 0.0311353 -2.33346e-11 0 -1.9027e-11 0 1.15894e-08
144 3 0.001 0.00394001 0 0.0299006 2.92449e-12 0 1.28923e-11 0 1.27114e-08
151 3 0.001 0.000506979 0 0.0326824 6.1232e-12 0 1.47914e-11 0 4.37793e-09
148 3 0.001 0.00201105 0 0.0315298 2.46526e-11 0 1.35817e-11 0 1.13218e-08
149 3 0.001 0.00151315 0 0.031918 -4.78847e-12 0 7.15203e-12 0 1.09116e-08
150 3 0.001 0.00101154 0 0.0323016 -7.71699e-12 0 -1.70515e-11 0 7.51889e-09
2 2 0.001 0 0 0.03306 -0.00308989 0 0.0149906 0 2.1696e-09
