ITEM: TIMESTEP
7100000
ITEM: NUMBER OF ATOMS
151
ITEM: BOX BOUNDS ff ff ff
-1.0000000000000000e-02 1.0000000000000000e-02
-6.0000000000000001e-03 6.0000000000000001e-03
-5.2499999999999998e-02 5.2499999999999998e-02
ITEM: ATOMS id type radius x y z fx fy fz c_bendingE c_stretchingE
1 1 0.001 0 0 -0.0475 -0.00348823 0 -0.0151525 0 2.49468e-09
3 3 0.001 0.000502709 0 -0.0471169 4.18074e-11 0 -2.22701e-11 0 5.02894e-09
4 3 0.001 0.00100302 0 -0.0467307 -6.60082e-11 0 1.05702e-10 0 8.34247e-09
5 3 0.001 0.00150041 0 -0.0463418 8.28785e-11 0 -1.27503e-10 0 1.19163e-08
6 3 0.001 0.00199414 0 -0.0459483 -5.8766e-11 0 5.92795e-11 0 1.2335e-08
7 3 0.001 0.00248299 0 -0.0455489 4.80804e-11 0 -5.82701e-11 0 1.26005e-08
8 3 0.001 0.00296568 0 -0.045142 -9.65032e-11 0 1.18273e-10 0 1.292e-08
9 3 0.001 0.00344087 0 -0.0447265 6.65384e-12 0 -4.85139e-13 0 1.32905e-08
10 3 0.001 0.00390721 0 -0.0443011 2.53965e-10 0 -2.6451e-10 0 1.37076e-08
11 3 0.001 0.00436327 0 -0.0438647 -3.88255e-10 0 3.90814e-10 0 1.41663e-08
12 3 0.001 0.00480762 0 -0.0434165 3.13e-10 0 -3.18257e-10 0 1.46603e-08
13 3 0.001 0.00523875 0 -0.0429556 -1.77965e-10 0 1.66813e-10 0 1.51824e-08
14 3 0.001 0.00565516 0 -0.0424814 -3.14764e-11 0 2.22115e-11 0 1.57239e-08
15 3 0.001 0.0060553 0 -0.0419934 2.38463e-10 0 -1.82254e-10 0 1.62754e-08
16 3 0.001 0.00643765 0 -0.0414915 -2.96703e-10 0 2.30152e-10 0 1.68264e-08
17 3 0.001 0.00680069 0 -0.0409754 1.96847e-10 0 -1.40236e-10 0 1.73656e-08
18 3 0.001 0.00714291 0 -0.0404454 -3.88677e-11 0 3.38918e-11 0 1.78813e-08
19 3 0.001 0.00746289 0 -0.0399016 -1.00083e-10 0 3.69534e-11 0 1.83617e-08
20 3 0.001 0.00775928 0 -0.0393447 9.72757e-11 0 -5.11708e-11 0 1.87952e-08
21 3 0.001 0.0080308 0 -0.0387753 8.60433e-11 0 -2.24683e-11 0 1.91709e-08
22 3 0.001 0.00827633 0 -0.0381943 -2.85397e-10 0 1.18979e-10 0 1.94788e-08
23 3 0.001 0.00849488 0 -0.0376026 2.9894e-10 0 -1.07854e-10 0 1.97109e-08
24 3 0.001 0.0086856 0 -0.0370013 -1.76955e-10 0 5.22739e-11 0 1.98607e-08
25 3 0.001 0.00884785 0 -0.0363918 -8.4946e-11 0 1.25732e-11 0 1.99241e-08
26 3 0.001 0.00898117 0 -0.0357752 4.21098e-10 0 -7.0056e-11 0 1.98992e-08
27 3 0.001 0.00908531 0 -0.0351531 -5.74788e-10 0 9.60054e-11 0 1.97599e-08
28 3 0.001 0.00916022 0 -0.0345268 3.96434e-10 0 -4.62191e-11 0 1.95048e-08
29 3 0.001 0.00920603 0 -0.0338977 -1.83406e-10 0 2.09586e-12 0 1.92109e-08
30 3 0.001 0.00922297 0 -0.0332671 9.11755e-11 0 1.15466e-12 0 1.89644e-08
31 3 0.001 0.00921137 0 -0.0326363 -6.40481e-11 0 8.54062e-12 0 1.8801e-08
32 3 0.001 0.00917159 0 -0.0320067 2.43147e-11 0 8.48749e-12 0 1.86962e-08
33 3 0.001 0.00910403 0 -0.0313795 -1.09329e-10 0 -1.32685e-11 0 1.85777e-08
34 3 0.001 0.0090092 0 -0.0307558 5.90154e-11 0 3.2678e-12 0 1.83677e-08
35 3 0.001 0.00888771 0 -0.0301367 1.70407e-10 0 4.23562e-11 0 1.80663e-08
36 3 0.001 0.00874034 0 -0.0295233 -3.37209e-10 0 -8.82076e-11 0 1.77112e-08
37 3 0.001 0.00856802 0 -0.0289164 3.2286e-10 0 1.02405e-10 0 1.73123e-08
39 3 0.001 0.00815289 0 -0.0277249 4.46929e-10 0 1.77998e-10 0 1.64208e-08
40 3 0.001 0.00791253 0 -0.0271414 -4.44258e-10 0 -2.01574e-10 0 1.59478e-08
38 3 0.001 0.00837181 0 -0.0283167 -3.9709e-10 0 -1.31115e-10 0 1.68789e-08
42 3 0.001 0.00737296 0 -0.0260006 -1.50087e-10 0 -5.92924e-11 0 1.4995e-08
41 3 0.001 0.00765208 0 -0.0265666 2.9823e-10 0 1.277e-10 0 1.54695e-08
45 3 0.001 0.00643833 0 -0.0243544 -4.7512e-10 0 -3.19842e-10 0 1.36754e-08
44 3 0.001 0.00676458 0 -0.0248948 3.11599e-10 0 1.94387e-10 0 1.40907e-08
43 3 0.001 0.00707663 0 -0.0254434 -9.51248e-11 0 -5.1666e-11 0 1.45328e-08
47 3 0.001 0.00574932 0 -0.0232966 -2.95248e-10 0 -1.87299e-10 0 1.29483e-08
46 3 0.001 0.0060994 0 -0.0238219 4.64838e-10 0 2.91085e-10 0 1.32929e-08
48 3 0.001 0.00538959 0 -0.0227779 7.20963e-11 0 4.95986e-11 0 1.26457e-08
50 3 0.001 0.00464724 0 -0.0217566 -7.15841e-11 0 -6.08165e-11 0 1.21793e-08
49 3 0.001 0.00502174 0 -0.0222648 -4.2756e-12 0 -2.21889e-11 0 1.23884e-08
51 3 0.001 0.00426759 0 -0.0212521 2.48256e-10 0 1.82396e-10 0 1.20202e-08
54 3 0.001 0.0031123 0 -0.0197512 -1.91019e-10 0 -1.67022e-10 0 1.18556e-08
53 3 0.001 0.00349866 0 -0.0202505 3.57154e-10 0 2.65371e-10 0 1.18577e-08
52 3 0.001 0.00388424 0 -0.0207505 -3.95211e-10 0 -3.10086e-10 0 1.19127e-08
57 3 0.001 0.00196303 0 -0.0182457 3.50407e-10 0 2.53856e-10 0 1.2165e-08
56 3 0.001 0.00234303 0 -0.0187499 -2.83463e-10 0 -2.2083e-10 0 1.201e-08
55 3 0.001 0.0027266 0 -0.0192514 1.68066e-10 0 1.0715e-10 0 1.19065e-08
59 3 0.001 0.00121966 0 -0.0172252 8.31089e-11 0 3.8153e-11 0 1.26239e-08
58 3 0.001 0.00158808 0 -0.0177378 -1.63599e-10 0 -1.43708e-10 0 1.23703e-08
60 3 0.001 0.000859245 0 -0.0167069 -1.69739e-10 0 -1.34859e-10 0 1.29231e-08
62 3 0.001 0.000168502 0 -0.0156502 -1.77521e-10 0 -1.29218e-10 0 1.36443e-08
61 3 0.001 0.000508355 0 -0.0161821 3.15934e-10 0 1.92245e-10 0 1.32646e-08
63 3 0.001 -0.000158792 0 -0.0151105 4.5221e-11 0 7.72062e-12 0 1.40572e-08
64 3 0.001 -0.000472003 0 -0.0145625 6.74281e-11 0 2.41795e-11 0 1.44975e-08
65 3 0.001 -0.000769617 0 -0.014006 -4.80236e-11 0 -4.14105e-11 0 1.49584e-08
66 3 0.001 -0.00105014 0 -0.0134406 1.92553e-10 0 7.2308e-11 0 1.54322e-08
67 3 0.001 -0.0013121 0 -0.0128665 -9.50361e-11 0 -6.34705e-11 0 1.59105e-08
68 3 0.001 -0.00155407 0 -0.0122837 -7.44569e-11 0 -3.8093e-11 0 1.63843e-08
69 3 0.001 -0.00177471 0 -0.0116926 3.72847e-10 0 1.16017e-10 0 1.6844e-08
70 3 0.001 -0.00197274 0 -0.0110935 -4.91504e-10 0 -1.60828e-10 0 1.72796e-08
72 3 0.001 -0.00229631 0 -0.00987413 -5.51946e-10 0 -1.28874e-10 0 1.80404e-08
71 3 0.001 -0.00214696 0 -0.0104871 7.07005e-10 0 1.73726e-10 0 1.76816e-08
73 3 0.001 -0.00241985 0 -0.00925546 3.08237e-10 0 5.26232e-11 0 1.83474e-08
75 3 0.001 -0.00258649 0 -0.0080051 -3.6633e-11 0 -2.04965e-11 0 1.87764e-08
74 3 0.001 -0.00251678 0 -0.00863209 1.38233e-11 0 -1.1654e-11 0 1.85949e-08
76 3 0.001 -0.0026285 0 -0.00737566 2.95979e-10 0 1.50038e-11 0 1.88873e-08
77 3 0.001 -0.00264253 0 -0.00674498 -4.05716e-10 0 2.21125e-11 0 1.89246e-08
78 3 0.001 -0.0026285 0 -0.0061143 5.57319e-10 0 -1.74336e-11 0 1.88873e-08
79 3 0.001 -0.00258649 0 -0.00548486 -5.11164e-10 0 2.65959e-11 0 1.87765e-08
80 3 0.001 -0.0025168 0 -0.00485788 6.41387e-10 0 -9.06707e-11 0 1.85949e-08
81 3 0.001 -0.00241986 0 -0.0042345 -5.95145e-10 0 1.24673e-10 0 1.83475e-08
82 3 0.001 -0.00229633 0 -0.00361583 6.26037e-10 0 -1.18052e-10 0 1.80406e-08
83 3 0.001 -0.00214698 0 -0.00300286 -4.01558e-10 0 1.1746e-10 0 1.76817e-08
84 3 0.001 -0.00197276 0 -0.00239646 2.82735e-10 0 -8.6042e-11 0 1.72798e-08
85 3 0.001 -0.00177474 0 -0.00179738 -2.57482e-11 0 8.32559e-12 0 1.68441e-08
86 3 0.001 -0.00155411 0 -0.00120622 -2.52678e-12 0 2.79172e-11 0 1.63845e-08
87 3 0.001 -0.00131213 0 -0.00062343 -7.95002e-11 0 6.24104e-11 0 1.59107e-08
88 3 0.001 -0.00105017 0 -4.93093e-05 3.77951e-10 0 -1.73687e-10 0 1.54324e-08
89 3 0.001 -0.000769656 0 0.000516014 -3.39095e-10 0 1.8053e-10 0 1.49586e-08
90 3 0.001 -0.000472044 0 0.00107257 2.59977e-10 0 -1.1029e-10 0 1.44977e-08
91 3 0.001 -0.000158835 0 0.00162053 -2.11196e-10 0 1.40907e-10 0 1.40574e-08
92 3 0.001 0.000168458 0 0.00216025 3.51269e-10 0 -2.0816e-10 0 1.36445e-08
93 3 0.001 0.000508309 0 0.00269217 -3.35932e-10 0 2.39969e-10 0 1.32648e-08
94 3 0.001 0.000859198 0 0.00321692 3.59804e-10 0 -2.28503e-10 0 1.29233e-08
95 3 0.001 0.00121961 0 0.00373521 -2.99702e-10 0 2.41841e-10 0 1.26241e-08
96 3 0.001 0.00158804 0 0.00424786 2.57724e-10 0 -1.74535e-10 0 1.23705e-08
97 3 0.001 0.00196299 0 0.00475577 -1.92498e-10 0 1.4416e-10 0 1.21652e-08
98 3 0.001 0.00234298 0 0.00525995 1.37595e-10 0 -8.92531e-11 0 1.20101e-08
99 3 0.001 0.00272656 0 0.00576142 7.01347e-11 0 -3.32309e-11 0 1.19067e-08
100 3 0.001 0.00311225 0 0.00626126 -2.0278e-10 0 1.77412e-10 0 1.18558e-08
101 3 0.001 0.00349861 0 0.0067606 1.96629e-10 0 -1.36081e-10 0 1.18579e-08
102 3 0.001 0.0038842 0 0.00726053 -1.40468e-10 0 9.78705e-11 0 1.19129e-08
103 3 0.001 0.00426754 0 0.00776218 5.31255e-11 0 -3.82119e-11 0 1.20204e-08
104 3 0.001 0.0046472 0 0.0082666 1.12617e-10 0 -5.92275e-11 0 1.21794e-08
105 3 0.001 0.0050217 0 0.00877485 -2.17092e-10 0 1.72132e-10 0 1.23886e-08
106 3 0.001 0.00538955 0 0.00928791 2.38936e-10 0 -1.54325e-10 0 1.26458e-08
107 3 0.001 0.00574928 0 0.00980667 -3.40715e-10 0 2.11089e-10 0 1.29485e-08
108 3 0.001 0.00609936 0 0.010332 3.27899e-10 0 -2.18025e-10 0 1.32931e-08
109 3 0.001 0.00643829 0 0.0108645 -1.37536e-10 0 1.04565e-10 0 1.36756e-08
110 3 0.001 0.00676454 0 0.0114048 -2.08913e-11 0 2.64595e-11 0 1.40909e-08
111 3 0.001 0.0070766 0 0.0119534 -1.38161e-10 0 6.74716e-11 0 1.4533e-08
112 3 0.001 0.00737293 0 0.0125107 2.80979e-10 0 -1.61294e-10 0 1.49952e-08
113 3 0.001 0.00765206 0 0.0130767 -2.40799e-10 0 1.25614e-10 0 1.54697e-08
114 3 0.001 0.00791251 0 0.0136515 1.39313e-10 0 -5.5261e-11 0 1.5948e-08
115 3 0.001 0.00815287 0 0.0142349 -2.67747e-10 0 9.6015e-11 0 1.64211e-08
116 3 0.001 0.0083718 0 0.0148267 4.298e-10 0 -1.51589e-10 0 1.68792e-08
117 3 0.001 0.00856801 0 0.0154264 -6.21216e-10 0 1.80259e-10 0 1.73126e-08
118 3 0.001 0.00874033 0 0.0160333 6.98058e-10 0 -1.68723e-10 0 1.77116e-08
119 3 0.001 0.0088877 0 0.0166468 -6.65783e-10 0 1.49764e-10 0 1.80667e-08
120 3 0.001 0.00900919 0 0.0172659 5.50007e-10 0 -1.07445e-10 0 1.83681e-08
121 3 0.001 0.00910403 0 0.0178895 -5.7191e-10 0 5.89403e-11 0 1.85781e-08
122 3 0.001 0.00917159 0 0.0185168 6.15103e-10 0 -6.43775e-11 0 1.86966e-08
123 3 0.001 0.00921137 0 0.0191464 -6.12774e-10 0 4.68026e-11 0 1.88014e-08
124 3 0.001 0.00922298 0 0.0197771 4.60401e-10 0 1.77957e-11 0 1.89648e-08
125 3 0.001 0.00920604 0 0.0204077 -2.91515e-10 0 -2.29458e-11 0 1.92113e-08
126 3 0.001 0.00916023 0 0.0210368 1.0227e-10 0 -1.66079e-11 0 1.95053e-08
127 3 0.001 0.00908533 0 0.0216632 1.21276e-10 0 5.00443e-12 0 1.97605e-08
128 3 0.001 0.00898119 0 0.0222853 -3.67623e-10 0 -6.10987e-11 0 1.98997e-08
129 3 0.001 0.00884787 0 0.0229018 4.86735e-10 0 1.40164e-10 0 1.99247e-08
130 3 0.001 0.00868562 0 0.0235113 -4.5065e-10 0 -1.31679e-10 0 1.98613e-08
132 3 0.001 0.00827636 0 0.0247043 3.42335e-11 0 1.66907e-12 0 1.94795e-08
131 3 0.001 0.0084949 0 0.0241126 2.32764e-10 0 6.03926e-11 0 1.97116e-08
133 3 0.001 0.00803083 0 0.0252854 -1.40585e-10 0 -5.94763e-11 0 1.91715e-08
134 3 0.001 0.0077593 0 0.0258548 -1.06961e-12 0 1.27177e-11 0 1.87959e-08
135 3 0.001 0.00746292 0 0.0264117 2.41651e-10 0 1.38705e-10 0 1.83624e-08
137 3 0.001 0.00680071 0 0.0274854 3.81992e-10 0 2.47808e-10 0 1.73663e-08
138 3 0.001 0.00643768 0 0.0280015 -3.30683e-10 0 -2.4292e-10 0 1.68271e-08
136 3 0.001 0.00714294 0 0.0269554 -3.9005e-10 0 -2.47727e-10 0 1.7882e-08
141 3 0.001 0.00523877 0 0.0294656 -1.51196e-10 0 -1.39675e-10 0 1.5183e-08
139 3 0.001 0.00605533 0 0.0285035 2.41709e-10 0 1.99128e-10 0 1.62761e-08
140 3 0.001 0.00565518 0 0.0289914 -5.3698e-11 0 -4.54044e-11 0 1.57245e-08
145 3 0.001 0.00344089 0 0.0312365 -5.21368e-11 0 -7.40136e-11 0 1.3291e-08
142 3 0.001 0.00480764 0 0.0299265 1.74554e-10 0 1.60393e-10 0 1.46609e-08
143 3 0.001 0.00436329 0 0.0303747 -1.15701e-10 0 -1.11729e-10 0 1.41669e-08
144 3 0.001 0.00390722 0 0.0308111 1.07536e-10 0 1.27372e-10 0 1.37082e-08
148 3 0.001 0.00199415 0 0.0324583 -3.67787e-10 0 -4.55185e-10 0 1.23355e-08
146 3 0.001 0.00296569 0 0.031652 -1.24555e-10 0 -1.48366e-10 0 1.29206e-08
147 3 0.001 0.00248301 0 0.0320589 3.07883e-10 0 3.78137e-10 0 1.2601e-08
151 3 0.001 0.000502711 0 0.0336269 -1.31614e-12 0 -3.63479e-13 0 5.02925e-09
2 2 0.001 0 0 0.03401 -0.0034884 0 0.0151528 0 2.49484e-09
149 3 0.001 0.00150042 0 0.0328518 2.6838e-10 0 3.52414e-10 0 1.19168e-08
150 3 0.001 0.00100303 0 0.0332407 -1.04448e-10 0 -1.49409e-10 0 8.34287e-09
