ITEM: TIMESTEP
1500000
ITEM: NUMBER OF ATOMS
151
ITEM: BOX BOUNDS ff ff ff
-1.0000000000000000e-02 1.0000000000000000e-02
-6.0000000000000001e-03 6.0000000000000001e-03
-5.2499999999999998e-02 5.2499999999999998e-02
ITEM: ATOMS id type radius x y z fx fy fz c_bendingE c_stretchingE
1 1 0.001 0 0 -0.0475 -0.00119595 0 -0.00588065 0 1.23549e-10
3 3 0.001 0.000244595 0 -0.0469161 -2.07699e-08 0 2.75407e-07 0 2.47184e-10
4 3 0.001 0.000488762 0 -0.046332 1.45775e-08 0 8.63687e-08 0 1.45584e-09
5 3 0.001 0.000732252 0 -0.0457484 1.25987e-07 0 1.35619e-07 0 2.76194e-09
6 3 0.001 0.00097509 0 -0.0451645 6.61843e-08 0 9.88114e-08 0 2.86021e-09
7 3 0.001 0.00121708 0 -0.0445803 -3.0306e-07 0 -3.49051e-07 0 2.86218e-09
8 3 0.001 0.00145801 0 -0.0439956 -2.64692e-07 0 5.64125e-09 0 2.86464e-09
9 3 0.001 0.00169767 0 -0.0434104 -2.55556e-07 0 1.01155e-08 0 2.86728e-09
10 3 0.001 0.00193585 0 -0.0428247 -1.08615e-07 0 3.07198e-08 0 2.87022e-09
11 3 0.001 0.00217235 0 -0.0422382 1.50514e-07 0 5.13242e-07 0 2.87319e-09
12 3 0.001 0.00240698 0 -0.041651 -1.59962e-07 0 -1.76084e-07 0 2.87655e-09
13 3 0.001 0.00263952 0 -0.0410629 -2.2872e-07 0 -1.82139e-08 0 2.88049e-09
14 3 0.001 0.00286978 0 -0.040474 -2.09587e-07 0 1.19382e-07 0 2.88455e-09
15 3 0.001 0.00309758 0 -0.0398841 -2.61335e-07 0 -1.75921e-07 0 2.88891e-09
16 3 0.001 0.00332271 0 -0.0392931 7.6541e-08 0 4.43252e-07 0 2.89325e-09
17 3 0.001 0.003545 0 -0.0387012 3.3611e-08 0 3.92431e-07 0 2.89742e-09
18 3 0.001 0.00376426 0 -0.038108 -2.35241e-07 0 3.95489e-08 0 2.90195e-09
19 3 0.001 0.00398032 0 -0.0375137 -2.16317e-07 0 2.90593e-07 0 2.90665e-09
20 3 0.001 0.00419301 0 -0.0369182 -1.84963e-07 0 1.14235e-07 0 2.91136e-09
21 3 0.001 0.00440217 0 -0.0363215 -7.81628e-08 0 -1.28766e-07 0 2.91624e-09
22 3 0.001 0.00460762 0 -0.0357234 9.27956e-08 0 1.6783e-07 0 2.92102e-09
23 3 0.001 0.00480923 0 -0.0351241 -6.01598e-08 0 -8.93482e-08 0 2.92573e-09
24 3 0.001 0.00500683 0 -0.0345234 -1.66129e-07 0 -8.13735e-08 0 2.93049e-09
25 3 0.001 0.0052003 0 -0.0339213 -2.55859e-07 0 -3.23445e-07 0 2.93526e-09
26 3 0.001 0.0053895 0 -0.033318 -5.54181e-08 0 -1.57648e-08 0 2.93982e-09
27 3 0.001 0.00557429 0 -0.0327132 1.42065e-07 0 2.89429e-07 0 2.94382e-09
28 3 0.001 0.00575458 0 -0.0321071 -3.04278e-08 0 -3.42795e-07 0 2.94775e-09
29 3 0.001 0.00593023 0 -0.0314997 1.70553e-07 0 4.42527e-07 0 2.95134e-09
30 3 0.001 0.00610116 0 -0.0308909 4.76829e-08 0 1.13297e-07 0 2.95442e-09
31 3 0.001 0.00626727 0 -0.0302807 1.06104e-07 0 -2.21518e-08 0 2.95741e-09
32 3 0.001 0.00642847 0 -0.0296693 3.1889e-07 0 3.33928e-07 0 2.95992e-09
33 3 0.001 0.00658468 0 -0.0290565 3.03642e-07 0 8.00243e-08 0 2.96201e-09
34 3 0.001 0.00673585 0 -0.0284425 1.58823e-07 0 -2.09003e-07 0 2.964e-09
35 3 0.001 0.00688192 0 -0.0278273 6.33428e-08 0 -1.9623e-07 0 2.96576e-09
36 3 0.001 0.00702283 0 -0.0272108 1.2287e-07 0 -9.2115e-09 0 2.96702e-09
37 3 0.001 0.00715855 0 -0.0265932 2.23241e-07 0 -1.7389e-07 0 2.96785e-09
38 3 0.001 0.00728905 0 -0.0259745 3.7842e-07 0 2.49869e-08 0 2.96821e-09
39 3 0.001 0.00741432 0 -0.0253547 3.52199e-07 0 -1.63669e-07 0 2.96814e-09
40 3 0.001 0.00753434 0 -0.0247338 3.29436e-07 0 6.54889e-08 0 2.96764e-09
41 3 0.001 0.00764913 0 -0.024112 3.32625e-07 0 9.98952e-08 0 2.96659e-09
42 3 0.001 0.00775869 0 -0.0234892 3.36157e-07 0 -3.34377e-09 0 2.96518e-09
43 3 0.001 0.00786304 0 -0.0228655 3.66295e-07 0 -1.44508e-07 0 2.96348e-09
44 3 0.001 0.00796223 0 -0.022241 3.79705e-07 0 -4.70997e-08 0 2.96142e-09
45 3 0.001 0.00805628 0 -0.0216157 3.21781e-07 0 -1.03358e-07 0 2.95898e-09
46 3 0.001 0.00814527 0 -0.0209896 2.41445e-07 0 -2.8854e-07 0 2.95631e-09
47 3 0.001 0.00822925 0 -0.0203629 3.07033e-07 0 2.29796e-07 0 2.95316e-09
48 3 0.001 0.00830829 0 -0.0197355 2.80761e-07 0 -5.69617e-07 0 2.94983e-09
49 3 0.001 0.00838248 0 -0.0191075 4.50884e-07 0 1.37698e-07 0 2.94627e-09
50 3 0.001 0.00845191 0 -0.018479 4.18338e-07 0 -1.22927e-07 0 2.94224e-09
51 3 0.001 0.00851668 0 -0.01785 2.97523e-07 0 -3.44465e-07 0 2.93823e-09
52 3 0.001 0.00857691 0 -0.0172205 2.35692e-07 0 1.63612e-07 0 2.93391e-09
53 3 0.001 0.00863271 0 -0.0165906 2.00645e-07 0 3.70122e-08 0 2.92925e-09
54 3 0.001 0.00868422 0 -0.0159604 2.73962e-07 0 3.69238e-07 0 2.92436e-09
55 3 0.001 0.00873157 0 -0.0153298 2.64165e-07 0 1.55943e-07 0 2.91934e-09
56 3 0.001 0.0087749 0 -0.0146989 2.1565e-07 0 1.84414e-08 0 2.91443e-09
57 3 0.001 0.00881437 0 -0.0140678 1.47723e-07 0 -1.6332e-07 0 2.90968e-09
58 3 0.001 0.00885015 0 -0.0134365 1.31956e-07 0 -2.08018e-07 0 2.90506e-09
59 3 0.001 0.00888239 0 -0.0128049 1.72568e-07 0 -4.6468e-08 0 2.90044e-09
60 3 0.001 0.00891128 0 -0.0121732 1.89666e-07 0 9.53946e-08 0 2.89576e-09
61 3 0.001 0.00893699 0 -0.0115414 1.56289e-07 0 2.76369e-07 0 2.89105e-09
62 3 0.001 0.00895971 0 -0.0109095 4.85092e-08 0 -4.07533e-08 0 2.88656e-09
63 3 0.001 0.00897964 0 -0.0102774 -4.01245e-08 0 1.28011e-07 0 2.88235e-09
64 3 0.001 0.00899697 0 -0.0096453 -4.76202e-08 0 3.60733e-07 0 2.87816e-09
65 3 0.001 0.00901191 0 -0.00901312 -3.5039e-09 0 -3.99514e-07 0 2.87439e-09
66 3 0.001 0.00902466 0 -0.00838088 7.83735e-08 0 -8.12985e-08 0 2.87089e-09
67 3 0.001 0.00903543 0 -0.00774862 5.25269e-08 0 -8.74231e-08 0 2.86734e-09
68 3 0.001 0.00904443 0 -0.00711632 -3.57692e-08 0 -2.26034e-07 0 2.8641e-09
69 3 0.001 0.00905187 0 -0.006484 -8.03833e-08 0 -1.55455e-07 0 2.86125e-09
70 3 0.001 0.00905793 0 -0.00585167 -5.00458e-08 0 5.74286e-08 0 2.85867e-09
71 3 0.001 0.0090628 0 -0.00521932 -1.70726e-08 0 1.3284e-07 0 2.8564e-09
72 3 0.001 0.00906663 0 -0.00458697 -6.6388e-08 0 2.12693e-07 0 2.85449e-09
73 3 0.001 0.00906956 0 -0.00395462 -1.31828e-07 0 1.76374e-07 0 2.85297e-09
74 3 0.001 0.00907172 0 -0.00332226 -1.60977e-07 0 9.86432e-08 0 2.85186e-09
75 3 0.001 0.00907319 0 -0.0026899 -9.6075e-08 0 -1.94484e-07 0 2.85125e-09
76 3 0.001 0.00907404 0 -0.00205753 -4.38191e-09 0 -1.96776e-07 0 2.85106e-09
77 3 0.001 0.00907431 0 -0.00142517 1.24549e-08 0 9.33596e-09 0 2.85103e-09
78 3 0.001 0.00907403 0 -0.000792805 -2.96215e-08 0 2.13991e-07 0 2.85105e-09
79 3 0.001 0.00907316 0 -0.000160442 -1.09531e-07 0 1.86152e-07 0 2.85124e-09
80 3 0.001 0.00907168 0 0.000471919 -1.4029e-07 0 -1.17377e-07 0 2.85187e-09
81 3 0.001 0.00906951 0 0.00110428 -9.97609e-08 0 -1.72583e-07 0 2.853e-09
82 3 0.001 0.00906656 0 0.00173664 -3.77234e-08 0 -1.92881e-07 0 2.85452e-09
83 3 0.001 0.00906271 0 0.00236899 -2.31771e-08 0 -1.1839e-07 0 2.85642e-09
84 3 0.001 0.00905782 0 0.00300133 -4.59829e-08 0 -5.86331e-08 0 2.85869e-09
85 3 0.001 0.00905174 0 0.00363366 -5.31134e-08 0 1.42984e-07 0 2.86128e-09
86 3 0.001 0.00904428 0 0.00426598 8.65178e-09 0 2.18599e-07 0 2.86415e-09
87 3 0.001 0.00903525 0 0.00489828 9.1013e-08 0 9.56059e-08 0 2.86739e-09
88 3 0.001 0.00902445 0 0.00553055 9.20633e-08 0 1.00373e-07 0 2.87092e-09
89 3 0.001 0.00901167 0 0.00616278 2.03049e-08 0 4.16215e-07 0 2.8744e-09
90 3 0.001 0.0089967 0 0.00679496 -9.31674e-09 0 -3.64346e-07 0 2.87817e-09
92 3 0.001 0.00895938 0 0.00805912 9.58383e-08 0 4.14624e-08 0 2.88659e-09
91 3 0.001 0.00897934 0 0.00742708 1.7902e-08 0 -1.38623e-07 0 2.88237e-09
93 3 0.001 0.00893662 0 0.00869107 1.88327e-07 0 -2.66826e-07 0 2.89107e-09
94 3 0.001 0.00891088 0 0.0093229 2.00518e-07 0 -8.10187e-08 0 2.89577e-09
95 3 0.001 0.00888195 0 0.00995459 2.02873e-07 0 5.97865e-08 0 2.90043e-09
97 3 0.001 0.00881386 0 0.0112175 2.1745e-07 0 1.68151e-07 0 2.90966e-09
96 3 0.001 0.00884967 0 0.0105861 2.05587e-07 0 2.14597e-07 0 2.90505e-09
98 3 0.001 0.00877435 0 0.0118486 2.492e-07 0 -9.72065e-09 0 2.91441e-09
99 3 0.001 0.00873098 0 0.0124794 2.55789e-07 0 -1.40842e-07 0 2.9193e-09
100 3 0.001 0.0086836 0 0.01311 2.69384e-07 0 -3.54125e-07 0 2.92431e-09
102 3 0.001 0.00857622 0 0.0143701 3.15808e-07 0 -1.60755e-07 0 2.93384e-09
101 3 0.001 0.00863206 0 0.0137403 2.53384e-07 0 -2.87542e-08 0 2.92918e-09
103 3 0.001 0.00851596 0 0.0149996 3.37887e-07 0 3.44651e-07 0 2.93817e-09
104 3 0.001 0.00845115 0 0.0156286 3.99604e-07 0 1.25954e-07 0 2.94217e-09
105 3 0.001 0.00838169 0 0.0162572 4.00153e-07 0 -1.30615e-07 0 2.9462e-09
106 3 0.001 0.00830747 0 0.0168851 2.84877e-07 0 5.78604e-07 0 2.94974e-09
107 3 0.001 0.00822839 0 0.0175125 3.67556e-07 0 -2.25036e-07 0 2.95306e-09
108 3 0.001 0.00814439 0 0.0181393 2.9294e-07 0 2.88186e-07 0 2.95622e-09
109 3 0.001 0.00805538 0 0.0187653 3.03685e-07 0 9.94519e-08 0 2.95889e-09
110 3 0.001 0.00796129 0 0.0193906 3.11072e-07 0 5.17253e-08 0 2.96132e-09
111 3 0.001 0.00786208 0 0.0200151 3.20471e-07 0 1.49341e-07 0 2.96337e-09
112 3 0.001 0.0077577 0 0.0206388 3.67508e-07 0 9.04477e-09 0 2.96506e-09
114 3 0.001 0.00753332 0 0.0218834 3.35337e-07 0 -7.36366e-08 0 2.96753e-09
113 3 0.001 0.00764812 0 0.0212616 3.74465e-07 0 -1.06033e-07 0 2.96648e-09
117 3 0.001 0.00715748 0 0.0237428 2.16274e-07 0 1.85288e-07 0 2.96771e-09
115 3 0.001 0.00741328 0 0.0225043 2.87394e-07 0 1.60101e-07 0 2.96804e-09
116 3 0.001 0.007288 0 0.0231241 3.10144e-07 0 -1.90786e-08 0 2.96809e-09
119 3 0.001 0.00688083 0 0.0249768 9.73413e-08 0 1.8653e-07 0 2.96563e-09
118 3 0.001 0.00702175 0 0.0243604 1.64597e-07 0 1.00057e-08 0 2.96688e-09
121 3 0.001 0.00658359 0 0.0262061 2.24347e-07 0 -8.23329e-08 0 2.96188e-09
120 3 0.001 0.00673476 0 0.0255921 1.19373e-07 0 2.02516e-07 0 2.96388e-09
122 3 0.001 0.00642737 0 0.0268188 2.99038e-07 0 -3.27502e-07 0 2.95979e-09
124 3 0.001 0.00610007 0 0.0280404 1.22314e-07 0 -1.03017e-07 0 2.95429e-09
123 3 0.001 0.00626617 0 0.0274303 1.5446e-07 0 2.71097e-08 0 2.95727e-09
127 3 0.001 0.00557323 0 0.0298628 1.0025e-07 0 -2.76054e-07 0 2.94368e-09
125 3 0.001 0.00592915 0 0.0286492 1.65407e-07 0 -4.41431e-07 0 2.95122e-09
126 3 0.001 0.0057535 0 0.0292567 -9.75928e-08 0 3.45922e-07 0 2.94763e-09
128 3 0.001 0.00538845 0 0.0304676 -3.46416e-09 0 3.79871e-08 0 2.93966e-09
129 3 0.001 0.00519927 0 0.0310709 -1.53148e-07 0 3.46562e-07 0 2.93511e-09
131 3 0.001 0.00480824 0 0.0322737 -9.50817e-08 0 9.13905e-08 0 2.92559e-09
130 3 0.001 0.00500582 0 0.031673 -1.06305e-07 0 9.9287e-08 0 2.93035e-09
132 3 0.001 0.00460666 0 0.032873 5.03774e-08 0 -1.63761e-07 0 2.92088e-09
133 3 0.001 0.00440123 0 0.0334711 -5.92235e-08 0 1.42973e-07 0 2.91609e-09
134 3 0.001 0.00419211 0 0.0340679 -6.71607e-08 0 -8.30231e-08 0 2.91122e-09
135 3 0.001 0.00397945 0 0.0346634 -1.11839e-07 0 -2.68327e-07 0 2.90653e-09
136 3 0.001 0.00376343 0 0.0352577 -1.95983e-07 0 -3.05039e-08 0 2.90185e-09
137 3 0.001 0.0035442 0 0.0358508 -7.9962e-09 0 -3.9171e-07 0 2.89733e-09
138 3 0.001 0.00332195 0 0.0364428 6.14566e-08 0 -4.25584e-07 0 2.89314e-09
139 3 0.001 0.00309686 0 0.0370338 -1.843e-07 0 2.0608e-07 0 2.8888e-09
142 3 0.001 0.00240641 0 0.0388007 -1.67638e-07 0 1.88442e-07 0 2.8765e-09
141 3 0.001 0.0026389 0 0.0382127 -1.40639e-07 0 4.20226e-08 0 2.88043e-09
140 3 0.001 0.00286912 0 0.0376237 -9.15863e-08 0 -9.80914e-08 0 2.88447e-09
143 3 0.001 0.00217184 0 0.039388 1.08804e-07 0 -5.07645e-07 0 2.87313e-09
144 3 0.001 0.00193539 0 0.0399745 -9.36544e-08 0 -2.2055e-08 0 2.87016e-09
145 3 0.001 0.00169726 0 0.0405603 -1.58918e-07 0 1.90565e-08 0 2.86723e-09
146 3 0.001 0.00145765 0 0.0411455 -1.85721e-07 0 1.31022e-08 0 2.86461e-09
147 3 0.001 0.00121678 0 0.0417302 -2.7029e-07 0 3.65105e-07 0 2.86217e-09
149 3 0.001 0.000732073 0 0.0428983 9.41378e-08 0 -1.39923e-07 0 2.76191e-09
148 3 0.001 0.000974852 0 0.0423144 1.37681e-08 0 -9.80509e-08 0 2.86019e-09
150 3 0.001 0.000488642 0 0.043482 4.3582e-08 0 -8.60844e-08 0 1.45583e-09
151 3 0.001 0.000244534 0 0.0440661 7.1933e-08 0 -2.5539e-07 0 2.47183e-10
2 2 0.001 0 0 0.04465 -0.00119644 0 0.00588033 0 1.2355e-10
