ITEM: TIMESTEP
1300000
ITEM: NUMBER OF ATOMS
151
ITEM: BOX BOUNDS ff ff ff
-1.0000000000000000e-02 1.0000000000000000e-02
-6.0000000000000001e-03 6.0000000000000001e-03
-5.2499999999999998e-02 5.2499999999999998e-02
ITEM: ATOMS id type radius x y z fx fy fz c_bendingE c_stretchingE
1 1 0.001 0 0 -0.0475 -0.000634803 0 -0.00392977 0 2.24089e-12
3 3 0.001 0.000213489 0 -0.0469037 -8.95615e-08 0 -1.07405e-06 0 4.45549e-12
4 3 0.001 0.000426706 0 -0.0463073 1.16005e-07 0 4.49231e-08 0 5.71286e-10
5 3 0.001 0.000639433 0 -0.0457114 -3.59225e-07 0 -5.21255e-07 0 1.20154e-09
6 3 0.001 0.000851742 0 -0.0451154 -3.76852e-07 0 -6.10595e-07 0 1.26537e-09
7 3 0.001 0.00106351 0 -0.0445192 4.91864e-07 0 1.24353e-06 0 1.26564e-09
8 3 0.001 0.0012746 0 -0.0439228 3.10475e-07 0 1.19724e-07 0 1.26571e-09
9 3 0.001 0.00148489 0 -0.0433261 2.00006e-07 0 -1.89704e-07 0 1.26635e-09
10 3 0.001 0.00169423 0 -0.042729 5.14015e-08 0 1.46027e-07 0 1.2671e-09
11 3 0.001 0.0019025 0 -0.0421316 -2.12427e-07 0 -2.81278e-07 0 1.26801e-09
12 3 0.001 0.00210957 0 -0.0415337 4.95435e-08 0 3.502e-07 0 1.26895e-09
13 3 0.001 0.00231531 0 -0.0409354 4.16166e-07 0 6.20081e-07 0 1.26963e-09
14 3 0.001 0.00251958 0 -0.0403366 3.69867e-07 0 2.58478e-07 0 1.27038e-09
15 3 0.001 0.00272226 0 -0.0397373 1.13684e-07 0 -5.24976e-08 0 1.27144e-09
16 3 0.001 0.00292324 0 -0.0391374 -1.27576e-07 0 -2.02647e-07 0 1.27275e-09
17 3 0.001 0.00312237 0 -0.0385368 9.60606e-09 0 3.89727e-07 0 1.27401e-09
18 3 0.001 0.00331955 0 -0.0379357 7.04053e-08 0 -1.37273e-07 0 1.27528e-09
19 3 0.001 0.00351465 0 -0.0373338 3.03691e-07 0 1.81879e-07 0 1.27663e-09
20 3 0.001 0.00370756 0 -0.0367313 -4.74423e-08 0 -8.01635e-07 0 1.27823e-09
21 3 0.001 0.00389815 0 -0.036128 -5.4887e-07 0 -1.55031e-06 0 1.2805e-09
22 3 0.001 0.00408633 0 -0.0355239 -1.04483e-07 0 2.53168e-07 0 1.28247e-09
23 3 0.001 0.00427197 0 -0.0349191 -2.60956e-07 0 -5.47509e-07 0 1.28411e-09
24 3 0.001 0.00445498 0 -0.0343134 1.25202e-07 0 7.04657e-08 0 1.28581e-09
25 3 0.001 0.00463524 0 -0.033707 4.20012e-07 0 9.62936e-07 0 1.28697e-09
26 3 0.001 0.00481266 0 -0.0330997 2.32787e-07 0 9.61961e-07 0 1.28784e-09
27 3 0.001 0.00498714 0 -0.0324915 -2.04224e-07 0 9.53643e-08 0 1.28903e-09
28 3 0.001 0.00515858 0 -0.0318825 -1.43035e-07 0 5.17232e-07 0 1.29037e-09
29 3 0.001 0.0053269 0 -0.0312727 -3.41869e-07 0 -4.5312e-07 0 1.29186e-09
30 3 0.001 0.005492 0 -0.0306619 -4.08237e-07 0 -1.20289e-06 0 1.29388e-09
31 3 0.001 0.0056538 0 -0.0300503 -1.96826e-07 0 -2.65873e-07 0 1.2958e-09
32 3 0.001 0.00581222 0 -0.0294377 -3.70409e-07 0 -1.80508e-07 0 1.29733e-09
33 3 0.001 0.00596719 0 -0.0288243 -2.28355e-07 0 9.69258e-07 0 1.29842e-09
34 3 0.001 0.00611863 0 -0.02821 -3.02465e-07 0 7.21646e-07 0 1.29915e-09
35 3 0.001 0.00626648 0 -0.0275949 -3.04804e-07 0 2.78511e-07 0 1.30004e-09
36 3 0.001 0.00641067 0 -0.0269788 -2.12739e-07 0 3.84882e-07 0 1.30095e-09
37 3 0.001 0.00655115 0 -0.026362 -5.46551e-07 0 -5.488e-07 0 1.30206e-09
38 3 0.001 0.00668786 0 -0.0257442 -6.88455e-07 0 -4.0616e-07 0 1.30337e-09
39 3 0.001 0.00682075 0 -0.0251257 -6.45163e-07 0 2.1766e-07 0 1.30434e-09
40 3 0.001 0.00694978 0 -0.0245063 -5.86008e-07 0 2.2945e-07 0 1.30501e-09
41 3 0.001 0.00707491 0 -0.0238861 -3.52551e-07 0 1.00278e-06 0 1.3053e-09
42 3 0.001 0.0071961 0 -0.0232651 -5.15225e-07 0 8.01311e-08 0 1.30553e-09
43 3 0.001 0.00731333 0 -0.0226434 -6.62319e-07 0 -8.45113e-08 0 1.30602e-09
44 3 0.001 0.00742657 0 -0.022021 -7.46745e-07 0 -5.83972e-08 0 1.30646e-09
45 3 0.001 0.0075358 0 -0.0213978 -8.61031e-07 0 -5.79201e-07 0 1.30696e-09
46 3 0.001 0.00764101 0 -0.0207739 -5.88514e-07 0 5.66966e-07 0 1.30713e-09
47 3 0.001 0.00774219 0 -0.0201494 -4.36133e-07 0 8.55842e-07 0 1.3067e-09
48 3 0.001 0.00783934 0 -0.0195242 -5.61192e-07 0 -7.48747e-08 0 1.30636e-09
49 3 0.001 0.00793245 0 -0.0188984 -6.44928e-07 0 3.50197e-07 0 1.30609e-09
50 3 0.001 0.00802155 0 -0.0182721 -8.87714e-07 0 -8.72568e-07 0 1.30597e-09
51 3 0.001 0.00810663 0 -0.0176451 -9.20254e-07 0 -1.42837e-06 0 1.30634e-09
52 3 0.001 0.00818772 0 -0.0170177 -6.6274e-07 0 -1.08547e-06 0 1.30666e-09
53 3 0.001 0.00826484 0 -0.0163897 -3.30859e-07 0 3.75721e-07 0 1.30626e-09
54 3 0.001 0.00833802 0 -0.0157613 -3.4107e-07 0 4.90317e-07 0 1.30523e-09
55 3 0.001 0.00840729 0 -0.0151324 -4.07171e-07 0 6.18375e-07 0 1.30404e-09
56 3 0.001 0.0084727 0 -0.0145031 -4.36422e-07 0 1.31311e-06 0 1.30249e-09
57 3 0.001 0.00853428 0 -0.0138734 -4.27653e-07 0 3.4508e-07 0 1.30094e-09
58 3 0.001 0.00859209 0 -0.0132434 -2.52847e-07 0 4.89066e-07 0 1.29958e-09
59 3 0.001 0.00864619 0 -0.012613 -1.53012e-07 0 7.12538e-09 0 1.29824e-09
60 3 0.001 0.00869662 0 -0.0119824 -1.66957e-07 0 6.25069e-08 0 1.29697e-09
61 3 0.001 0.00874346 0 -0.0113514 -3.34181e-07 0 -6.01764e-07 0 1.29585e-09
62 3 0.001 0.00878678 0 -0.0107202 -3.4194e-07 0 -7.08783e-07 0 1.29492e-09
63 3 0.001 0.00882664 0 -0.0100888 -1.13327e-07 0 -6.33183e-08 0 1.29377e-09
64 3 0.001 0.00886313 0 -0.00945719 1.34644e-07 0 5.03438e-07 0 1.29218e-09
65 3 0.001 0.00889632 0 -0.00882538 1.66334e-07 0 -3.80339e-07 0 1.29065e-09
66 3 0.001 0.00892631 0 -0.00819341 3.49285e-08 0 6.11259e-07 0 1.28907e-09
67 3 0.001 0.00895318 0 -0.0075613 -7.6227e-08 0 1.14783e-06 0 1.28697e-09
68 3 0.001 0.00897704 0 -0.00692907 -1.00596e-07 0 -1.05021e-06 0 1.28541e-09
69 3 0.001 0.00899797 0 -0.00629674 1.99079e-07 0 5.40689e-07 0 1.28405e-09
70 3 0.001 0.00901609 0 -0.00566431 3.55477e-07 0 1.6274e-07 0 1.28218e-09
71 3 0.001 0.00903149 0 -0.00503182 2.72097e-07 0 -8.84387e-07 0 1.28054e-09
72 3 0.001 0.00904428 0 -0.00439926 1.35554e-07 0 1.04344e-06 0 1.27847e-09
73 3 0.001 0.00905457 0 -0.00376666 -2.01051e-08 0 -5.37994e-07 0 1.27634e-09
74 3 0.001 0.00906244 0 -0.00313403 1.567e-07 0 -1.97161e-07 0 1.27484e-09
75 3 0.001 0.00906798 0 -0.00250137 3.74941e-07 0 2.52691e-08 0 1.27355e-09
76 3 0.001 0.00907124 0 -0.00186869 4.48537e-07 0 -1.09577e-07 0 1.27273e-09
77 3 0.001 0.00907226 0 -0.001236 2.52985e-07 0 9.73872e-09 0 1.27249e-09
78 3 0.001 0.00907104 0 -0.000603319 2.31401e-08 0 1.27502e-07 0 1.27277e-09
79 3 0.001 0.00906758 0 2.93565e-05 -8.27857e-09 0 -8.46559e-09 0 1.27362e-09
80 3 0.001 0.00906183 0 0.000662015 2.73652e-07 0 2.37364e-07 0 1.27493e-09
81 3 0.001 0.00905375 0 0.00129465 4.58989e-07 0 5.53652e-07 0 1.27643e-09
82 3 0.001 0.00904324 0 0.00192725 3.7981e-07 0 -1.05527e-06 0 1.27858e-09
83 3 0.001 0.00903023 0 0.0025598 3.26412e-08 0 8.51613e-07 0 1.28065e-09
84 3 0.001 0.0090146 0 0.00319229 -1.14033e-07 0 -1.75742e-07 0 1.28227e-09
85 3 0.001 0.00899625 0 0.0038247 4.18387e-08 0 -5.00924e-07 0 1.28411e-09
86 3 0.001 0.00897507 0 0.00445703 2.18504e-07 0 1.12085e-06 0 1.28544e-09
87 3 0.001 0.00895097 0 0.00508925 3.04554e-07 0 -1.08245e-06 0 1.28696e-09
88 3 0.001 0.00892385 0 0.00572135 3.70866e-08 0 -6.09403e-07 0 1.28903e-09
89 3 0.001 0.0088936 0 0.00635331 -2.5014e-07 0 3.40925e-07 0 1.29061e-09
90 3 0.001 0.00886015 0 0.00698511 -2.1541e-07 0 -4.97582e-07 0 1.29213e-09
92 3 0.001 0.00878329 0 0.00824812 4.60911e-08 0 7.97756e-07 0 1.29479e-09
91 3 0.001 0.00882341 0 0.00761672 -2.81393e-08 0 1.27633e-07 0 1.29368e-09
93 3 0.001 0.00873971 0 0.0088793 -1.42448e-07 0 6.52361e-07 0 1.29567e-09
94 3 0.001 0.00869262 0 0.00951023 -4.30602e-07 0 -7.92518e-08 0 1.29677e-09
95 3 0.001 0.00864192 0 0.0101409 -5.82881e-07 0 -3.63035e-08 0 1.29802e-09
97 3 0.001 0.00852951 0 0.0114012 -1.31588e-07 0 -2.54589e-07 0 1.30064e-09
96 3 0.001 0.00858757 0 0.0107712 -3.69971e-07 0 -4.52059e-07 0 1.29932e-09
98 3 0.001 0.00846768 0 0.0120309 -9.48933e-08 0 -1.23983e-06 0 1.30214e-09
99 3 0.001 0.00840203 0 0.0126601 -4.79326e-07 0 -5.96595e-07 0 1.30365e-09
100 3 0.001 0.00833251 0 0.013289 -7.32465e-07 0 -5.2368e-07 0 1.30482e-09
102 3 0.001 0.00818176 0 0.0145453 -5.33168e-07 0 1.14237e-06 0 1.30619e-09
101 3 0.001 0.0082591 0 0.0139174 -5.98551e-07 0 -4.01252e-07 0 1.30583e-09
103 3 0.001 0.00810045 0 0.0151727 -4.92332e-07 0 1.53261e-06 0 1.30583e-09
104 3 0.001 0.00801516 0 0.0157996 -7.43866e-07 0 9.18339e-07 0 1.30543e-09
105 3 0.001 0.00792587 0 0.016426 -8.63305e-07 0 -3.77382e-07 0 1.30552e-09
106 3 0.001 0.00783256 0 0.0170517 -9.2187e-07 0 -4.10241e-09 0 1.30579e-09
107 3 0.001 0.00773523 0 0.0176769 -4.44495e-07 0 -8.54003e-07 0 1.30612e-09
108 3 0.001 0.00763389 0 0.0183014 -2.2372e-07 0 -4.47392e-07 0 1.30652e-09
109 3 0.001 0.00752852 0 0.0189252 -5.4422e-07 0 6.82736e-07 0 1.3063e-09
110 3 0.001 0.00741914 0 0.0195484 -7.62314e-07 0 7.86359e-08 0 1.30577e-09
111 3 0.001 0.00730577 0 0.0201708 -9.06113e-07 0 5.53647e-08 0 1.30531e-09
112 3 0.001 0.00718843 0 0.0207925 -6.87691e-07 0 -1.13099e-07 0 1.30481e-09
114 3 0.001 0.00694191 0 0.0220336 -2.05752e-07 0 -1.00048e-07 0 1.30425e-09
113 3 0.001 0.00706713 0 0.0214135 -1.2331e-07 0 -9.43011e-07 0 1.30456e-09
115 3 0.001 0.00681281 0 0.022653 -4.37496e-07 0 -1.02969e-07 0 1.30354e-09
116 3 0.001 0.00667986 0 0.0232715 -7.734e-07 0 4.26256e-07 0 1.30253e-09
117 3 0.001 0.0065431 0 0.0238893 -7.06495e-07 0 4.87119e-07 0 1.30121e-09
119 3 0.001 0.0062584 0 0.0251222 2.90872e-08 0 -1.95205e-07 0 1.29923e-09
118 3 0.001 0.0064026 0 0.0245062 -1.23367e-07 0 -4.08752e-07 0 1.30013e-09
121 3 0.001 0.00595914 0 0.0263516 -1.65812e-07 0 -8.79935e-07 0 1.29755e-09
120 3 0.001 0.00611055 0 0.0257373 2.74916e-08 0 -5.72172e-07 0 1.29832e-09
122 3 0.001 0.00580421 0 0.026965 -4.26322e-07 0 1.71989e-07 0 1.29644e-09
124 3 0.001 0.00548412 0 0.0281892 -1.59356e-07 0 1.22271e-06 0 1.29307e-09
123 3 0.001 0.00564585 0 0.0275776 -1.65952e-07 0 2.13788e-07 0 1.29493e-09
125 3 0.001 0.00531912 0 0.0288 -1.04923e-09 0 5.78083e-07 0 1.29106e-09
126 3 0.001 0.00515091 0 0.0294099 3.44647e-08 0 -3.90919e-07 0 1.28954e-09
128 3 0.001 0.00480527 0 0.0306272 2.92788e-07 0 -9.87826e-07 0 1.28701e-09
127 3 0.001 0.0049796 0 0.030019 -1.66591e-07 0 -4.33843e-08 0 1.28818e-09
129 3 0.001 0.00462801 0 0.0312345 5.92722e-07 0 -9.7315e-07 0 1.28618e-09
131 3 0.001 0.00426512 0 0.0324467 -1.41245e-08 0 6.80499e-07 0 1.28336e-09
130 3 0.001 0.00444793 0 0.031841 4.09336e-07 0 1.67419e-08 0 1.28505e-09
133 3 0.001 0.00389173 0 0.0336558 -4.67301e-07 0 1.57018e-06 0 1.27973e-09
134 3 0.001 0.00370138 0 0.0342591 5.22828e-08 0 7.62639e-07 0 1.2775e-09
132 3 0.001 0.00407968 0 0.0330516 -1.84873e-08 0 -1.64297e-07 0 1.28169e-09
135 3 0.001 0.00350873 0 0.0348618 5.6717e-07 0 -1.59309e-07 0 1.27596e-09
136 3 0.001 0.0033139 0 0.0354637 2.75073e-07 0 2.21969e-07 0 1.27464e-09
138 3 0.001 0.00291816 0 0.0366656 -7.70097e-08 0 2.63054e-07 0 1.27208e-09
137 3 0.001 0.003117 0 0.036065 1.61443e-07 0 -2.51926e-07 0 1.27336e-09
139 3 0.001 0.0027175 0 0.0372656 1.9462e-07 0 3.32378e-08 0 1.27078e-09
141 3 0.001 0.00231119 0 0.038464 5.68815e-07 0 -5.74257e-07 0 1.26906e-09
140 3 0.001 0.00251514 0 0.0378651 5.14339e-07 0 -2.77224e-07 0 1.26977e-09
142 3 0.001 0.0021058 0 0.0390624 2.38977e-07 0 -2.12267e-07 0 1.26838e-09
143 3 0.001 0.00189908 0 0.0396604 -1.65876e-07 0 3.65207e-07 0 1.26742e-09
144 3 0.001 0.00169117 0 0.0402579 1.25791e-07 0 -1.37064e-07 0 1.2665e-09
145 3 0.001 0.00148219 0 0.0408551 2.30139e-07 0 1.14641e-07 0 1.26579e-09
146 3 0.001 0.00127228 0 0.0414519 4.0401e-07 0 -1.51947e-07 0 1.26522e-09
149 3 0.001 0.000638257 0 0.043241 -3.19154e-07 0 5.58796e-07 0 1.20102e-09
148 3 0.001 0.00085018 0 0.0426448 -3.13271e-07 0 7.26027e-07 0 1.26487e-09
147 3 0.001 0.00106157 0 0.0420485 5.88302e-07 0 -1.17541e-06 0 1.26516e-09
150 3 0.001 0.00042592 0 0.043837 1.26742e-07 0 -1.19392e-07 0 5.71048e-10
151 3 0.001 0.000213095 0 0.0444336 -1.12068e-07 0 9.8357e-07 0 4.48228e-12
2 2 0.001 0 0 0.04503 -0.000636963 0 0.0039278 0 2.2535e-12
