ITEM: TIMESTEP
2700000
ITEM: NUMBER OF ATOMS
151
ITEM: BOX BOUNDS ff ff ff
-1.0000000000000000e-02 1.0000000000000000e-02
-6.0000000000000001e-03 6.0000000000000001e-03
-5.2499999999999998e-02 5.2499999999999998e-02
ITEM: ATOMS id type radius x y z fx fy fz c_bendingE c_stretchingE
1 1 0.001 0 0 -0.0475 -0.00525885 0 -0.0149357 0 4.74934e-09
3 3 0.001 0.000396685 0 -0.0470086 -5.86737e-09 0 3.10072e-09 0 9.51407e-09
4 3 0.001 0.000791743 0 -0.0465158 8.88479e-09 0 -8.96888e-09 0 1.37266e-08
5 3 0.001 0.00118477 0 -0.0460223 -6.62897e-09 0 5.20444e-09 0 1.82205e-08
6 3 0.001 0.00157534 0 -0.0455269 -2.32761e-09 0 2.92876e-09 0 1.85581e-08
7 3 0.001 0.00196268 0 -0.0450289 1.79146e-08 0 -1.4014e-08 0 1.86486e-08
8 3 0.001 0.00234598 0 -0.0445279 -1.47701e-08 0 1.20815e-08 0 1.87559e-08
9 3 0.001 0.00272444 0 -0.0440232 4.7713e-09 0 -4.9902e-09 0 1.88781e-08
10 3 0.001 0.00309728 0 -0.0435143 8.37775e-09 0 -4.50472e-09 0 1.90131e-08
11 3 0.001 0.00346372 0 -0.0430008 -4.51499e-09 0 3.77217e-09 0 1.91584e-08
12 3 0.001 0.00382298 0 -0.0424823 1.01083e-08 0 -7.88903e-09 0 1.93113e-08
13 3 0.001 0.00417432 0 -0.0419584 -1.51059e-08 0 8.89989e-09 0 1.94689e-08
14 3 0.001 0.004517 0 -0.0414288 2.19678e-08 0 -1.65536e-08 0 1.96282e-08
15 3 0.001 0.0048503 0 -0.0408933 -2.01384e-08 0 1.27132e-08 0 1.97862e-08
16 3 0.001 0.00517356 0 -0.0403516 2.24281e-08 0 -1.41451e-08 0 1.99396e-08
17 3 0.001 0.00548611 0 -0.0398037 -8.3773e-09 0 4.56235e-09 0 2.00853e-08
18 3 0.001 0.00578735 0 -0.0392496 3.2737e-09 0 -1.26496e-09 0 2.02205e-08
19 3 0.001 0.00607671 0 -0.0386891 -1.42242e-10 0 -3.449e-10 0 2.03421e-08
20 3 0.001 0.00635369 0 -0.0381224 7.41625e-09 0 -4.72583e-09 0 2.04478e-08
21 3 0.001 0.00661781 0 -0.0375497 -2.79863e-09 0 2.68173e-11 0 2.05352e-08
22 3 0.001 0.00686867 0 -0.036971 5.55213e-09 0 -2.04346e-09 0 2.06024e-08
23 3 0.001 0.00710594 0 -0.0363866 -2.99491e-09 0 7.45425e-10 0 2.0648e-08
24 3 0.001 0.00732936 0 -0.0357968 -2.55081e-10 0 7.52805e-10 0 2.06709e-08
25 3 0.001 0.00753873 0 -0.0352018 1.2945e-08 0 -4.11116e-09 0 2.06708e-08
26 3 0.001 0.00773393 0 -0.0346021 -1.22657e-08 0 3.12036e-09 0 2.06475e-08
27 3 0.001 0.00791493 0 -0.0339979 9.47293e-09 0 -2.95103e-09 0 2.06016e-08
28 3 0.001 0.00808177 0 -0.0333896 6.6027e-09 0 -3.06459e-09 0 2.05341e-08
29 3 0.001 0.00823457 0 -0.0327776 -2.17999e-08 0 3.72952e-09 0 2.04465e-08
30 3 0.001 0.00837353 0 -0.0321624 2.21168e-08 0 -4.9652e-09 0 2.03406e-08
31 3 0.001 0.00849895 0 -0.0315443 -3.42963e-09 0 9.91794e-11 0 2.02187e-08
32 3 0.001 0.00861117 0 -0.0309236 -1.51134e-08 0 -1.35572e-10 0 2.00834e-08
33 3 0.001 0.00871065 0 -0.0303007 1.60824e-08 0 -4.12254e-09 0 1.99375e-08
34 3 0.001 0.00879788 0 -0.029676 -3.27966e-09 0 -3.69441e-10 0 1.97841e-08
35 3 0.001 0.00887346 0 -0.0290497 -5.7437e-09 0 2.09301e-10 0 1.96261e-08
36 3 0.001 0.00893803 0 -0.0284223 1.81032e-09 0 1.44401e-09 0 1.94667e-08
37 3 0.001 0.00899229 0 -0.0277938 9.05312e-09 0 7.97611e-10 0 1.93092e-08
38 3 0.001 0.00903701 0 -0.0271646 -2.00171e-08 0 -2.36747e-10 0 1.91527e-08
39 3 0.001 0.00907299 0 -0.0265348 2.2243e-08 0 -2.12638e-09 0 1.89969e-08
40 3 0.001 0.00910109 0 -0.0259046 -1.23533e-08 0 -1.71495e-09 0 1.88477e-08
41 3 0.001 0.00912217 0 -0.0252741 -6.31123e-09 0 -1.39187e-09 0 1.87134e-08
42 3 0.001 0.00913708 0 -0.0246434 1.10278e-08 0 1.02195e-09 0 1.85995e-08
43 3 0.001 0.00914664 0 -0.0240126 -6.88172e-09 0 -1.28262e-09 0 1.85084e-08
44 3 0.001 0.00915162 0 -0.0233818 9.92589e-10 0 -4.29153e-10 0 1.84398e-08
45 3 0.001 0.00915275 0 -0.0227509 4.66521e-09 0 -7.11949e-10 0 1.83917e-08
46 3 0.001 0.00915068 0 -0.02212 -9.01224e-09 0 -1.11315e-09 0 1.83608e-08
47 3 0.001 0.009146 0 -0.0214892 5.69287e-09 0 6.81589e-10 0 1.83437e-08
48 3 0.001 0.00913922 0 -0.0208583 2.55792e-09 0 1.22438e-10 0 1.83368e-08
49 3 0.001 0.0091308 0 -0.0202275 -8.34355e-09 0 -5.03327e-11 0 1.83371e-08
50 3 0.001 0.00912112 0 -0.0195967 -1.53359e-09 0 -5.60319e-10 0 1.83418e-08
51 3 0.001 0.0091105 0 -0.0189659 1.10273e-08 0 1.1775e-09 0 1.83489e-08
52 3 0.001 0.00909921 0 -0.0183352 2.62633e-09 0 1.94228e-10 0 1.8357e-08
53 3 0.001 0.00908747 0 -0.0177044 -2.5586e-08 0 -1.24916e-09 0 1.83649e-08
54 3 0.001 0.00907546 0 -0.0170736 2.79196e-08 0 9.44575e-10 0 1.8372e-08
55 3 0.001 0.00906332 0 -0.0164429 -1.47011e-08 0 -1.44878e-09 0 1.8378e-08
56 3 0.001 0.00905118 0 -0.0158121 5.74227e-09 0 -3.43401e-10 0 1.83827e-08
57 3 0.001 0.00903911 0 -0.0151814 -6.75446e-09 0 -4.2295e-12 0 1.83861e-08
58 3 0.001 0.0090272 0 -0.0145506 1.45001e-08 0 2.11127e-10 0 1.83884e-08
59 3 0.001 0.00901551 0 -0.0139198 -1.38261e-08 0 -3.80097e-10 0 1.83898e-08
60 3 0.001 0.0090041 0 -0.0132891 -1.90541e-09 0 6.49215e-10 0 1.83904e-08
61 3 0.001 0.00899303 0 -0.0126583 1.59812e-08 0 5.28272e-10 0 1.83908e-08
62 3 0.001 0.00898234 0 -0.0120275 -7.56505e-09 0 -2.08742e-09 0 1.83913e-08
63 3 0.001 0.00897209 0 -0.0113967 -9.00548e-09 0 -1.84778e-09 0 1.83917e-08
64 3 0.001 0.00896232 0 -0.0107659 1.07788e-08 0 -1.83463e-09 0 1.83922e-08
65 3 0.001 0.00895307 0 -0.0101351 8.76898e-09 0 -5.52421e-12 0 1.83926e-08
66 3 0.001 0.0089444 0 -0.00950434 -3.00118e-08 0 -1.45072e-10 0 1.83931e-08
67 3 0.001 0.00893634 0 -0.00887352 3.20591e-08 0 7.35845e-10 0 1.83936e-08
68 3 0.001 0.00892893 0 -0.00824269 -1.12246e-08 0 1.89411e-10 0 1.83941e-08
69 3 0.001 0.00892221 0 -0.00761186 -9.61201e-09 0 -2.90881e-11 0 1.83945e-08
70 3 0.001 0.0089162 0 -0.00698101 1.1135e-08 0 1.77782e-09 0 1.83949e-08
71 3 0.001 0.00891093 0 -0.00635017 -1.75676e-09 0 5.78901e-10 0 1.83953e-08
72 3 0.001 0.00890643 0 -0.00571931 -4.80521e-09 0 -1.05097e-09 0 1.83956e-08
73 3 0.001 0.00890272 0 -0.00508845 9.8857e-09 0 -1.94304e-09 0 1.83959e-08
74 3 0.001 0.00889982 0 -0.00445759 -1.79126e-08 0 1.79694e-10 0 1.83961e-08
75 3 0.001 0.00889774 0 -0.00382672 1.96411e-08 0 1.34444e-09 0 1.83963e-08
76 3 0.001 0.00889648 0 -0.00319585 -1.17505e-08 0 2.37472e-10 0 1.83964e-08
77 3 0.001 0.00889606 0 -0.00256498 3.42876e-09 0 -3.63163e-10 0 1.83964e-08
78 3 0.001 0.00889648 0 -0.00193411 -2.73007e-09 0 -2.07028e-10 0 1.83964e-08
79 3 0.001 0.00889773 0 -0.00130325 -2.65968e-09 0 -1.11846e-10 0 1.83963e-08
80 3 0.001 0.00889982 0 -0.00067238 1.03357e-08 0 1.63274e-10 0 1.83961e-08
81 3 0.001 0.00890272 0 -4.15164e-05 -1.58017e-08 0 9.78004e-10 0 1.83959e-08
82 3 0.001 0.00890643 0 0.000589343 1.55192e-08 0 -4.47521e-11 0 1.83956e-08
83 3 0.001 0.00891093 0 0.0012202 -1.65915e-08 0 -4.33404e-11 0 1.83953e-08
84 3 0.001 0.0089162 0 0.00185104 1.30251e-08 0 -7.82577e-10 0 1.8395e-08
85 3 0.001 0.00892221 0 0.00248189 -6.7668e-10 0 5.2205e-11 0 1.83946e-08
86 3 0.001 0.00892893 0 0.00311272 -7.14581e-09 0 -1.19108e-09 0 1.83941e-08
87 3 0.001 0.00893634 0 0.00374355 -1.05163e-09 0 -6.40525e-10 0 1.83937e-08
88 3 0.001 0.0089444 0 0.00437437 8.01545e-09 0 6.12776e-10 0 1.83932e-08
89 3 0.001 0.00895307 0 0.00500518 -1.88663e-09 0 1.12936e-09 0 1.83928e-08
90 3 0.001 0.00896231 0 0.00563598 -8.54046e-09 0 2.061e-09 0 1.83923e-08
91 3 0.001 0.00897208 0 0.00626677 1.23844e-08 0 5.29405e-10 0 1.83918e-08
92 3 0.001 0.00898234 0 0.00689756 -2.61587e-09 0 1.43814e-09 0 1.83914e-08
93 3 0.001 0.00899303 0 0.00752834 -1.49074e-08 0 5.52896e-10 0 1.8391e-08
94 3 0.001 0.0090041 0 0.00815911 2.17609e-08 0 -4.86417e-10 0 1.83906e-08
95 3 0.001 0.00901551 0 0.00878988 -1.51157e-08 0 1.31175e-10 0 1.83899e-08
96 3 0.001 0.00902719 0 0.00942064 8.22894e-09 0 -6.73392e-10 0 1.83886e-08
97 3 0.001 0.0090391 0 0.0100514 -7.33572e-09 0 2.54504e-10 0 1.83863e-08
98 3 0.001 0.00905117 0 0.0106822 3.55719e-09 0 1.21978e-09 0 1.83829e-08
99 3 0.001 0.00906332 0 0.0113129 8.05974e-09 0 1.24246e-09 0 1.83782e-08
100 3 0.001 0.00907546 0 0.0119437 -1.59922e-08 0 -3.5691e-10 0 1.83723e-08
101 3 0.001 0.00908747 0 0.0125744 1.82531e-09 0 8.43987e-10 0 1.83651e-08
102 3 0.001 0.00909921 0 0.0132052 1.99942e-08 0 -2.80504e-10 0 1.83572e-08
103 3 0.001 0.0091105 0 0.013836 -1.43189e-08 0 -1.14512e-09 0 1.83491e-08
104 3 0.001 0.00912112 0 0.0144667 -1.35461e-08 0 -2.22272e-10 0 1.8342e-08
105 3 0.001 0.0091308 0 0.0150975 2.22813e-08 0 -6.08909e-10 0 1.83373e-08
106 3 0.001 0.00913922 0 0.0157284 -1.18762e-08 0 1.15519e-09 0 1.83371e-08
107 3 0.001 0.009146 0 0.0163592 -4.15211e-10 0 3.41236e-10 0 1.8344e-08
108 3 0.001 0.00915068 0 0.0169901 7.19458e-09 0 9.87663e-10 0 1.83611e-08
109 3 0.001 0.00915275 0 0.0176209 -5.46831e-09 0 -7.35179e-11 0 1.8392e-08
110 3 0.001 0.00915162 0 0.0182518 -6.32606e-09 0 -4.31998e-10 0 1.84401e-08
111 3 0.001 0.00914664 0 0.0188826 1.07107e-08 0 1.95079e-09 0 1.85086e-08
112 3 0.001 0.00913709 0 0.0195134 -3.17454e-09 0 7.20913e-11 0 1.85998e-08
113 3 0.001 0.00912218 0 0.0201441 -1.07058e-08 0 1.4941e-09 0 1.87137e-08
114 3 0.001 0.00910111 0 0.0207746 1.77935e-08 0 1.88988e-09 0 1.8848e-08
115 3 0.001 0.00907301 0 0.0214048 -2.01958e-08 0 -1.33567e-09 0 1.89972e-08
116 3 0.001 0.00903703 0 0.0220346 1.80873e-08 0 2.59818e-09 0 1.91531e-08
118 3 0.001 0.00893805 0 0.0232923 1.98871e-09 0 -7.53916e-10 0 1.94671e-08
117 3 0.001 0.00899231 0 0.0226638 -1.19386e-08 0 -1.1239e-09 0 1.93095e-08
119 3 0.001 0.00887349 0 0.0239198 3.21955e-09 0 8.93236e-10 0 1.96265e-08
121 3 0.001 0.00871068 0 0.0251707 1.06169e-08 0 2.77785e-09 0 1.9938e-08
120 3 0.001 0.00879791 0 0.024546 -7.12665e-09 0 -3.28047e-10 0 1.97845e-08
122 3 0.001 0.0086112 0 0.0257936 -1.15331e-08 0 3.9016e-10 0 2.00839e-08
123 3 0.001 0.00849898 0 0.0264143 1.7129e-08 0 4.35164e-09 0 2.02192e-08
124 3 0.001 0.00837357 0 0.0270324 -2.00135e-08 0 -3.79403e-09 0 2.03411e-08
125 3 0.001 0.00823461 0 0.0276477 1.61076e-08 0 5.26514e-09 0 2.0447e-08
126 3 0.001 0.00808181 0 0.0282596 -1.59927e-08 0 -3.20788e-09 0 2.05347e-08
128 3 0.001 0.00773398 0 0.0294721 -8.66383e-09 0 -1.72118e-09 0 2.06481e-08
127 3 0.001 0.00791498 0 0.0288679 2.07541e-08 0 5.37045e-09 0 2.06022e-08
130 3 0.001 0.00732941 0 0.0306668 4.71102e-09 0 1.9751e-09 0 2.06716e-08
129 3 0.001 0.00753878 0 0.0300718 1.03172e-10 0 6.34761e-10 0 2.06714e-08
131 3 0.001 0.00710599 0 0.0312566 -1.42141e-09 0 1.56223e-10 0 2.06486e-08
132 3 0.001 0.00686872 0 0.031841 7.06842e-09 0 1.80055e-09 0 2.0603e-08
133 3 0.001 0.00661785 0 0.0324197 -2.01055e-09 0 -8.76428e-10 0 2.05358e-08
136 3 0.001 0.0057874 0 0.0341196 -1.49969e-08 0 -7.79494e-09 0 2.02211e-08
135 3 0.001 0.00607676 0 0.0335592 1.34136e-08 0 8.24775e-09 0 2.03428e-08
134 3 0.001 0.00635373 0 0.0329925 -1.35717e-09 0 2.18926e-10 0 2.04485e-08
138 3 0.001 0.0051736 0 0.0352217 2.35486e-09 0 1.93285e-09 0 1.99402e-08
139 3 0.001 0.00485034 0 0.0357633 -9.536e-09 0 -6.21519e-09 0 1.97868e-08
137 3 0.001 0.00548615 0 0.0346738 1.55588e-08 0 8.34239e-09 0 2.0086e-08
142 3 0.001 0.00382302 0 0.0373523 5.23429e-09 0 4.23461e-09 0 1.93119e-08
141 3 0.001 0.00417436 0 0.0368284 -2.64595e-09 0 -6.76104e-10 0 1.94695e-08
140 3 0.001 0.00451704 0 0.0362988 1.22671e-08 0 1.09176e-08 0 1.96289e-08
143 3 0.001 0.00346375 0 0.0378708 -1.07632e-08 0 -7.86935e-09 0 1.9159e-08
144 3 0.001 0.00309731 0 0.0383843 1.5348e-08 0 1.01303e-08 0 1.90137e-08
145 3 0.001 0.00272447 0 0.0388932 -3.58197e-09 0 -1.98035e-09 0 1.88787e-08
147 3 0.001 0.0019627 0 0.0398989 -1.29339e-10 0 -2.15813e-10 0 1.86492e-08
148 3 0.001 0.00157536 0 0.0403969 1.17997e-09 0 1.27696e-09 0 1.85588e-08
146 3 0.001 0.002346 0 0.0393979 4.01328e-09 0 6.83888e-10 0 1.87565e-08
151 3 0.001 0.000396689 0 0.0418786 -2.12499e-09 0 -1.35748e-09 0 9.51454e-09
150 3 0.001 0.000791751 0 0.0413858 3.01843e-09 0 3.73456e-09 0 1.37271e-08
149 3 0.001 0.00118478 0 0.0408923 -1.22485e-09 0 5.30274e-10 0 1.82211e-08
2 2 0.001 0 0 0.04237 -0.00525899 0 0.014936 0 4.74957e-09
