ITEM: TIMESTEP
8600000
ITEM: NUMBER OF ATOMS
151
ITEM: BOX BOUNDS ff ff ff
-1.0000000000000000e-02 1.0000000000000000e-02
-6.0000000000000001e-03 6.0000000000000001e-03
-5.2499999999999998e-02 5.2499999999999998e-02
ITEM: ATOMS id type radius x y z fx fy fz c_bendingE c_stretchingE
1 1 0.001 0 0 -0.0475 -0.00234873 0 -0.014749 0 1.63977e-09
3 3 0.001 0.000514631 0 -0.0471326 -2.49502e-09 0 2.94985e-09 0 3.31642e-09
4 3 0.001 0.0010268 0 -0.0467619 6.65345e-09 0 -9.79015e-09 0 6.14559e-09
5 3 0.001 0.00153596 0 -0.0463881 -1.09718e-08 0 1.53217e-08 0 9.21146e-09
6 3 0.001 0.00204135 0 -0.0460094 7.13847e-09 0 -8.76934e-09 0 9.60597e-09
7 3 0.001 0.00254169 0 -0.045624 7.27523e-09 0 -9.06151e-09 0 9.87705e-09
8 3 0.001 0.00303563 0 -0.0452305 -1.81683e-08 0 2.17677e-08 0 1.02056e-08
9 3 0.001 0.00352177 0 -0.0448275 1.67369e-08 0 -2.0262e-08 0 1.05894e-08
10 3 0.001 0.00399866 0 -0.0444136 -8.19756e-09 0 9.29818e-09 0 1.10255e-08
11 3 0.001 0.00446477 0 -0.0439877 -1.22981e-09 0 1.48444e-09 0 1.15098e-08
12 3 0.001 0.00491852 0 -0.0435487 3.8727e-10 0 1.4747e-10 0 1.20373e-08
13 3 0.001 0.00535827 0 -0.0430957 1.06288e-08 0 -9.73021e-09 0 1.26014e-08
14 3 0.001 0.00578235 0 -0.0426281 -1.03734e-08 0 8.84884e-09 0 1.31943e-08
15 3 0.001 0.00618902 0 -0.0421453 -6.35172e-09 0 4.11799e-09 0 1.38067e-08
16 3 0.001 0.00657656 0 -0.0416471 1.91052e-08 0 -1.40503e-08 0 1.4428e-08
17 3 0.001 0.00694322 0 -0.0411334 -1.43891e-08 0 1.06416e-08 0 1.50464e-08
18 3 0.001 0.00728728 0 -0.0406044 2.55517e-10 0 -3.773e-10 0 1.5649e-08
19 3 0.001 0.00760708 0 -0.0400604 7.95241e-09 0 -4.35199e-09 0 1.62225e-08
20 3 0.001 0.00790101 0 -0.039502 -8.62407e-09 0 4.09964e-09 0 1.67531e-08
21 3 0.001 0.00816757 0 -0.0389301 7.2351e-09 0 -3.34134e-09 0 1.72277e-08
22 3 0.001 0.00840541 0 -0.0383457 -1.47292e-10 0 2.92452e-10 0 1.76337e-08
23 3 0.001 0.0086133 0 -0.0377501 -1.56345e-08 0 4.52828e-09 0 1.796e-08
24 3 0.001 0.00879021 0 -0.0371445 3.06026e-08 0 -7.19817e-09 0 1.81974e-08
25 3 0.001 0.00893533 0 -0.0365305 -3.59707e-08 0 7.62949e-09 0 1.8339e-08
26 3 0.001 0.00904803 0 -0.0359098 3.23863e-08 0 -6.12923e-09 0 1.8369e-08
27 3 0.001 0.00912795 0 -0.035284 -1.4808e-08 0 1.82952e-09 0 1.82731e-08
28 3 0.001 0.00917495 0 -0.0346549 -1.70974e-08 0 3.20809e-10 0 1.81004e-08
29 3 0.001 0.00918906 0 -0.0340241 3.72308e-08 0 1.04838e-09 0 1.79353e-08
30 3 0.001 0.00917046 0 -0.0333935 -2.52676e-08 0 1.76754e-11 0 1.78087e-08
31 3 0.001 0.00911944 0 -0.0327647 -7.55063e-09 0 -2.45677e-09 0 1.76836e-08
32 3 0.001 0.00903645 0 -0.0321392 3.53271e-08 0 4.96485e-09 0 1.74811e-08
33 3 0.001 0.00892208 0 -0.0315187 -3.65418e-08 0 -7.4477e-09 0 1.71708e-08
34 3 0.001 0.00877713 0 -0.0309046 1.33087e-08 0 3.60936e-09 0 1.67793e-08
35 3 0.001 0.00860259 0 -0.0302983 6.85563e-09 0 3.10847e-09 0 1.63248e-08
37 3 0.001 0.00816958 0 -0.0291131 1.04247e-08 0 3.80206e-09 0 1.52744e-08
36 3 0.001 0.00839963 0 -0.0297008 -9.97303e-09 0 -3.44731e-09 0 1.58191e-08
38 3 0.001 0.00791387 0 -0.0285361 -1.67924e-08 0 -8.90901e-09 0 1.47035e-08
39 3 0.001 0.00763405 0 -0.0279704 2.14682e-08 0 1.17181e-08 0 1.41186e-08
40 3 0.001 0.00733175 0 -0.0274163 -1.54251e-08 0 -7.95962e-09 0 1.35316e-08
43 3 0.001 0.00630689 0 -0.0258246 3.47834e-09 0 3.68335e-09 0 1.18621e-08
42 3 0.001 0.00666645 0 -0.0263435 8.94068e-09 0 5.66311e-09 0 1.23942e-08
41 3 0.001 0.00700864 0 -0.026874 -1.50928e-09 0 -1.74821e-09 0 1.29536e-08
46 3 0.001 0.00514115 0 -0.0243321 5.43402e-10 0 -1.13675e-10 0 1.04968e-08
45 3 0.001 0.00554254 0 -0.0248195 1.19967e-08 0 8.77612e-09 0 1.09079e-08
44 3 0.001 0.00593168 0 -0.0253168 -1.52805e-08 0 -1.12919e-08 0 1.13646e-08
48 3 0.001 0.00430816 0 -0.0233828 1.48807e-08 0 1.43172e-08 0 9.82562e-09
47 3 0.001 0.00472915 0 -0.0238535 -1.10417e-08 0 -1.02381e-08 0 1.0135e-08
49 3 0.001 0.00387975 0 -0.0229187 -1.53135e-08 0 -1.28989e-08 0 9.57061e-09
53 3 0.001 0.00212238 0 -0.0211039 1.67116e-08 0 1.72583e-08 0 9.11785e-09
51 3 0.001 0.00300683 0 -0.0220058 4.93664e-10 0 -9.89167e-10 0 9.22931e-09
52 3 0.001 0.00256531 0 -0.0215541 -9.00634e-09 0 -9.34735e-09 0 9.14465e-09
50 3 0.001 0.00344547 0 -0.0224602 9.93936e-09 0 9.29338e-09 0 9.37151e-09
55 3 0.001 0.00123815 0 -0.0202018 1.96898e-08 0 1.94269e-08 0 9.23805e-09
54 3 0.001 0.00167951 0 -0.0206536 -2.28544e-08 0 -2.17913e-08 0 9.14903e-09
56 3 0.001 0.000799785 0 -0.0197471 -1.06278e-08 0 -1.088e-08 0 9.38457e-09
58 3 0.001 -6.20078e-05 0 -0.0188237 -1.85959e-09 0 -1.35366e-09 0 9.84711e-09
57 3 0.001 0.000365894 0 -0.0192882 5.60982e-09 0 4.71379e-09 0 9.58794e-09
59 3 0.001 -0.000482375 0 -0.0183524 -2.26199e-09 0 -1.35614e-09 0 1.01606e-08
61 3 0.001 -0.00129416 0 -0.017385 4.87619e-09 0 3.50958e-09 0 1.09409e-08
62 3 0.001 -0.0016823 0 -0.016887 -1.10371e-08 0 -8.35592e-09 0 1.14009e-08
60 3 0.001 -0.00089363 0 -0.0178732 9.4665e-10 0 6.20161e-10 0 1.05261e-08
65 3 0.001 -0.00275551 0 -0.0153272 8.4005e-09 0 5.3099e-09 0 1.29967e-08
64 3 0.001 -0.00241469 0 -0.0158586 -7.11209e-09 0 -4.70993e-09 0 1.24356e-08
63 3 0.001 -0.00205638 0 -0.0163784 1.14486e-08 0 8.1377e-09 0 1.19012e-08
66 3 0.001 -0.0030771 0 -0.014784 -1.10774e-08 0 -6.16623e-09 0 1.35758e-08
67 3 0.001 -0.00337776 0 -0.014229 7.70124e-09 0 4.20971e-09 0 1.4163e-08
68 3 0.001 -0.00365581 0 -0.0136624 -3.6753e-09 0 -2.14036e-09 0 1.47473e-08
70 3 0.001 -0.0041377 0 -0.0124962 2.19468e-09 0 8.82923e-10 0 1.58589e-08
69 3 0.001 -0.00390964 0 -0.0130846 1.99522e-09 0 1.55561e-10 0 1.53167e-08
71 3 0.001 -0.00433855 0 -0.011898 -1.24124e-08 0 -2.62728e-09 0 1.63612e-08
72 3 0.001 -0.00451089 0 -0.011291 2.58793e-08 0 6.58094e-09 0 1.68113e-08
73 3 0.001 -0.00465356 0 -0.0106764 -3.04281e-08 0 -6.61767e-09 0 1.71976e-08
74 3 0.001 -0.00476559 0 -0.0100555 1.89468e-08 0 2.82149e-09 0 1.75099e-08
75 3 0.001 -0.00484618 0 -0.00942971 -3.56221e-09 0 -1.3748e-09 0 1.77394e-08
76 3 0.001 -0.00489477 0 -0.00880067 -2.95942e-09 0 1.56106e-10 0 1.78799e-08
77 3 0.001 -0.00491101 0 -0.00816998 3.07585e-09 0 1.14603e-09 0 1.79271e-08
78 3 0.001 -0.00489478 0 -0.00753929 -3.18916e-09 0 5.4477e-10 0 1.78799e-08
79 3 0.001 -0.00484619 0 -0.00691025 1.0237e-08 0 -2.17509e-09 0 1.77395e-08
80 3 0.001 -0.0047656 0 -0.0062845 -1.77354e-08 0 2.48736e-09 0 1.75099e-08
81 3 0.001 -0.00465358 0 -0.00566359 7.15906e-09 0 -7.34254e-10 0 1.71977e-08
82 3 0.001 -0.00451091 0 -0.00504896 1.57525e-08 0 -4.5289e-09 0 1.68114e-08
83 3 0.001 -0.00433857 0 -0.00444196 -2.68218e-08 0 8.42169e-09 0 1.63613e-08
84 3 0.001 -0.00413772 0 -0.00384375 2.20893e-08 0 -7.88132e-09 0 1.5859e-08
85 3 0.001 -0.00390967 0 -0.00325533 -1.34402e-08 0 5.35645e-09 0 1.53169e-08
86 3 0.001 -0.00365585 0 -0.00267752 5.7743e-09 0 -2.09043e-09 0 1.47474e-08
87 3 0.001 -0.0033778 0 -0.00211092 7.54631e-10 0 -7.03715e-10 0 1.41632e-08
88 3 0.001 -0.00307714 0 -0.00155593 -7.13472e-10 0 -2.62783e-10 0 1.3576e-08
89 3 0.001 -0.00275555 0 -0.00101275 -6.42243e-09 0 4.44878e-09 0 1.29969e-08
90 3 0.001 -0.00241474 0 -0.000481366 9.86101e-09 0 -6.22075e-09 0 1.24358e-08
91 3 0.001 -0.00205643 0 3.84358e-05 2.23099e-09 0 -1.75073e-09 0 1.19013e-08
92 3 0.001 -0.00168235 0 0.000547058 -2.19234e-08 0 1.73262e-08 0 1.1401e-08
93 3 0.001 -0.0012942 0 0.00104508 2.52226e-08 0 -2.07759e-08 0 1.0941e-08
94 3 0.001 -0.000893677 0 0.00153325 -9.07829e-09 0 6.18705e-09 0 1.05263e-08
95 3 0.001 -0.000482423 0 0.00201247 -3.40663e-09 0 3.69161e-09 0 1.01607e-08
96 3 0.001 -6.2056e-05 0 0.00248375 -2.93107e-09 0 4.02085e-09 0 9.84727e-09
97 3 0.001 0.000365845 0 0.00294824 2.10609e-08 0 -1.99973e-08 0 9.58809e-09
98 3 0.001 0.000799736 0 0.00340716 -2.81565e-08 0 2.64401e-08 0 9.38472e-09
99 3 0.001 0.0012381 0 0.00386184 1.38449e-08 0 -1.35276e-08 0 9.23819e-09
100 3 0.001 0.00167946 0 0.00431363 2.6352e-09 0 -2.63916e-09 0 9.14916e-09
101 3 0.001 0.00212233 0 0.00476394 -6.89458e-09 0 6.78595e-09 0 9.11799e-09
102 3 0.001 0.00256526 0 0.0052142 2.51932e-09 0 -2.24081e-09 0 9.14478e-09
103 3 0.001 0.00300678 0 0.00566583 9.31593e-09 0 -8.94725e-09 0 9.22945e-09
104 3 0.001 0.00344543 0 0.00612024 -2.18577e-08 0 2.07415e-08 0 9.37164e-09
105 3 0.001 0.00387971 0 0.0065788 2.51109e-08 0 -2.344e-08 0 9.57075e-09
106 3 0.001 0.00430812 0 0.00704282 -2.04315e-08 0 1.8519e-08 0 9.82576e-09
107 3 0.001 0.00472911 0 0.00751355 1.36804e-08 0 -1.19536e-08 0 1.01352e-08
108 3 0.001 0.00514111 0 0.00799212 -1.06259e-08 0 9.01937e-09 0 1.04969e-08
109 3 0.001 0.00554251 0 0.00847958 1.11038e-08 0 -9.44794e-09 0 1.09081e-08
110 3 0.001 0.00593165 0 0.00897683 -7.07376e-09 0 5.57592e-09 0 1.13648e-08
111 3 0.001 0.00630686 0 0.00948463 -2.09426e-09 0 1.97464e-09 0 1.18623e-08
112 3 0.001 0.00666642 0 0.0100036 5.11884e-09 0 -3.4363e-09 0 1.23944e-08
113 3 0.001 0.00700862 0 0.0105341 -4.88162e-10 0 -9.06719e-12 0 1.29538e-08
114 3 0.001 0.00733172 0 0.0110763 7.0057e-10 0 -2.72106e-10 0 1.35319e-08
115 3 0.001 0.00763403 0 0.0116304 -6.30098e-09 0 3.07763e-09 0 1.41188e-08
116 3 0.001 0.00791385 0 0.0121962 7.99268e-09 0 -4.00577e-09 0 1.47037e-08
117 3 0.001 0.00816956 0 0.0127732 -8.02441e-09 0 3.52891e-09 0 1.52747e-08
118 3 0.001 0.00839962 0 0.0133608 1.13888e-08 0 -3.60808e-09 0 1.58194e-08
119 3 0.001 0.00860258 0 0.0139583 -1.29241e-08 0 4.10848e-09 0 1.63252e-08
120 3 0.001 0.00877712 0 0.0145647 1.916e-09 0 -1.2482e-09 0 1.67797e-08
121 3 0.001 0.00892208 0 0.0151788 1.74598e-08 0 -3.46349e-09 0 1.71712e-08
122 3 0.001 0.00903645 0 0.0157992 -2.36353e-08 0 3.69634e-09 0 1.74815e-08
123 3 0.001 0.00911945 0 0.0164247 1.07401e-08 0 -1.47637e-09 0 1.7684e-08
124 3 0.001 0.00917046 0 0.0170535 1.87493e-09 0 3.86796e-10 0 1.78091e-08
125 3 0.001 0.00918907 0 0.0176842 2.80925e-09 0 4.53097e-10 0 1.79357e-08
126 3 0.001 0.00917496 0 0.0183149 -2.2298e-08 0 -1.81392e-09 0 1.81009e-08
127 3 0.001 0.00912797 0 0.018944 3.17131e-08 0 3.15505e-09 0 1.82735e-08
128 3 0.001 0.00904805 0 0.0195698 -1.1822e-08 0 -9.42978e-10 0 1.83696e-08
129 3 0.001 0.00893534 0 0.0201905 -2.10084e-08 0 -5.39569e-09 0 1.83395e-08
130 3 0.001 0.00879023 0 0.0208045 3.60577e-08 0 9.49749e-09 0 1.81979e-08
132 3 0.001 0.00840543 0 0.0220058 -5.63851e-09 0 -2.77457e-09 0 1.76343e-08
131 3 0.001 0.00861332 0 0.0214101 -2.19378e-08 0 -6.40352e-09 0 1.79606e-08
133 3 0.001 0.0081676 0 0.0225902 1.97069e-08 0 9.11611e-09 0 1.72283e-08
134 3 0.001 0.00790103 0 0.023162 -1.17311e-08 0 -5.30527e-09 0 1.67538e-08
135 3 0.001 0.0076071 0 0.0237204 -5.02159e-09 0 -3.76457e-09 0 1.62231e-08
138 3 0.001 0.00657658 0 0.0253072 -3.05835e-09 0 -2.65881e-09 0 1.44286e-08
137 3 0.001 0.00694324 0 0.0247935 -5.70011e-09 0 -3.29966e-09 0 1.5047e-08
136 3 0.001 0.00728731 0 0.0242644 1.26558e-08 0 7.8877e-09 0 1.56496e-08
141 3 0.001 0.0053583 0 0.0267557 -6.97186e-09 0 -6.33594e-09 0 1.2602e-08
139 3 0.001 0.00618905 0 0.0258053 3.14868e-09 0 2.34648e-09 0 1.38073e-08
140 3 0.001 0.00578237 0 0.0262881 2.16525e-09 0 1.81432e-09 0 1.31949e-08
142 3 0.001 0.00491854 0 0.0272087 8.8613e-09 0 9.47876e-09 0 1.20378e-08
143 3 0.001 0.00446479 0 0.0276477 -7.69214e-09 0 -8.18107e-09 0 1.15103e-08
144 3 0.001 0.00399868 0 0.0280736 3.75367e-09 0 3.93065e-09 0 1.1026e-08
148 3 0.001 0.00204136 0 0.0296694 -2.66961e-08 0 -3.36647e-08 0 9.60639e-09
145 3 0.001 0.00352179 0 0.0284875 2.08191e-09 0 2.0428e-09 0 1.05898e-08
146 3 0.001 0.00303564 0 0.0288905 -1.08675e-08 0 -1.43542e-08 0 1.0206e-08
147 3 0.001 0.0025417 0 0.029284 2.17376e-08 0 2.85046e-08 0 9.87749e-09
151 3 0.001 0.000514633 0 0.0307926 7.14988e-10 0 -7.56391e-10 0 3.31666e-09
2 2 0.001 0 0 0.03116 -0.0023489 0 0.0147493 0 1.6399e-09
149 3 0.001 0.00153597 0 0.0300481 1.86348e-08 0 2.5522e-08 0 9.21187e-09
150 3 0.001 0.0010268 0 0.0304219 -5.94915e-09 0 -9.35036e-09 0 6.14592e-09
