ITEM: TIMESTEP
9900000
ITEM: NUMBER OF ATOMS
151
ITEM: BOX BOUNDS ff ff ff
-1.0000000000000000e-02 1.0000000000000000e-02
-6.0000000000000001e-03 6.0000000000000001e-03
-5.2499999999999998e-02 5.2499999999999998e-02
ITEM: ATOMS id type radius x y z fx fy fz c_bendingE c_stretchingE
1 1 0.001 0 0 -0.0475 -0.00144173 0 -0.0145411 0 1.11136e-09
3 3 0.001 0.000523246 0 -0.0471447 -2.11715e-11 0 2.98238e-11 0 2.25656e-09
4 3 0.001 0.00104398 0 -0.0467857 4.82956e-11 0 -6.60927e-11 0 4.71841e-09
5 3 0.001 0.00156164 0 -0.0464235 -6.265e-11 0 8.89515e-11 0 7.39962e-09
6 3 0.001 0.00207543 0 -0.0460559 5.11698e-11 0 -7.42077e-11 0 7.77439e-09
7 3 0.001 0.00258405 0 -0.0456813 -3.37652e-11 0 5.07035e-11 0 8.04764e-09
8 3 0.001 0.00308608 0 -0.0452979 4.92606e-12 0 -1.86225e-11 0 8.38079e-09
9 3 0.001 0.00358007 0 -0.0449042 1.62989e-11 0 -9.63052e-12 0 8.7727e-09
10 3 0.001 0.00406448 0 -0.0444989 -4.04056e-11 0 4.56619e-11 0 9.22152e-09
11 3 0.001 0.00453769 0 -0.0440806 3.009e-11 0 -2.99874e-11 0 9.72436e-09
12 3 0.001 0.00499801 0 -0.0436483 -1.38171e-11 0 7.90818e-12 0 1.02771e-08
13 3 0.001 0.00544368 0 -0.0432009 -1.76942e-11 0 2.28371e-11 0 1.08743e-08
14 3 0.001 0.00587288 0 -0.0427378 1.77509e-11 0 -1.85284e-11 0 1.15088e-08
15 3 0.001 0.00628372 0 -0.0422584 -1.32824e-11 0 1.54936e-11 0 1.21716e-08
16 3 0.001 0.00667429 0 -0.0417625 -2.40937e-11 0 1.31135e-11 0 1.28523e-08
17 3 0.001 0.00704267 0 -0.0412498 2.82838e-11 0 -5.81525e-12 0 1.35385e-08
18 3 0.001 0.00738694 0 -0.0407208 -2.88199e-11 0 1.58196e-11 0 1.42166e-08
19 3 0.001 0.00770521 0 -0.0401758 -4.23792e-12 0 4.004e-12 0 1.48718e-08
20 3 0.001 0.0079957 0 -0.0396155 -9.58532e-12 0 6.87811e-12 0 1.54886e-08
21 3 0.001 0.0082567 0 -0.039041 -7.55659e-12 0 7.9978e-12 0 1.60514e-08
22 3 0.001 0.00848665 0 -0.0384534 3.90747e-12 0 2.93897e-12 0 1.65453e-08
23 3 0.001 0.00868416 0 -0.0378541 -1.64203e-11 0 1.40005e-11 0 1.69562e-08
24 3 0.001 0.00884803 0 -0.0372448 -3.67281e-11 0 1.19647e-11 0 1.72724e-08
25 3 0.001 0.00897731 0 -0.0366272 3.52006e-11 0 -9.71991e-13 0 1.74842e-08
26 3 0.001 0.00907129 0 -0.0360033 -5.55852e-11 0 1.38543e-11 0 1.75702e-08
27 3 0.001 0.0091295 0 -0.0353751 1.82792e-11 0 6.11264e-12 0 1.75375e-08
28 3 0.001 0.00915177 0 -0.0347446 -2.97549e-11 0 1.08459e-11 0 1.74488e-08
29 3 0.001 0.00913809 0 -0.0341138 -1.35423e-11 0 5.72592e-12 0 1.73472e-08
30 3 0.001 0.0090887 0 -0.0334848 -1.81833e-11 0 8.5086e-12 0 1.72083e-08
31 3 0.001 0.00900401 0 -0.0328595 -2.49601e-12 0 1.0119e-11 0 1.69675e-08
32 3 0.001 0.00888465 0 -0.0322399 -3.94546e-11 0 3.59033e-13 0 1.66115e-08
33 3 0.001 0.00873153 0 -0.0316278 -1.28594e-11 0 1.27372e-11 0 1.61679e-08
35 3 0.001 0.00832866 0 -0.0304321 5.79536e-12 0 2.13672e-11 0 1.50706e-08
34 3 0.001 0.00854575 0 -0.0310247 -2.09835e-11 0 -1.09827e-12 0 1.56495e-08
37 3 0.001 0.00780662 0 -0.0292833 9.14443e-12 0 1.42521e-11 0 1.37909e-08
36 3 0.001 0.00808173 0 -0.0298513 -6.65505e-11 0 -1.60129e-11 0 1.4446e-08
38 3 0.001 0.00750508 0 -0.0287287 -1.89105e-11 0 7.83882e-12 0 1.31202e-08
41 3 0.001 0.00646043 0 -0.0271502 4.12881e-11 0 4.95779e-11 0 1.11476e-08
40 3 0.001 0.00683008 0 -0.027662 -6.137e-11 0 -2.87042e-11 0 1.17866e-08
39 3 0.001 0.00717893 0 -0.0281882 -1.97611e-11 0 4.70917e-12 0 1.24479e-08
44 3 0.001 0.00524569 0 -0.0256973 -4.19142e-11 0 -2.23295e-11 0 9.45188e-09
43 3 0.001 0.00566636 0 -0.0261683 1.01657e-11 0 3.38436e-11 0 9.97317e-09
42 3 0.001 0.00607189 0 -0.0266524 -7.37303e-11 0 -4.36159e-11 0 1.05405e-08
46 3 0.001 0.0043661 0 -0.0247907 -7.27252e-11 0 -5.36902e-11 0 8.56531e-09
45 3 0.001 0.00481168 0 -0.0252384 1.93646e-11 0 3.27426e-11 0 8.98143e-09
47 3 0.001 0.00391063 0 -0.0243531 1.94437e-11 0 4.18769e-11 0 8.20588e-09
51 3 0.001 0.00202172 0 -0.0226749 -3.78462e-11 0 -1.94581e-11 0 7.35711e-09
49 3 0.001 0.00297651 0 -0.0235024 -1.31532e-11 0 6.14793e-12 0 7.66259e-09
50 3 0.001 0.00250095 0 -0.0230865 -1.64781e-11 0 1.76067e-12 0 7.48001e-09
48 3 0.001 0.00344691 0 -0.0239241 -2.93405e-11 0 -2.22478e-11 0 7.90469e-09
54 3 0.001 0.000576386 0 -0.0214488 1.65005e-11 0 4.06483e-11 0 7.34663e-09
55 3 0.001 9.68181e-05 0 -0.0210375 -2.58882e-11 0 -2.89838e-11 0 7.46253e-09
53 3 0.001 0.00105801 0 -0.0218577 -6.00723e-11 0 -5.91422e-11 0 7.29043e-09
52 3 0.001 0.00154026 0 -0.0222658 3.05916e-11 0 4.13967e-11 0 7.29393e-09
58 3 0.001 -0.00131492 0 -0.0197732 -3.56071e-11 0 -2.6091e-11 0 8.16757e-09
57 3 0.001 -0.000850331 0 -0.0202013 5.12125e-12 0 1.60255e-11 0 7.87326e-09
56 3 0.001 -0.000379246 0 -0.0206222 -1.29321e-11 0 6.94373e-12 0 7.63812e-09
61 3 0.001 -0.00265371 0 -0.0184327 -2.76092e-11 0 -2.11887e-11 0 9.39408e-09
60 3 0.001 -0.00221826 0 -0.0188902 -3.75961e-12 0 4.29692e-12 0 8.92983e-09
59 3 0.001 -0.00177143 0 -0.0193366 8.82601e-12 0 1.21711e-11 0 8.52024e-09
63 3 0.001 -0.00348344 0 -0.0174806 1.80856e-11 0 1.56177e-11 0 1.04719e-08
62 3 0.001 -0.00307603 0 -0.0179631 -3.0148e-12 0 8.86976e-12 0 9.90963e-09
64 3 0.001 -0.00387406 0 -0.0169845 -4.65326e-11 0 -2.65895e-11 0 1.10747e-08
66 3 0.001 -0.00459741 0 -0.0159498 -1.54563e-11 0 -8.584e-12 0 1.23696e-08
65 3 0.001 -0.00424602 0 -0.0164743 3.03349e-11 0 2.0847e-11 0 1.17104e-08
67 3 0.001 -0.00492631 0 -0.0154109 -2.16518e-11 0 -8.82706e-12 0 1.30413e-08
69 3 0.001 -0.00550913 0 -0.0142915 2.57521e-11 0 1.29883e-11 0 1.43706e-08
70 3 0.001 -0.00575944 0 -0.0137121 -3.71455e-11 0 -1.54696e-11 0 1.49995e-08
68 3 0.001 -0.00523083 0 -0.014858 4.13381e-12 0 5.05057e-12 0 1.37129e-08
71 3 0.001 -0.00598011 0 -0.0131209 -1.13734e-11 0 1.6406e-12 0 1.55846e-08
72 3 0.001 -0.00616962 0 -0.012519 3.46375e-11 0 8.95495e-12 0 1.61108e-08
73 3 0.001 -0.00632663 0 -0.0119078 -1.18623e-11 0 -6.79698e-12 0 1.65639e-08
74 3 0.001 -0.00644999 0 -0.011289 -4.01399e-11 0 -2.4263e-12 0 1.6931e-08
75 3 0.001 -0.00653878 0 -0.0106643 4.78196e-11 0 3.98674e-12 0 1.72015e-08
76 3 0.001 -0.00659233 0 -0.0100357 -2.9933e-11 0 1.10592e-13 0 1.73671e-08
77 3 0.001 -0.00661023 0 -0.00940498 4.33327e-13 0 -3.95049e-13 0 1.74229e-08
78 3 0.001 -0.00659234 0 -0.00877429 1.11204e-11 0 -1.98346e-12 0 1.73672e-08
79 3 0.001 -0.00653879 0 -0.00814563 -9.35454e-12 0 -9.83407e-14 0 1.72015e-08
80 3 0.001 -0.00645 0 -0.00752095 -3.63001e-11 0 9.82046e-12 0 1.69311e-08
81 3 0.001 -0.00632665 0 -0.00690214 7.76951e-11 0 -1.89531e-11 0 1.6564e-08
82 3 0.001 -0.00616964 0 -0.00629097 -9.00846e-11 0 1.87412e-11 0 1.6111e-08
83 3 0.001 -0.00598013 0 -0.00568906 4.35368e-11 0 -5.294e-12 0 1.55848e-08
84 3 0.001 -0.00575947 0 -0.00509781 -1.37639e-12 0 -6.90432e-12 0 1.49997e-08
85 3 0.001 -0.00550916 0 -0.00451843 -1.26521e-11 0 1.78933e-12 0 1.43707e-08
86 3 0.001 -0.00523086 0 -0.00395192 -1.2867e-11 0 7.87373e-12 0 1.37131e-08
87 3 0.001 -0.00492634 0 -0.00339899 5.3203e-12 0 -4.05358e-12 0 1.30415e-08
88 3 0.001 -0.00459745 0 -0.00286015 5.90715e-12 0 -1.11618e-11 0 1.23698e-08
89 3 0.001 -0.00424606 0 -0.00233563 -3.29464e-11 0 2.10461e-11 0 1.17106e-08
90 3 0.001 -0.0038741 0 -0.00182543 1.47357e-11 0 -7.5285e-12 0 1.10749e-08
91 3 0.001 -0.00348348 0 -0.00132931 -5.28962e-12 0 -6.29677e-12 0 1.04721e-08
92 3 0.001 -0.00307608 0 -0.000846795 -1.9371e-11 0 1.2604e-11 0 9.90981e-09
93 3 0.001 -0.00265375 0 -0.000377224 2.04493e-12 0 -1.57806e-11 0 9.39425e-09
94 3 0.001 -0.00221831 0 8.02683e-05 -2.6439e-11 0 2.65855e-11 0 8.93e-09
95 3 0.001 -0.00177148 0 0.000526714 1.58288e-11 0 -2.93698e-11 0 8.5204e-09
96 3 0.001 -0.00131496 0 0.000963298 -1.54938e-11 0 1.52879e-11 0 8.16772e-09
97 3 0.001 -0.000850377 0 0.00139134 -3.29924e-11 0 1.87617e-11 0 7.8734e-09
98 3 0.001 -0.000379293 0 0.00181225 4.25652e-12 0 -1.7617e-11 0 7.63825e-09
99 3 0.001 9.67722e-05 0 0.00222756 -4.64009e-12 0 -2.89896e-12 0 7.46266e-09
100 3 0.001 0.00057634 0 0.00263883 -2.31367e-11 0 6.29116e-12 0 7.34675e-09
101 3 0.001 0.00105796 0 0.00304772 -1.58096e-11 0 1.46258e-11 0 7.29055e-09
102 3 0.001 0.00154022 0 0.00345587 -1.54067e-11 0 -5.48003e-12 0 7.29404e-09
103 3 0.001 0.00202167 0 0.00386494 -4.49355e-12 0 -4.42698e-12 0 7.35723e-09
104 3 0.001 0.00250091 0 0.00427661 -2.35175e-11 0 7.8322e-12 0 7.48012e-09
105 3 0.001 0.00297647 0 0.00469249 -1.33149e-11 0 -7.98654e-12 0 7.6627e-09
106 3 0.001 0.00344687 0 0.00511416 -4.01303e-11 0 2.38725e-11 0 7.9048e-09
107 3 0.001 0.0039106 0 0.00554313 1.6308e-11 0 -3.00756e-11 0 8.206e-09
108 3 0.001 0.00436607 0 0.0059808 -4.63161e-11 0 2.95135e-11 0 8.56543e-09
109 3 0.001 0.00481165 0 0.00642847 -3.17808e-12 0 -1.40013e-11 0 8.98157e-09
110 3 0.001 0.00524566 0 0.00688733 -1.77203e-11 0 -5.7262e-12 0 9.45202e-09
111 3 0.001 0.00566633 0 0.00735837 -4.99682e-11 0 2.61369e-11 0 9.97332e-09
112 3 0.001 0.00607187 0 0.00784244 2.33915e-11 0 -4.05455e-11 0 1.05407e-08
113 3 0.001 0.00646041 0 0.00834019 -5.5356e-11 0 3.24742e-11 0 1.11478e-08
114 3 0.001 0.00683006 0 0.00885206 -1.06299e-11 0 -1.30772e-11 0 1.17868e-08
115 3 0.001 0.00717891 0 0.00937826 -1.24157e-11 0 -9.11887e-12 0 1.24481e-08
116 3 0.001 0.00750506 0 0.00991876 -2.88903e-11 0 -1.95262e-12 0 1.31205e-08
117 3 0.001 0.00780661 0 0.0104733 -3.19247e-11 0 6.58967e-12 0 1.37912e-08
118 3 0.001 0.00808172 0 0.0110414 -1.59898e-12 0 -1.88792e-11 0 1.44462e-08
119 3 0.001 0.00832865 0 0.0116222 -1.58032e-11 0 -3.95206e-12 0 1.50709e-08
120 3 0.001 0.00854575 0 0.0122147 -6.96985e-11 0 1.25428e-11 0 1.56498e-08
121 3 0.001 0.00873152 0 0.0128178 5.16912e-11 0 -2.79407e-11 0 1.61682e-08
122 3 0.001 0.00888465 0 0.01343 -5.02712e-11 0 3.06926e-12 0 1.66119e-08
123 3 0.001 0.00900401 0 0.0140496 -3.94836e-11 0 -5.94399e-12 0 1.69679e-08
124 3 0.001 0.00908871 0 0.0146748 2.4472e-11 0 -1.67036e-11 0 1.72087e-08
125 3 0.001 0.0091381 0 0.0153038 -4.05811e-11 0 -2.85257e-12 0 1.73476e-08
126 3 0.001 0.00915178 0 0.0159346 -2.05855e-11 0 -6.34314e-12 0 1.74492e-08
127 3 0.001 0.00912952 0 0.0165651 1.35523e-11 0 -9.73727e-12 0 1.7538e-08
128 3 0.001 0.0090713 0 0.0171934 -3.06364e-11 0 -6.04661e-12 0 1.75708e-08
129 3 0.001 0.00897733 0 0.0178173 -1.91947e-11 0 -1.6028e-11 0 1.74848e-08
130 3 0.001 0.00884805 0 0.0184348 2.14115e-11 0 1.2743e-12 0 1.7273e-08
131 3 0.001 0.00868418 0 0.0190441 -4.54553e-11 0 -1.37865e-11 0 1.69568e-08
133 3 0.001 0.00825673 0 0.020231 2.25847e-13 0 -3.61755e-12 0 1.6052e-08
134 3 0.001 0.00799573 0 0.0208056 -4.51988e-12 0 -5.93194e-12 0 1.54892e-08
132 3 0.001 0.00848667 0 0.0196434 1.43138e-12 0 -8.74625e-12 0 1.65459e-08
135 3 0.001 0.00770524 0 0.0213658 -2.66176e-11 0 -1.6087e-11 0 1.48724e-08
136 3 0.001 0.00738696 0 0.0219108 1.69374e-11 0 7.18255e-12 0 1.42172e-08
138 3 0.001 0.00667432 0 0.0229525 -5.159e-12 0 -7.37916e-12 0 1.28528e-08
139 3 0.001 0.00628375 0 0.0234485 -2.1037e-12 0 -1.18838e-12 0 1.21721e-08
137 3 0.001 0.0070427 0 0.0224399 -2.14848e-11 0 -1.68754e-11 0 1.35391e-08
142 3 0.001 0.00499803 0 0.0248383 4.0397e-11 0 4.31777e-11 0 1.02776e-08
143 3 0.001 0.00453771 0 0.0252707 -2.48151e-11 0 -2.91539e-11 0 9.72482e-09
140 3 0.001 0.0058729 0 0.0239279 1.14549e-11 0 6.49962e-12 0 1.15093e-08
141 3 0.001 0.0054437 0 0.024391 -4.41147e-11 0 -4.12343e-11 0 1.08748e-08
145 3 0.001 0.00358009 0 0.0260942 1.87197e-12 0 1.73978e-12 0 8.77312e-09
146 3 0.001 0.00308609 0 0.0264879 3.36668e-12 0 1.19245e-11 0 8.38118e-09
147 3 0.001 0.00258406 0 0.0268713 -1.45494e-11 0 -2.16404e-11 0 8.04802e-09
144 3 0.001 0.00406449 0 0.0256889 -5.27339e-12 0 -8.58764e-12 0 9.22195e-09
151 3 0.001 0.000523248 0 0.0283347 -3.48766e-12 0 -1.06231e-11 0 2.25675e-09
148 3 0.001 0.00207544 0 0.027246 1.36681e-11 0 1.54775e-11 0 7.77476e-09
149 3 0.001 0.00156164 0 0.0276135 -1.59762e-11 0 -2.74084e-11 0 7.39998e-09
150 3 0.001 0.00104398 0 0.0279757 1.05003e-11 0 2.38543e-11 0 4.71868e-09
2 2 0.001 0 0 0.02869 -0.0014419 0 0.0145414 0 1.11146e-09
