ITEM: TIMESTEP
6500000
ITEM: NUMBER OF ATOMS
151
ITEM: BOX BOUNDS ff ff ff
-1.0000000000000000e-02 1.0000000000000000e-02
-6.0000000000000001e-03 6.0000000000000001e-03
-5.2499999999999998e-02 5.2499999999999998e-02
ITEM: ATOMS id type radius x y z fx fy fz c_bendingE c_stretchingE
1 1 0.001 0 0 -0.0475 -0.00398826 0 -0.01539 0 2.94653e-09
3 3 0.001 0.000497211 0 -0.04711 5.04167e-10 0 -1.37093e-09 0 5.93355e-09
4 3 0.001 0.000992055 0 -0.0467169 -1.36777e-10 0 -4.28687e-10 0 9.46931e-09
5 3 0.001 0.00148401 0 -0.0463214 -3.24361e-09 0 4.28951e-09 0 1.32766e-08
6 3 0.001 0.00197236 0 -0.0459214 5.84184e-09 0 -6.30809e-09 0 1.37063e-08
7 3 0.001 0.0024559 0 -0.0455157 -2.81561e-09 0 3.64255e-09 0 1.3969e-08
8 3 0.001 0.00293337 0 -0.0451029 -1.5753e-09 0 1.28799e-09 0 1.42843e-08
9 3 0.001 0.00340348 0 -0.0446818 2.45181e-09 0 -3.41634e-09 0 1.46486e-08
10 3 0.001 0.0038649 0 -0.0442512 -1.27475e-09 0 1.36471e-09 0 1.50574e-08
11 3 0.001 0.00431626 0 -0.0438101 1.80083e-09 0 -1.15819e-09 0 1.5505e-08
12 3 0.001 0.00475616 0 -0.0433577 -3.30716e-09 0 3.34115e-09 0 1.59849e-08
13 3 0.001 0.00518318 0 -0.0428931 3.63617e-09 0 -3.43167e-09 0 1.64893e-08
14 3 0.001 0.00559587 0 -0.0424158 -2.36341e-09 0 1.64834e-09 0 1.70097e-08
15 3 0.001 0.00599276 0 -0.0419253 1.08395e-09 0 -1.04063e-09 0 1.75363e-08
16 3 0.001 0.0063724 0 -0.0414214 1.56598e-09 0 -8.44956e-10 0 1.80588e-08
17 3 0.001 0.00673337 0 -0.040904 -4.81363e-09 0 3.18316e-09 0 1.85662e-08
18 3 0.001 0.00707426 0 -0.0403732 7.14882e-09 0 -4.44105e-09 0 1.90471e-08
19 3 0.001 0.00739373 0 -0.0398293 -7.01541e-09 0 3.8985e-09 0 1.94904e-08
20 3 0.001 0.00769053 0 -0.0392727 5.31127e-09 0 -2.82396e-09 0 1.98853e-08
21 3 0.001 0.00796349 0 -0.038704 -2.07804e-09 0 1.08575e-09 0 2.02217e-08
22 3 0.001 0.00821158 0 -0.0381241 -1.07066e-09 0 1.95885e-10 0 2.04909e-08
23 3 0.001 0.00843389 0 -0.0375339 4.15963e-09 0 -1.65114e-09 0 2.06857e-08
24 3 0.001 0.00862968 0 -0.0369343 -5.6569e-09 0 1.73418e-09 0 2.08007e-08
25 3 0.001 0.00879837 0 -0.0363266 4.2762e-09 0 -1.03248e-09 0 2.08327e-08
26 3 0.001 0.00893957 0 -0.0357119 -2.37851e-10 0 2.93384e-10 0 2.0781e-08
27 3 0.001 0.00905309 0 -0.0350915 -2.07806e-09 0 7.98381e-11 0 2.06314e-08
28 3 0.001 0.00913892 0 -0.0344666 6.42056e-10 0 -6.24832e-10 0 2.03641e-08
29 3 0.001 0.00919723 0 -0.0338385 3.59827e-09 0 -1.65751e-10 0 2.00248e-08
30 3 0.001 0.00922833 0 -0.0332085 -5.72257e-09 0 3.46281e-10 0 1.9709e-08
31 3 0.001 0.00923259 0 -0.0325778 5.16156e-09 0 1.11187e-10 0 1.94783e-08
32 3 0.001 0.00921038 0 -0.0319473 -2.3107e-09 0 -2.2508e-10 0 1.93404e-08
33 3 0.001 0.00916212 0 -0.0313184 -1.89269e-09 0 -6.97478e-10 0 1.92507e-08
34 3 0.001 0.00908825 0 -0.0306919 6.66635e-09 0 8.46085e-10 0 1.91303e-08
35 3 0.001 0.00898927 0 -0.0300689 -8.29936e-09 0 -1.38304e-09 0 1.89177e-08
36 3 0.001 0.00886581 0 -0.0294502 7.91055e-09 0 1.72367e-09 0 1.86267e-08
37 3 0.001 0.00871864 0 -0.0288368 -6.42408e-09 0 -1.70549e-09 0 1.82917e-08
39 3 0.001 0.00835687 0 -0.0276282 -3.21436e-09 0 -1.3041e-09 0 1.75222e-08
40 3 0.001 0.00814439 0 -0.0270341 2.84496e-09 0 1.0553e-09 0 1.71047e-08
38 3 0.001 0.00854866 0 -0.0282292 5.03538e-09 0 1.18564e-09 0 1.79207e-08
42 3 0.001 0.00766224 0 -0.025868 4.71247e-09 0 2.05817e-09 0 1.62479e-08
41 3 0.001 0.00791242 0 -0.0264473 -3.39096e-09 0 -1.52929e-09 0 1.66771e-08
45 3 0.001 0.00681595 0 -0.024175 -2.29991e-09 0 -1.26138e-09 0 1.5028e-08
44 3 0.001 0.00711262 0 -0.024732 3.90492e-09 0 1.76385e-09 0 1.54161e-08
43 3 0.001 0.00739518 0 -0.0252963 -4.65574e-09 0 -2.43112e-09 0 1.5825e-08
47 3 0.001 0.00618605 0 -0.0230812 6.41079e-11 0 -2.13533e-10 0 1.43376e-08
46 3 0.001 0.00650661 0 -0.0236249 1.18283e-09 0 4.79397e-10 0 1.46667e-08
48 3 0.001 0.0058557 0 -0.0225434 1.39916e-09 0 7.20726e-10 0 1.40452e-08
50 3 0.001 0.00517145 0 -0.0214825 4.26226e-09 0 2.79862e-09 0 1.35849e-08
49 3 0.001 0.00551702 0 -0.0220108 -3.52228e-09 0 -2.44259e-09 0 1.37933e-08
52 3 0.001 0.00446539 0 -0.020436 4.54614e-09 0 2.77185e-09 0 1.3308e-08
53 3 0.001 0.00410776 0 -0.0199158 -9.60013e-09 0 -6.83047e-09 0 1.32424e-08
51 3 0.001 0.00482043 0 -0.0209579 -2.83494e-09 0 -2.09045e-09 0 1.34226e-08
56 3 0.001 0.00303357 0 -0.0183562 1.46975e-09 0 8.77658e-10 0 1.33437e-08
55 3 0.001 0.00339042 0 -0.0188769 -9.13637e-09 0 -6.39059e-09 0 1.32604e-08
54 3 0.001 0.00374896 0 -0.0193965 1.34665e-08 0 9.18333e-09 0 1.32265e-08
59 3 0.001 0.00198734 0 -0.0167779 -2.48592e-09 0 -1.60277e-09 0 1.38793e-08
58 3 0.001 0.00233059 0 -0.0173076 -1.38681e-10 0 -2.96309e-10 0 1.36549e-08
57 3 0.001 0.00267981 0 -0.0178335 2.80293e-09 0 1.52963e-09 0 1.34757e-08
61 3 0.001 0.00132451 0 -0.0157037 1.2721e-09 0 4.67402e-10 0 1.44523e-08
60 3 0.001 0.0016515 0 -0.0162435 2.16424e-09 0 1.25073e-09 0 1.41462e-08
62 3 0.001 0.00100783 0 -0.0151577 -2.92712e-09 0 -2.02896e-09 0 1.47936e-08
63 3 0.001 0.000702896 0 -0.0146052 3.5998e-09 0 1.83779e-09 0 1.51652e-08
64 3 0.001 0.000411151 0 -0.0140456 -1.55893e-09 0 -6.88057e-10 0 1.55616e-08
66 3 0.001 -0.00012711 0 -0.0129042 -3.39412e-10 0 -3.78214e-10 0 1.64024e-08
65 3 0.001 0.000134017 0 -0.0134786 8.14841e-10 0 3.23362e-10 0 1.59763e-08
67 3 0.001 -0.000370869 0 -0.0123222 6.58799e-10 0 -3.04059e-11 0 1.6832e-08
68 3 0.001 -0.000595948 0 -0.0117327 7.49492e-10 0 8.86688e-11 0 1.7257e-08
69 3 0.001 -0.000801098 0 -0.0111361 -1.42643e-09 0 -3.59256e-10 0 1.76686e-08
72 3 0.001 -0.00128572 0 -0.00930741 1.05604e-08 0 2.03382e-09 0 1.87372e-08
71 3 0.001 -0.00114701 0 -0.00992283 -7.55099e-09 0 -1.88739e-09 0 1.84172e-08
70 3 0.001 -0.000985146 0 -0.0105326 4.35456e-09 0 1.19088e-09 0 1.80582e-08
73 3 0.001 -0.00140043 0 -0.00868709 -9.08441e-09 0 -1.71885e-09 0 1.90106e-08
74 3 0.001 -0.00149042 0 -0.00806272 6.55608e-09 0 9.11916e-10 0 1.92308e-08
75 3 0.001 -0.00155511 0 -0.00743524 -6.11884e-10 0 -1.45718e-10 0 1.93922e-08
76 3 0.001 -0.00159409 0 -0.00680564 -5.72716e-09 0 -1.49523e-10 0 1.94908e-08
77 3 0.001 -0.00160711 0 -0.00617498 1.15184e-08 0 7.16086e-12 0 1.95239e-08
78 3 0.001 -0.00159409 0 -0.00554432 -1.32739e-08 0 5.70679e-10 0 1.94908e-08
79 3 0.001 -0.00155511 0 -0.00491473 1.42853e-08 0 -1.19143e-09 0 1.93923e-08
80 3 0.001 -0.00149043 0 -0.00428724 -1.10308e-08 0 1.25255e-09 0 1.92309e-08
81 3 0.001 -0.00140045 0 -0.00366287 6.1315e-09 0 -9.04901e-10 0 1.90107e-08
82 3 0.001 -0.00128574 0 -0.00304255 -1.05707e-09 0 3.63426e-10 0 1.87373e-08
83 3 0.001 -0.00114703 0 -0.00242713 5.89976e-10 0 5.77673e-12 0 1.84173e-08
84 3 0.001 -0.000985171 0 -0.00181737 2.23763e-10 0 6.42869e-12 0 1.80584e-08
85 3 0.001 -0.000801126 0 -0.00121391 -8.38495e-10 0 3.92365e-10 0 1.76688e-08
86 3 0.001 -0.000595979 0 -0.000617257 1.5787e-09 0 -6.41049e-10 0 1.72571e-08
87 3 0.001 -0.000370902 0 -2.78051e-05 -4.49972e-10 0 2.13184e-10 0 1.68322e-08
88 3 0.001 -0.000127146 0 0.000554203 2.77827e-10 0 1.54478e-10 0 1.64026e-08
89 3 0.001 0.000133979 0 0.00112866 6.68872e-10 0 -1.34515e-10 0 1.59765e-08
90 3 0.001 0.000411111 0 0.00169561 2.88282e-10 0 5.73614e-11 0 1.55617e-08
91 3 0.001 0.000702854 0 0.00225521 -4.08933e-11 0 8.26747e-11 0 1.51654e-08
92 3 0.001 0.00100778 0 0.00280776 -6.51669e-10 0 4.58993e-10 0 1.47937e-08
93 3 0.001 0.00132447 0 0.0033537 1.55531e-09 0 -6.64473e-10 0 1.44525e-08
94 3 0.001 0.00165145 0 0.00389356 -1.33482e-09 0 9.18936e-10 0 1.41463e-08
95 3 0.001 0.00198729 0 0.00442798 3.36259e-09 0 -2.05271e-09 0 1.38794e-08
96 3 0.001 0.00233054 0 0.00495769 -3.52076e-09 0 2.50833e-09 0 1.36551e-08
97 3 0.001 0.00267976 0 0.00548351 2.32015e-09 0 -1.31646e-09 0 1.34759e-08
98 3 0.001 0.00303352 0 0.0060063 -6.59284e-10 0 8.41207e-10 0 1.33439e-08
99 3 0.001 0.00339038 0 0.00652698 3.63972e-10 0 -1.43069e-10 0 1.32605e-08
100 3 0.001 0.00374892 0 0.00704652 1.47758e-09 0 -1.1428e-09 0 1.32266e-08
101 3 0.001 0.00410771 0 0.00756588 -2.86312e-09 0 2.05458e-09 0 1.32426e-08
102 3 0.001 0.00446534 0 0.00808604 2.5639e-09 0 -1.48186e-09 0 1.33082e-08
103 3 0.001 0.00482038 0 0.00860796 -3.10626e-10 0 7.8675e-10 0 1.34228e-08
104 3 0.001 0.00517141 0 0.00913258 9.31978e-10 0 -3.0039e-10 0 1.35851e-08
105 3 0.001 0.00551698 0 0.00966079 -3.65106e-09 0 2.08415e-09 0 1.37934e-08
106 3 0.001 0.00585566 0 0.0101934 4.59411e-09 0 -3.02778e-09 0 1.40454e-08
107 3 0.001 0.00618601 0 0.0107312 5.5796e-10 0 -6.58809e-11 0 1.43378e-08
108 3 0.001 0.00650658 0 0.0112749 -6.11949e-09 0 3.9924e-09 0 1.46669e-08
109 3 0.001 0.00681592 0 0.011825 7.55573e-09 0 -3.69257e-09 0 1.50282e-08
110 3 0.001 0.00711259 0 0.012382 -3.4627e-09 0 1.80473e-09 0 1.54163e-08
111 3 0.001 0.00739516 0 0.0129463 -1.48298e-09 0 3.75526e-10 0 1.58252e-08
112 3 0.001 0.00766222 0 0.013518 3.27389e-09 0 -1.46844e-09 0 1.62481e-08
113 3 0.001 0.0079124 0 0.0140973 -9.50487e-10 0 8.97564e-10 0 1.66774e-08
114 3 0.001 0.00814437 0 0.0146841 -5.20321e-10 0 7.26156e-10 0 1.7105e-08
115 3 0.001 0.00835685 0 0.0152782 8.91818e-10 0 -3.00195e-10 0 1.75225e-08
116 3 0.001 0.00854864 0 0.0158793 -1.26145e-09 0 5.0589e-11 0 1.7921e-08
117 3 0.001 0.00871863 0 0.0164868 3.89509e-09 0 -9.92613e-10 0 1.8292e-08
118 3 0.001 0.0088658 0 0.0171003 -7.30172e-09 0 1.82858e-09 0 1.8627e-08
119 3 0.001 0.00898926 0 0.0177189 1.19291e-08 0 -1.6209e-09 0 1.89181e-08
120 3 0.001 0.00908824 0 0.0183419 -1.46076e-08 0 2.07283e-09 0 1.91307e-08
121 3 0.001 0.00916212 0 0.0189684 1.4744e-08 0 -1.7101e-09 0 1.92511e-08
122 3 0.001 0.00921038 0 0.0195974 -1.30962e-08 0 7.94013e-10 0 1.93408e-08
123 3 0.001 0.00923259 0 0.0202278 1.15835e-08 0 1.99948e-11 0 1.94787e-08
124 3 0.001 0.00922834 0 0.0208586 -7.26887e-09 0 9.98365e-11 0 1.97094e-08
125 3 0.001 0.00919724 0 0.0214886 1.04747e-09 0 -4.3226e-11 0 2.00253e-08
126 3 0.001 0.00913893 0 0.0221166 3.90525e-09 0 4.2803e-10 0 2.03646e-08
127 3 0.001 0.0090531 0 0.0227415 -5.25717e-09 0 -6.82804e-10 0 2.06319e-08
128 3 0.001 0.00893959 0 0.0233619 4.52407e-09 0 1.11585e-09 0 2.07815e-08
131 3 0.001 0.00843392 0 0.0251839 -2.29817e-10 0 -1.15253e-10 0 2.06863e-08
129 3 0.001 0.00879839 0 0.0239766 -1.9931e-09 0 -4.86906e-10 0 2.08333e-08
130 3 0.001 0.0086297 0 0.0245843 3.22887e-10 0 -6.11782e-11 0 2.08013e-08
132 3 0.001 0.00821161 0 0.0257742 1.59862e-09 0 9.80789e-10 0 2.04916e-08
133 3 0.001 0.00796352 0 0.0263541 -2.24727e-09 0 -7.2652e-10 0 2.02224e-08
134 3 0.001 0.00769056 0 0.0269227 2.12926e-09 0 8.21567e-10 0 1.9886e-08
135 3 0.001 0.00739376 0 0.0274793 -1.48747e-09 0 -1.08705e-09 0 1.94911e-08
136 3 0.001 0.00707428 0 0.0280232 7.19423e-10 0 5.0246e-10 0 1.90478e-08
137 3 0.001 0.0067334 0 0.028554 1.0228e-09 0 1.05638e-09 0 1.85669e-08
138 3 0.001 0.00637243 0 0.0290714 -9.98256e-10 0 -4.23146e-10 0 1.80595e-08
139 3 0.001 0.00599278 0 0.0295753 -1.07173e-09 0 -1.18715e-09 0 1.7537e-08
141 3 0.001 0.0051832 0 0.0305431 5.3644e-10 0 7.2339e-10 0 1.649e-08
142 3 0.001 0.00475618 0 0.0310077 -4.11468e-09 0 -3.77731e-09 0 1.59855e-08
140 3 0.001 0.00559589 0 0.0300658 2.18407e-09 0 1.51802e-09 0 1.70103e-08
145 3 0.001 0.00340349 0 0.0323318 2.64971e-09 0 2.58713e-09 0 1.46492e-08
146 3 0.001 0.00293338 0 0.0327529 -1.32348e-09 0 -1.42445e-09 0 1.42848e-08
144 3 0.001 0.00386492 0 0.0319012 -4.51893e-09 0 -4.77378e-09 0 1.5058e-08
143 3 0.001 0.00431628 0 0.0314602 5.63431e-09 0 5.84001e-09 0 1.55056e-08
148 3 0.001 0.00197237 0 0.0335715 -1.30798e-09 0 -1.49966e-09 0 1.37069e-08
149 3 0.001 0.00148402 0 0.0339714 -3.83706e-10 0 -5.05909e-10 0 1.32771e-08
150 3 0.001 0.00099206 0 0.034367 1.52442e-09 0 1.73526e-09 0 9.46973e-09
147 3 0.001 0.00245591 0 0.0331657 1.57829e-09 0 1.95977e-09 0 1.39695e-08
151 3 0.001 0.000497213 0 0.03476 -9.66398e-10 0 -1.09817e-09 0 5.9339e-09
2 2 0.001 0 0 0.03515 -0.00398843 0 0.0153903 0 2.9467e-09
