ITEM: TIMESTEP
2500000
ITEM: NUMBER OF ATOMS
151
ITEM: BOX BOUNDS ff ff ff
-1.0000000000000000e-02 1.0000000000000000e-02
-6.0000000000000001e-03 6.0000000000000001e-03
-5.2499999999999998e-02 5.2499999999999998e-02
ITEM: ATOMS id type radius x y z fx fy fz c_bendingE c_stretchingE
1 1 0.001 0 0 -0.0475 -0.00436265 0 -0.0133359 0 3.44658e-09
3 3 0.001 0.000374269 0 -0.046991 -1.34701e-10 0 -8.90894e-10 0 6.90217e-09
4 3 0.001 0.000747142 0 -0.0464809 -9.90191e-09 0 1.01745e-08 0 1.05726e-08
5 3 0.001 0.00111823 0 -0.0459703 2.16727e-08 0 -1.40508e-08 0 1.44876e-08
6 3 0.001 0.00148722 0 -0.0454583 -2.9079e-08 0 1.75462e-08 0 1.47662e-08
7 3 0.001 0.00185343 0 -0.0449443 9.80834e-09 0 -5.81605e-09 0 1.48221e-08
8 3 0.001 0.00221618 0 -0.0444278 2.05872e-09 0 -3.79675e-09 0 1.48886e-08
9 3 0.001 0.00257479 0 -0.0439085 -4.57119e-09 0 4.40684e-09 0 1.49647e-08
10 3 0.001 0.00292858 0 -0.0433859 -2.64235e-08 0 2.01995e-08 0 1.50491e-08
11 3 0.001 0.00327689 0 -0.0428596 3.48758e-08 0 -2.66059e-08 0 1.51405e-08
12 3 0.001 0.00361906 0 -0.0423293 -3.92759e-08 0 2.24952e-08 0 1.52374e-08
13 3 0.001 0.00395446 0 -0.0417948 1.12871e-08 0 -9.49622e-09 0 1.53381e-08
14 3 0.001 0.00428246 0 -0.0412556 -8.91705e-09 0 3.68668e-09 0 1.54409e-08
15 3 0.001 0.00460245 0 -0.0407117 -1.31634e-08 0 1.025e-08 0 1.55442e-08
16 3 0.001 0.00491384 0 -0.0401628 7.86615e-09 0 -3.74197e-09 0 1.5646e-08
17 3 0.001 0.00521609 0 -0.0396088 -1.31126e-08 0 6.92939e-09 0 1.57446e-08
18 3 0.001 0.00550866 0 -0.0390497 1.33062e-09 0 3.43052e-09 0 1.58383e-08
19 3 0.001 0.00579105 0 -0.0384854 -9.37586e-09 0 5.51028e-09 0 1.59252e-08
20 3 0.001 0.00606281 0 -0.0379158 -1.98121e-09 0 2.47589e-10 0 1.60039e-08
21 3 0.001 0.00632351 0 -0.0373412 -1.4567e-08 0 7.50446e-09 0 1.60729e-08
22 3 0.001 0.00657279 0 -0.0367615 1.07498e-08 0 -3.01814e-09 0 1.61308e-08
23 3 0.001 0.00681031 0 -0.0361768 -2.78628e-08 0 1.10884e-08 0 1.61767e-08
24 3 0.001 0.00703579 0 -0.0355875 2.53746e-08 0 -8.9765e-09 0 1.62095e-08
25 3 0.001 0.00724902 0 -0.0349936 -3.64676e-08 0 1.10197e-08 0 1.62287e-08
26 3 0.001 0.00744983 0 -0.0343954 1.69611e-08 0 -3.78903e-09 0 1.62339e-08
27 3 0.001 0.0076381 0 -0.0337931 -1.60352e-08 0 8.05363e-09 0 1.6225e-08
28 3 0.001 0.00781381 0 -0.033187 8.23579e-09 0 8.61667e-10 0 1.62021e-08
29 3 0.001 0.00797695 0 -0.0325775 -1.50185e-08 0 9.85014e-09 0 1.61658e-08
30 3 0.001 0.00812761 0 -0.0319647 5.22572e-09 0 -2.10604e-09 0 1.61167e-08
31 3 0.001 0.00826593 0 -0.031349 -8.85097e-09 0 4.58535e-09 0 1.60558e-08
32 3 0.001 0.0083921 0 -0.0307307 3.40516e-09 0 -1.00899e-10 0 1.59841e-08
33 3 0.001 0.0085064 0 -0.0301101 -1.7714e-08 0 6.67639e-10 0 1.59031e-08
34 3 0.001 0.00860914 0 -0.0294875 2.07225e-08 0 -2.31531e-09 0 1.58142e-08
35 3 0.001 0.0087007 0 -0.0288631 -2.99308e-08 0 4.16405e-09 0 1.57191e-08
36 3 0.001 0.00878153 0 -0.0282372 2.4754e-08 0 -2.0302e-09 0 1.56195e-08
37 3 0.001 0.0088521 0 -0.0276101 -1.55677e-08 0 7.54574e-09 0 1.55171e-08
38 3 0.001 0.00891295 0 -0.026982 -7.29626e-09 0 3.64326e-09 0 1.54138e-08
39 3 0.001 0.00896469 0 -0.026353 1.42285e-08 0 -6.70131e-10 0 1.53113e-08
40 3 0.001 0.00900792 0 -0.0257234 -4.60005e-09 0 5.63949e-09 0 1.52111e-08
41 3 0.001 0.00904332 0 -0.0250933 -1.71589e-08 0 1.17101e-09 0 1.51121e-08
42 3 0.001 0.0090716 0 -0.0244629 3.18482e-08 0 -3.12557e-10 0 1.50147e-08
43 3 0.001 0.00909347 0 -0.0238321 -2.7809e-08 0 4.64567e-09 0 1.49237e-08
44 3 0.001 0.00910966 0 -0.0232012 8.82062e-09 0 8.42614e-10 0 1.48435e-08
45 3 0.001 0.00912089 0 -0.0225702 2.67418e-09 0 4.95272e-09 0 1.47766e-08
46 3 0.001 0.00912783 0 -0.0219391 -3.44359e-09 0 1.52141e-09 0 1.47239e-08
47 3 0.001 0.00913113 0 -0.021308 6.77748e-09 0 2.71912e-09 0 1.46847e-08
48 3 0.001 0.00913137 0 -0.0206768 -1.4647e-09 0 2.91281e-10 0 1.46577e-08
49 3 0.001 0.00912909 0 -0.0200457 -1.58786e-08 0 1.46886e-09 0 1.46407e-08
50 3 0.001 0.00912477 0 -0.0194146 3.82572e-08 0 -1.88052e-09 0 1.46316e-08
51 3 0.001 0.00911885 0 -0.0187835 -3.29581e-08 0 -3.5647e-09 0 1.46283e-08
52 3 0.001 0.00911168 0 -0.0181524 1.47774e-08 0 2.64522e-09 0 1.4629e-08
53 3 0.001 0.0091036 0 -0.0175213 2.40516e-09 0 -1.6854e-09 0 1.46321e-08
54 3 0.001 0.00909486 0 -0.0168902 -3.14742e-09 0 -4.41456e-10 0 1.46367e-08
55 3 0.001 0.00908569 0 -0.0162592 2.35716e-08 0 1.38172e-09 0 1.46416e-08
56 3 0.001 0.00907628 0 -0.0156281 -5.06017e-08 0 1.39996e-09 0 1.46465e-08
57 3 0.001 0.00906678 0 -0.014997 6.60089e-08 0 2.82198e-09 0 1.46509e-08
58 3 0.001 0.00905731 0 -0.014366 -4.30189e-08 0 3.87437e-09 0 1.46547e-08
59 3 0.001 0.00904798 0 -0.0137349 2.36364e-08 0 -1.58005e-10 0 1.46577e-08
60 3 0.001 0.00903885 0 -0.0131038 -1.35522e-08 0 -9.84251e-11 0 1.46601e-08
61 3 0.001 0.00903 0 -0.0124728 1.81054e-08 0 2.31086e-10 0 1.46618e-08
62 3 0.001 0.00902147 0 -0.0118417 -1.81458e-08 0 7.24712e-10 0 1.46629e-08
63 3 0.001 0.00901331 0 -0.0112106 2.00589e-08 0 2.13312e-09 0 1.46636e-08
64 3 0.001 0.00900556 0 -0.0105795 -6.81021e-09 0 -9.58458e-10 0 1.46641e-08
65 3 0.001 0.00899824 0 -0.00994843 6.40408e-09 0 3.28678e-09 0 1.46644e-08
66 3 0.001 0.00899139 0 -0.00931733 -1.61346e-08 0 2.11317e-09 0 1.46646e-08
67 3 0.001 0.00898503 0 -0.00868623 2.19709e-08 0 -6.68907e-10 0 1.46648e-08
68 3 0.001 0.0089792 0 -0.00805512 -1.72384e-08 0 -1.81553e-09 0 1.46651e-08
69 3 0.001 0.00897392 0 -0.00742401 1.45814e-08 0 -2.53129e-10 0 1.46653e-08
70 3 0.001 0.0089692 0 -0.00679289 -8.46929e-09 0 1.95974e-09 0 1.46655e-08
71 3 0.001 0.00896507 0 -0.00616177 3.00173e-09 0 3.22856e-09 0 1.46657e-08
72 3 0.001 0.00896155 0 -0.00553065 -1.47627e-10 0 4.60758e-09 0 1.46658e-08
73 3 0.001 0.00895864 0 -0.00489952 -2.01586e-09 0 -1.92899e-10 0 1.4666e-08
74 3 0.001 0.00895637 0 -0.00426839 -9.48967e-09 0 -4.34008e-09 0 1.46661e-08
75 3 0.001 0.00895475 0 -0.00363726 1.79311e-08 0 9.5626e-10 0 1.46662e-08
76 3 0.001 0.00895377 0 -0.00300613 -3.78226e-09 0 -3.59202e-09 0 1.46662e-08
77 3 0.001 0.00895344 0 -0.00237499 -2.14887e-08 0 -7.70427e-11 0 1.46663e-08
78 3 0.001 0.00895377 0 -0.00174386 2.89693e-08 0 4.59393e-09 0 1.46662e-08
79 3 0.001 0.00895475 0 -0.00111272 -3.23162e-08 0 1.37011e-09 0 1.46662e-08
80 3 0.001 0.00895637 0 -0.000481593 2.92085e-08 0 4.87836e-09 0 1.46661e-08
81 3 0.001 0.00895864 0 0.000149537 -2.70058e-08 0 -8.53887e-10 0 1.4666e-08
82 3 0.001 0.00896155 0 0.000780664 2.13667e-08 0 -4.48283e-09 0 1.46659e-08
83 3 0.001 0.00896507 0 0.00141179 -1.44876e-08 0 -3.253e-10 0 1.46657e-08
84 3 0.001 0.0089692 0 0.00204291 1.31386e-08 0 6.2033e-10 0 1.46655e-08
85 3 0.001 0.00897391 0 0.00267402 -3.36635e-08 0 5.53964e-10 0 1.46654e-08
86 3 0.001 0.0089792 0 0.00330514 4.99804e-08 0 -4.25014e-10 0 1.46651e-08
87 3 0.001 0.00898503 0 0.00393624 -4.62222e-08 0 1.64155e-09 0 1.46649e-08
88 3 0.001 0.00899139 0 0.00456735 3.96443e-08 0 -5.90856e-11 0 1.46647e-08
89 3 0.001 0.00899824 0 0.00519844 -4.13173e-08 0 -3.79384e-10 0 1.46644e-08
90 3 0.001 0.00900556 0 0.00582953 4.03846e-08 0 8.37036e-10 0 1.46642e-08
91 3 0.001 0.00901331 0 0.00646062 -3.18855e-08 0 -1.84797e-09 0 1.46637e-08
92 3 0.001 0.00902147 0 0.0070917 4.26784e-08 0 -9.36975e-10 0 1.4663e-08
93 3 0.001 0.00903 0 0.00772278 -5.5865e-08 0 2.16427e-09 0 1.46619e-08
94 3 0.001 0.00903885 0 0.00835385 3.51999e-08 0 3.78329e-10 0 1.46602e-08
95 3 0.001 0.00904797 0 0.00898492 1.256e-08 0 1.2633e-09 0 1.46579e-08
96 3 0.001 0.00905731 0 0.00961598 -2.06268e-08 0 -2.58056e-09 0 1.46548e-08
97 3 0.001 0.00906678 0 0.010247 4.21997e-09 0 -6.02042e-10 0 1.46511e-08
98 3 0.001 0.00907628 0 0.0108781 2.64905e-09 0 -2.23956e-09 0 1.46467e-08
99 3 0.001 0.00908569 0 0.0115092 6.85155e-09 0 -1.57817e-09 0 1.46418e-08
100 3 0.001 0.00909486 0 0.0121402 2.53624e-09 0 1.40994e-09 0 1.46368e-08
101 3 0.001 0.0091036 0 0.0127713 -1.73489e-08 0 4.52441e-09 0 1.46323e-08
102 3 0.001 0.00911168 0 0.0134024 3.02139e-08 0 -1.09458e-09 0 1.46291e-08
103 3 0.001 0.00911885 0 0.0140335 -1.86159e-08 0 3.36901e-09 0 1.46284e-08
104 3 0.001 0.00912477 0 0.0146646 1.00859e-08 0 1.77313e-09 0 1.46318e-08
105 3 0.001 0.00912909 0 0.0152957 -2.30701e-08 0 -6.86054e-10 0 1.46409e-08
106 3 0.001 0.00913137 0 0.0159269 3.7184e-08 0 1.40094e-09 0 1.46579e-08
107 3 0.001 0.00913113 0 0.016558 -1.00562e-08 0 -1.30443e-09 0 1.46849e-08
108 3 0.001 0.00912784 0 0.0171891 -2.06873e-08 0 -9.27366e-10 0 1.47241e-08
109 3 0.001 0.0091209 0 0.0178202 2.60176e-08 0 -3.94886e-09 0 1.47768e-08
110 3 0.001 0.00910967 0 0.0184512 -1.62084e-08 0 -9.90029e-10 0 1.48437e-08
111 3 0.001 0.00909347 0 0.0190821 6.8237e-09 0 -3.29002e-09 0 1.49239e-08
112 3 0.001 0.0090716 0 0.0197129 1.08575e-08 0 5.82494e-10 0 1.50149e-08
113 3 0.001 0.00904333 0 0.0203433 -2.51969e-08 0 9.14888e-11 0 1.51123e-08
114 3 0.001 0.00900793 0 0.0209734 2.31561e-08 0 -2.42908e-09 0 1.52114e-08
115 3 0.001 0.0089647 0 0.0216031 -1.4605e-08 0 -1.45427e-09 0 1.53116e-08
116 3 0.001 0.00891297 0 0.022232 1.63812e-09 0 -3.38645e-09 0 1.5414e-08
118 3 0.001 0.00878154 0 0.0234873 -3.70529e-08 0 -3.76456e-09 0 1.56198e-08
117 3 0.001 0.00885211 0 0.0228601 1.95468e-08 0 -2.41516e-09 0 1.55174e-08
121 3 0.001 0.00850642 0 0.0253601 -2.87297e-09 0 2.66227e-09 0 1.59034e-08
119 3 0.001 0.00870072 0 0.0241131 2.75551e-08 0 4.24643e-09 0 1.57194e-08
120 3 0.001 0.00860916 0 0.0247375 -1.16362e-08 0 -2.54806e-09 0 1.58145e-08
122 3 0.001 0.00839213 0 0.0259807 2.50884e-09 0 1.77513e-09 0 1.59845e-08
123 3 0.001 0.00826595 0 0.026599 -9.05351e-09 0 -3.89919e-09 0 1.60561e-08
124 3 0.001 0.00812764 0 0.0272147 9.44864e-09 0 2.52726e-09 0 1.61171e-08
125 3 0.001 0.00797698 0 0.0278275 -2.20497e-08 0 -1.16816e-08 0 1.61662e-08
128 3 0.001 0.00744985 0 0.0296454 -2.71189e-08 0 -1.08595e-08 0 1.62343e-08
127 3 0.001 0.00763813 0 0.0290431 -3.79764e-09 0 -1.98356e-09 0 1.62253e-08
126 3 0.001 0.00781383 0 0.028437 1.9172e-08 0 3.82832e-09 0 1.62025e-08
130 3 0.001 0.00703582 0 0.0308375 -2.50719e-08 0 -9.22584e-09 0 1.62099e-08
129 3 0.001 0.00724905 0 0.0302436 2.55919e-08 0 9.12911e-09 0 1.62291e-08
131 3 0.001 0.00681033 0 0.0314269 1.24234e-08 0 6.82039e-09 0 1.61771e-08
132 3 0.001 0.00657282 0 0.0320115 -1.45322e-08 0 -6.20306e-09 0 1.61313e-08
133 3 0.001 0.00632354 0 0.0325912 1.59024e-09 0 -1.48777e-09 0 1.60733e-08
136 3 0.001 0.00550869 0 0.0342997 -3.02643e-08 0 -1.8024e-08 0 1.58387e-08
135 3 0.001 0.00579108 0 0.0337354 1.77424e-08 0 9.40084e-09 0 1.59257e-08
134 3 0.001 0.00606284 0 0.0331659 -1.32949e-08 0 -6.45567e-09 0 1.60044e-08
137 3 0.001 0.00521612 0 0.0348588 2.20945e-08 0 1.0965e-08 0 1.57451e-08
138 3 0.001 0.00491387 0 0.0354128 -3.1685e-08 0 -1.97778e-08 0 1.56465e-08
141 3 0.001 0.00395448 0 0.0370448 -1.63517e-08 0 -8.36474e-09 0 1.53385e-08
140 3 0.001 0.00428248 0 0.0365056 -1.30635e-08 0 -3.45756e-09 0 1.54414e-08
139 3 0.001 0.00460247 0 0.0359617 2.35874e-08 0 1.21485e-08 0 1.55446e-08
142 3 0.001 0.00361908 0 0.0375793 1.25789e-08 0 7.98482e-09 0 1.52378e-08
143 3 0.001 0.0032769 0 0.0381096 -1.24526e-08 0 -4.85024e-09 0 1.5141e-08
144 3 0.001 0.00292859 0 0.0386359 -7.80984e-09 0 -5.62554e-09 0 1.50496e-08
146 3 0.001 0.00221619 0 0.0396779 6.58144e-09 0 5.4967e-09 0 1.48891e-08
147 3 0.001 0.00185344 0 0.0401943 -2.79563e-08 0 -2.32687e-08 0 1.48226e-08
145 3 0.001 0.0025748 0 0.0391585 5.33682e-09 0 4.25278e-09 0 1.49652e-08
150 3 0.001 0.000747146 0 0.0417309 4.76353e-09 0 2.37963e-10 0 1.0573e-08
148 3 0.001 0.00148723 0 0.0407083 2.32787e-08 0 2.07031e-08 0 1.47667e-08
149 3 0.001 0.00111824 0 0.0412203 -1.572e-08 0 -1.09266e-08 0 1.4488e-08
151 3 0.001 0.000374271 0 0.042241 1.89213e-10 0 -5.66746e-10 0 6.90251e-09
2 2 0.001 0 0 0.04275 -0.00436276 0 0.0133362 0 3.44674e-09
