ITEM: TIMESTEP
2600000
ITEM: NUMBER OF ATOMS
151
ITEM: BOX BOUNDS ff ff ff
-1.0000000000000000e-02 1.0000000000000000e-02
-6.0000000000000001e-03 6.0000000000000001e-03
-5.2499999999999998e-02 5.2499999999999998e-02
ITEM: ATOMS id type radius x y z fx fy fz c_bendingE c_stretchingE
1 1 0.001 0 0 -0.0475 -0.0048021 0 -0.0141383 0 4.07414e-09
3 3 0.001 0.000385632 0 -0.0469997 -6.81522e-09 0 6.01274e-09 0 8.16016e-09
4 3 0.001 0.000769752 0 -0.0464982 5.29104e-09 0 -5.17013e-09 0 1.21016e-08
5 3 0.001 0.00115197 0 -0.0459961 2.07116e-09 0 -1.44917e-10 0 1.63058e-08
6 3 0.001 0.0015319 0 -0.0454923 -1.35996e-08 0 1.18453e-08 0 1.66126e-08
7 3 0.001 0.00190883 0 -0.0449863 1.65636e-08 0 -1.24504e-08 0 1.66842e-08
8 3 0.001 0.00228201 0 -0.0444775 -2.52866e-08 0 1.80516e-08 0 1.67692e-08
9 3 0.001 0.00265071 0 -0.0439654 1.52365e-08 0 -1.47254e-08 0 1.68663e-08
10 3 0.001 0.00301418 0 -0.0434496 -1.10168e-08 0 7.87267e-09 0 1.69738e-08
11 3 0.001 0.00337172 0 -0.0429298 -3.67072e-09 0 2.97589e-09 0 1.70898e-08
12 3 0.001 0.00372261 0 -0.0424054 6.45071e-10 0 9.17165e-10 0 1.72123e-08
13 3 0.001 0.00406615 0 -0.0418761 -8.19394e-09 0 5.80981e-09 0 1.73391e-08
14 3 0.001 0.00440166 0 -0.0413418 -9.84067e-09 0 3.76223e-09 0 1.7468e-08
15 3 0.001 0.00472849 0 -0.0408021 1.4179e-08 0 -7.4944e-09 0 1.75966e-08
16 3 0.001 0.00504601 0 -0.0402569 -3.00732e-08 0 1.55559e-08 0 1.77224e-08
17 3 0.001 0.0053536 0 -0.0397061 1.85432e-08 0 -7.08504e-09 0 1.78432e-08
18 3 0.001 0.00565071 0 -0.0391495 -5.30211e-09 0 5.71956e-09 0 1.79566e-08
19 3 0.001 0.0059368 0 -0.0385872 -1.09882e-08 0 5.06666e-09 0 1.80603e-08
20 3 0.001 0.00621139 0 -0.0380192 -1.75355e-08 0 7.44932e-09 0 1.81524e-08
21 3 0.001 0.00647402 0 -0.0374456 2.1073e-08 0 -7.96648e-09 0 1.8231e-08
22 3 0.001 0.00672432 0 -0.0368665 -1.49235e-08 0 7.83136e-09 0 1.82945e-08
23 3 0.001 0.00696195 0 -0.0362821 -6.55652e-09 0 8.77292e-10 0 1.83416e-08
24 3 0.001 0.00718663 0 -0.0356926 6.02782e-09 0 2.62482e-10 0 1.83714e-08
25 3 0.001 0.00739816 0 -0.0350982 -2.15624e-08 0 6.39184e-09 0 1.83832e-08
26 3 0.001 0.0075964 0 -0.0344993 2.80268e-08 0 -6.47452e-09 0 1.83768e-08
27 3 0.001 0.00778125 0 -0.0338961 -4.52326e-08 0 1.77522e-08 0 1.83524e-08
28 3 0.001 0.00795273 0 -0.033289 3.55812e-08 0 -9.12283e-09 0 1.83104e-08
29 3 0.001 0.00811089 0 -0.0326783 -9.88563e-09 0 3.40178e-09 0 1.82517e-08
30 3 0.001 0.00825587 0 -0.0320643 -2.06132e-08 0 2.8872e-09 0 1.81775e-08
31 3 0.001 0.00838787 0 -0.0314474 1.29003e-08 0 -3.86297e-09 0 1.80893e-08
32 3 0.001 0.00850718 0 -0.0308279 8.49239e-09 0 -6.10378e-10 0 1.79889e-08
33 3 0.001 0.00861415 0 -0.0302061 -3.22832e-08 0 6.96721e-09 0 1.78782e-08
34 3 0.001 0.00870917 0 -0.0295824 3.5518e-08 0 -4.98148e-09 0 1.77594e-08
35 3 0.001 0.00879273 0 -0.028957 -2.90319e-08 0 6.17274e-09 0 1.76348e-08
36 3 0.001 0.00886537 0 -0.0283303 2.04255e-08 0 1.80556e-09 0 1.75068e-08
37 3 0.001 0.00892768 0 -0.0277024 -5.63552e-09 0 1.40871e-09 0 1.73777e-08
38 3 0.001 0.0089803 0 -0.0270737 -9.15269e-09 0 2.6767e-09 0 1.725e-08
39 3 0.001 0.00902394 0 -0.0264442 1.24546e-09 0 -7.29186e-10 0 1.71243e-08
40 3 0.001 0.00905933 0 -0.0258143 1.38322e-08 0 -8.13923e-10 0 1.69993e-08
41 3 0.001 0.00908724 0 -0.0251839 -7.42577e-09 0 3.85446e-09 0 1.68782e-08
42 3 0.001 0.00910848 0 -0.0245533 -1.64111e-09 0 1.31308e-09 0 1.67673e-08
43 3 0.001 0.00912383 0 -0.0239225 -2.90954e-09 0 1.4285e-09 0 1.66718e-08
44 3 0.001 0.00913404 0 -0.0232916 3.07814e-09 0 8.50743e-10 0 1.65939e-08
45 3 0.001 0.00913986 0 -0.0226606 2.50397e-08 0 4.98994e-10 0 1.65342e-08
46 3 0.001 0.00914196 0 -0.0220296 -5.11731e-08 0 2.87916e-09 0 1.64911e-08
47 3 0.001 0.00914096 0 -0.0213986 5.00023e-08 0 2.59202e-09 0 1.64625e-08
48 3 0.001 0.00913742 0 -0.0207676 -1.95134e-08 0 1.57839e-09 0 1.64456e-08
49 3 0.001 0.00913184 0 -0.0201367 -1.55981e-08 0 1.04839e-09 0 1.64377e-08
50 3 0.001 0.00912466 0 -0.0195057 3.43388e-08 0 -1.83772e-09 0 1.64361e-08
51 3 0.001 0.00911625 0 -0.0188747 -3.46278e-08 0 -4.64682e-10 0 1.64387e-08
52 3 0.001 0.00910692 0 -0.0182438 3.05034e-08 0 8.3028e-10 0 1.64438e-08
53 3 0.001 0.00909696 0 -0.0176129 -2.11427e-08 0 -1.38029e-09 0 1.645e-08
54 3 0.001 0.00908658 0 -0.016982 4.83233e-09 0 3.84692e-09 0 1.64564e-08
55 3 0.001 0.00907595 0 -0.0163511 1.5139e-08 0 2.936e-09 0 1.64623e-08
56 3 0.001 0.00906524 0 -0.0157201 -3.19748e-08 0 2.70221e-09 0 1.64675e-08
57 3 0.001 0.00905455 0 -0.0150892 2.52498e-08 0 2.52546e-09 0 1.64717e-08
58 3 0.001 0.00904398 0 -0.0144583 1.06301e-08 0 -8.81625e-10 0 1.6475e-08
59 3 0.001 0.0090336 0 -0.0138274 -3.63906e-08 0 -5.36931e-10 0 1.64774e-08
60 3 0.001 0.00902348 0 -0.0131965 1.20193e-08 0 -1.5976e-09 0 1.6479e-08
61 3 0.001 0.00901367 0 -0.0125656 1.5942e-08 0 9.1963e-10 0 1.64799e-08
62 3 0.001 0.00900422 0 -0.0119346 -3.53543e-09 0 1.5412e-09 0 1.64805e-08
63 3 0.001 0.00899517 0 -0.0113037 -2.41465e-08 0 -1.77844e-09 0 1.64808e-08
64 3 0.001 0.00898655 0 -0.0106727 2.75081e-08 0 4.0064e-10 0 1.64812e-08
65 3 0.001 0.00897841 0 -0.0100418 -1.36392e-08 0 -2.21831e-10 0 1.64815e-08
66 3 0.001 0.00897078 0 -0.00941084 -1.35591e-08 0 -8.008e-10 0 1.64818e-08
67 3 0.001 0.0089637 0 -0.00877988 3.3933e-08 0 3.47761e-09 0 1.64822e-08
68 3 0.001 0.00895719 0 -0.00814891 -3.62339e-08 0 1.29731e-09 0 1.64825e-08
69 3 0.001 0.00895129 0 -0.00751793 1.61727e-08 0 1.00064e-09 0 1.64828e-08
70 3 0.001 0.00894602 0 -0.00688695 -9.8937e-09 0 8.19758e-10 0 1.64831e-08
71 3 0.001 0.0089414 0 -0.00625597 1.67406e-08 0 5.46216e-10 0 1.64833e-08
72 3 0.001 0.00893746 0 -0.00562498 -2.10724e-08 0 4.13422e-11 0 1.64835e-08
73 3 0.001 0.00893421 0 -0.00499399 1.4761e-08 0 1.21867e-09 0 1.64837e-08
74 3 0.001 0.00893167 0 -0.00436299 -2.12925e-08 0 3.09003e-10 0 1.64839e-08
75 3 0.001 0.00892985 0 -0.00373199 2.13907e-08 0 2.27246e-10 0 1.6484e-08
76 3 0.001 0.00892875 0 -0.00310099 -1.27753e-08 0 2.19917e-10 0 1.64841e-08
77 3 0.001 0.00892838 0 -0.00246999 -2.1951e-08 0 5.37443e-10 0 1.64841e-08
78 3 0.001 0.00892875 0 -0.00183899 5.43149e-08 0 4.95668e-10 0 1.64841e-08
79 3 0.001 0.00892985 0 -0.00120799 -5.11727e-08 0 2.96981e-10 0 1.6484e-08
80 3 0.001 0.00893167 0 -0.000576989 -4.73078e-09 0 1.0648e-10 0 1.64839e-08
81 3 0.001 0.00893421 0 5.40078e-05 3.56643e-08 0 -4.97179e-10 0 1.64838e-08
82 3 0.001 0.00893746 0 0.000685001 -1.30135e-08 0 8.14462e-10 0 1.64836e-08
83 3 0.001 0.0089414 0 0.00131599 -3.76899e-08 0 4.68396e-10 0 1.64834e-08
84 3 0.001 0.00894602 0 0.00194697 5.58478e-08 0 -1.20159e-09 0 1.64831e-08
85 3 0.001 0.00895129 0 0.00257795 -5.10489e-08 0 -1.09717e-10 0 1.64828e-08
86 3 0.001 0.00895719 0 0.00320893 3.23977e-08 0 -8.62537e-10 0 1.64825e-08
87 3 0.001 0.00896369 0 0.0038399 -3.30569e-08 0 -1.44928e-09 0 1.64822e-08
88 3 0.001 0.00897078 0 0.00447086 3.7204e-08 0 9.91126e-10 0 1.64819e-08
89 3 0.001 0.00897841 0 0.00510181 -3.24985e-08 0 8.62257e-10 0 1.64816e-08
90 3 0.001 0.00898655 0 0.00573276 -2.34915e-10 0 4.68167e-10 0 1.64813e-08
91 3 0.001 0.00899517 0 0.00636371 1.43946e-08 0 1.95039e-09 0 1.64809e-08
92 3 0.001 0.00900422 0 0.00699464 -8.49672e-09 0 -7.06878e-10 0 1.64806e-08
93 3 0.001 0.00901367 0 0.00762557 9.37941e-10 0 -2.13545e-11 0 1.64801e-08
94 3 0.001 0.00902348 0 0.0082565 -1.04557e-08 0 2.33333e-09 0 1.64791e-08
95 3 0.001 0.0090336 0 0.00888742 1.11008e-08 0 1.93681e-11 0 1.64775e-08
96 3 0.001 0.00904397 0 0.00951834 -9.08486e-09 0 1.88947e-09 0 1.64752e-08
97 3 0.001 0.00905454 0 0.0101493 1.19995e-08 0 -1.04423e-09 0 1.64719e-08
98 3 0.001 0.00906524 0 0.0107802 -1.74923e-08 0 -1.84403e-09 0 1.64677e-08
99 3 0.001 0.00907595 0 0.0114111 -4.97899e-11 0 -2.07925e-09 0 1.64625e-08
100 3 0.001 0.00908657 0 0.012042 2.26772e-08 0 -3.73851e-09 0 1.64565e-08
101 3 0.001 0.00909696 0 0.0126729 -2.92572e-08 0 1.9891e-09 0 1.64502e-08
102 3 0.001 0.00910692 0 0.0133038 1.09266e-08 0 4.83273e-11 0 1.6444e-08
103 3 0.001 0.00911625 0 0.0139348 1.57881e-08 0 3.35916e-10 0 1.64389e-08
104 3 0.001 0.00912466 0 0.0145657 -3.3826e-08 0 3.26897e-09 0 1.64363e-08
105 3 0.001 0.00913184 0 0.0151967 2.68431e-08 0 -8.72668e-10 0 1.64379e-08
106 3 0.001 0.00913742 0 0.0158277 1.03613e-08 0 -9.72116e-10 0 1.64458e-08
107 3 0.001 0.00914096 0 0.0164587 -4.17054e-08 0 -1.74956e-09 0 1.64627e-08
108 3 0.001 0.00914196 0 0.0170897 4.039e-08 0 -2.31112e-09 0 1.64913e-08
109 3 0.001 0.00913987 0 0.0177207 -2.24006e-08 0 2.99042e-10 0 1.65344e-08
110 3 0.001 0.00913405 0 0.0183516 1.3351e-08 0 9.52123e-11 0 1.65942e-08
111 3 0.001 0.00912383 0 0.0189825 -9.5328e-09 0 -1.28662e-09 0 1.6672e-08
112 3 0.001 0.00910849 0 0.0196133 1.45978e-08 0 -5.62911e-10 0 1.67676e-08
113 3 0.001 0.00908725 0 0.0202439 -9.27445e-09 0 -3.00788e-09 0 1.68784e-08
114 3 0.001 0.00905934 0 0.0208743 -7.97434e-09 0 4.19543e-10 0 1.69996e-08
115 3 0.001 0.00902395 0 0.0215043 1.88418e-08 0 2.10312e-09 0 1.71245e-08
116 3 0.001 0.00898032 0 0.0221337 -6.45647e-09 0 -1.77727e-09 0 1.72503e-08
118 3 0.001 0.00886539 0 0.0233903 -2.58118e-09 0 -4.08108e-09 0 1.75071e-08
117 3 0.001 0.00892769 0 0.0227625 -8.71796e-10 0 -8.90209e-12 0 1.7378e-08
121 3 0.001 0.00861417 0 0.0252661 2.75776e-08 0 4.21068e-09 0 1.78785e-08
119 3 0.001 0.00879275 0 0.024017 1.27643e-08 0 -7.11155e-10 0 1.76351e-08
120 3 0.001 0.00870919 0 0.0246424 -2.52257e-08 0 -2.995e-09 0 1.77597e-08
122 3 0.001 0.00850721 0 0.0258879 -8.68828e-09 0 -8.4921e-10 0 1.79892e-08
123 3 0.001 0.0083879 0 0.0265074 -8.66158e-09 0 -1.35704e-09 0 1.80897e-08
124 3 0.001 0.00825589 0 0.0271243 5.89744e-09 0 1.71788e-09 0 1.81779e-08
125 3 0.001 0.00811092 0 0.0277383 -3.5913e-09 0 -1.20122e-09 0 1.82521e-08
128 3 0.001 0.00759643 0 0.0295593 -1.49859e-08 0 -6.63976e-09 0 1.83773e-08
127 3 0.001 0.00778128 0 0.0289562 4.33217e-09 0 -1.23425e-09 0 1.83528e-08
126 3 0.001 0.00795276 0 0.028349 -2.74609e-09 0 2.68282e-10 0 1.83108e-08
130 3 0.001 0.00718667 0 0.0307526 3.86559e-09 0 -1.30342e-09 0 1.83718e-08
129 3 0.001 0.0073982 0 0.0301583 1.28718e-08 0 4.39661e-09 0 1.83837e-08
131 3 0.001 0.00696198 0 0.0313421 -2.88356e-08 0 -9.29807e-09 0 1.83421e-08
132 3 0.001 0.00672436 0 0.0319265 1.31524e-08 0 5.23643e-09 0 1.8295e-08
133 3 0.001 0.00647406 0 0.0325056 9.67087e-09 0 3.86963e-09 0 1.82315e-08
136 3 0.001 0.00565075 0 0.0342095 1.53833e-09 0 -8.28983e-10 0 1.79571e-08
135 3 0.001 0.00593684 0 0.0336472 2.75815e-08 0 1.36615e-08 0 1.80608e-08
134 3 0.001 0.00621142 0 0.0330792 -3.96498e-08 0 -1.88546e-08 0 1.81529e-08
137 3 0.001 0.00535364 0 0.0347661 -2.96566e-08 0 -1.94194e-08 0 1.78437e-08
138 3 0.001 0.00504604 0 0.035317 1.62815e-08 0 1.03453e-08 0 1.77229e-08
141 3 0.001 0.00406617 0 0.0369362 1.3878e-09 0 5.9243e-10 0 1.73396e-08
140 3 0.001 0.00440169 0 0.0364018 -1.30263e-08 0 -5.42066e-09 0 1.74685e-08
139 3 0.001 0.00472852 0 0.0358622 -4.66579e-09 0 -3.15502e-09 0 1.75971e-08
142 3 0.001 0.00372263 0 0.0374654 1.77769e-09 0 1.94114e-10 0 1.72128e-08
143 3 0.001 0.00337174 0 0.0379898 -5.84441e-09 0 -4.36116e-09 0 1.70903e-08
144 3 0.001 0.0030142 0 0.0385097 -4.4566e-09 0 -3.78545e-09 0 1.69743e-08
146 3 0.001 0.00228203 0 0.0395375 2.6245e-09 0 2.05839e-09 0 1.67698e-08
147 3 0.001 0.00190884 0 0.0400463 -6.98767e-09 0 -4.13161e-09 0 1.66847e-08
145 3 0.001 0.00265072 0 0.0390254 -3.3275e-09 0 5.27767e-10 0 1.68668e-08
150 3 0.001 0.000769758 0 0.0415582 -2.3767e-09 0 -1.35227e-09 0 1.21021e-08
148 3 0.001 0.00153191 0 0.0405523 1.99442e-09 0 8.25643e-10 0 1.66131e-08
149 3 0.001 0.00115197 0 0.0410561 -1.67515e-09 0 -2.53103e-09 0 1.63063e-08
151 3 0.001 0.000385634 0 0.0420597 1.9497e-09 0 8.38681e-11 0 8.16054e-09
2 2 0.001 0 0 0.04256 -0.00480222 0 0.0141385 0 4.07433e-09
