ITEM: TIMESTEP
7000000
ITEM: NUMBER OF ATOMS
151
ITEM: BOX BOUNDS ff ff ff
-1.0000000000000000e-02 1.0000000000000000e-02
-6.0000000000000001e-03 6.0000000000000001e-03
-5.2499999999999998e-02 5.2499999999999998e-02
ITEM: ATOMS id type radius x y z fx fy fz c_bendingE c_stretchingE
1 1 0.001 0 0 -0.0475 -0.00356872 0 -0.0151879 0 2.56417e-09
3 3 0.001 0.000501821 0 -0.0471158 -1.07176e-10 0 6.98785e-11 0 5.16806e-09
4 3 0.001 0.00100125 0 -0.0467284 9.95698e-11 0 -1.72522e-10 0 8.51698e-09
5 3 0.001 0.00149776 0 -0.0463384 -3.72112e-11 0 7.81504e-11 0 1.2128e-08
6 3 0.001 0.00199063 0 -0.0459439 -7.82517e-11 0 1.60761e-10 0 1.25484e-08
7 3 0.001 0.00247862 0 -0.0455435 1.61777e-10 0 -1.997e-10 0 1.28134e-08
8 3 0.001 0.00296046 0 -0.0451356 -9.27174e-11 0 7.17464e-11 0 1.31323e-08
9 3 0.001 0.00343484 0 -0.0447192 5.48386e-11 0 -7.6901e-11 0 1.35017e-08
10 3 0.001 0.00390038 0 -0.0442929 -3.04786e-10 0 3.19899e-10 0 1.39174e-08
11 3 0.001 0.00435569 0 -0.0438558 5.53957e-10 0 -5.42182e-10 0 1.43742e-08
12 3 0.001 0.00479932 0 -0.0434069 -5.49826e-10 0 5.4336e-10 0 1.48659e-08
13 3 0.001 0.00522979 0 -0.0429454 3.38959e-10 0 -3.12421e-10 0 1.5385e-08
14 3 0.001 0.0056456 0 -0.0424707 -7.89718e-11 0 7.96234e-11 0 1.5923e-08
15 3 0.001 0.00604523 0 -0.0419823 -1.07913e-10 0 5.65862e-11 0 1.64704e-08
16 3 0.001 0.00642715 0 -0.0414801 3.88543e-11 0 -4.38127e-11 0 1.70166e-08
17 3 0.001 0.00678987 0 -0.0409638 1.35812e-10 0 -7.00975e-11 0 1.75505e-08
18 3 0.001 0.00713189 0 -0.0404336 -2.49966e-10 0 1.71523e-10 0 1.80604e-08
19 3 0.001 0.00745181 0 -0.0398899 2.64465e-10 0 -1.30905e-10 0 1.85346e-08
20 3 0.001 0.00774828 0 -0.0393331 -2.79207e-10 0 1.17696e-10 0 1.89617e-08
21 3 0.001 0.00802007 0 -0.0387638 1.2912e-10 0 -8.35396e-11 0 1.93308e-08
22 3 0.001 0.00826604 0 -0.0381829 2.655e-11 0 -2.20326e-12 0 1.96324e-08
23 3 0.001 0.00848523 0 -0.0375915 5.53658e-11 0 1.49578e-11 0 1.98582e-08
24 3 0.001 0.00867681 0 -0.0369905 -2.16346e-10 0 8.42598e-11 0 2.00023e-08
25 3 0.001 0.00884015 0 -0.0363812 -7.72948e-11 0 -1.97011e-11 0 2.00605e-08
26 3 0.001 0.00897479 0 -0.035765 4.30689e-10 0 -8.53692e-11 0 2.00312e-08
27 3 0.001 0.0090805 0 -0.0351432 -5.32193e-10 0 1.04588e-10 0 1.989e-08
28 3 0.001 0.00915723 0 -0.0345171 5.40124e-10 0 -3.47787e-11 0 1.96321e-08
29 3 0.001 0.00920512 0 -0.0338881 -7.39882e-10 0 3.81525e-11 0 1.93301e-08
30 3 0.001 0.00922441 0 -0.0332576 7.06854e-10 0 -2.36247e-11 0 1.90724e-08
31 3 0.001 0.00921544 0 -0.0326268 -6.4523e-10 0 -9.7441e-12 0 1.88995e-08
32 3 0.001 0.00917856 0 -0.031997 7.96704e-10 0 1.0899e-10 0 1.8792e-08
33 3 0.001 0.00911418 0 -0.0313695 -9.56705e-10 0 -1.26021e-10 0 1.86814e-08
34 3 0.001 0.00902279 0 -0.0307453 4.93414e-10 0 5.53338e-11 0 1.84868e-08
35 3 0.001 0.00890498 0 -0.0301255 9.65575e-11 0 4.37102e-11 0 1.81989e-08
36 3 0.001 0.00876151 0 -0.0295112 -4.93176e-10 0 -1.09064e-10 0 1.78544e-08
37 3 0.001 0.00859328 0 -0.0289031 5.66335e-10 0 1.99954e-10 0 1.74659e-08
39 3 0.001 0.00818679 0 -0.0277087 9.33156e-10 0 3.5742e-10 0 1.6594e-08
40 3 0.001 0.00795092 0 -0.0271234 -8.86162e-10 0 -3.57132e-10 0 1.61299e-08
38 3 0.001 0.00840133 0 -0.028302 -7.76767e-10 0 -2.71971e-10 0 1.70426e-08
42 3 0.001 0.00742058 0 -0.0259783 -8.64344e-11 0 -2.33373e-11 0 1.51921e-08
41 3 0.001 0.00769505 0 -0.0265465 4.41897e-10 0 2.01506e-10 0 1.56596e-08
45 3 0.001 0.00650006 0 -0.0243242 8.94261e-10 0 5.68479e-10 0 1.38878e-08
44 3 0.001 0.00682159 0 -0.0248673 -5.22583e-10 0 -3.0493e-10 0 1.4299e-08
43 3 0.001 0.00712893 0 -0.0254186 8.54742e-11 0 6.24041e-11 0 1.4736e-08
47 3 0.001 0.00582045 0 -0.0232604 9.72438e-10 0 6.53732e-10 0 1.31659e-08
46 3 0.001 0.00616584 0 -0.0237887 -1.08627e-09 0 -7.06922e-10 0 1.35084e-08
48 3 0.001 0.00546539 0 -0.0227384 -7.81303e-10 0 -5.31745e-10 0 1.28647e-08
50 3 0.001 0.00473225 0 -0.0217105 -4.54975e-10 0 -3.30327e-10 0 1.23988e-08
49 3 0.001 0.00510216 0 -0.0222221 6.11928e-10 0 4.38997e-10 0 1.26081e-08
51 3 0.001 0.00435712 0 -0.0212028 2.40487e-10 0 1.81037e-10 0 1.22391e-08
54 3 0.001 0.00321508 0 -0.0196918 -4.52169e-10 0 -3.67354e-10 0 1.20691e-08
53 3 0.001 0.00359709 0 -0.0201945 4.04403e-10 0 3.04023e-10 0 1.20735e-08
52 3 0.001 0.00397825 0 -0.0206977 -2.05579e-10 0 -1.52606e-10 0 1.21303e-08
57 3 0.001 0.00207848 0 -0.0181768 -2.88601e-10 0 -1.89043e-10 0 1.23688e-08
56 3 0.001 0.00245432 0 -0.018684 9.83003e-11 0 8.95749e-11 0 1.22174e-08
55 3 0.001 0.00283368 0 -0.0191887 2.10413e-10 0 1.50554e-10 0 1.21172e-08
59 3 0.001 0.00134315 0 -0.0171504 -4.0237e-10 0 -3.25815e-10 0 1.28189e-08
58 3 0.001 0.00170759 0 -0.0176659 4.21389e-10 0 2.68978e-10 0 1.257e-08
60 3 0.001 0.00098663 0 -0.0166295 2.64912e-10 0 1.66706e-10 0 1.3113e-08
62 3 0.001 0.000303351 0 -0.015568 -3.99795e-10 0 -2.2951e-10 0 1.38224e-08
61 3 0.001 0.000639529 0 -0.0161023 9.77313e-11 0 9.22246e-11 0 1.34488e-08
63 3 0.001 -2.0392e-05 0 -0.0150262 6.23976e-10 0 3.29135e-10 0 1.42287e-08
64 3 0.001 -0.000330191 0 -0.0144763 -7.39413e-10 0 -4.64012e-10 0 1.4662e-08
65 3 0.001 -0.000624546 0 -0.013918 1.00404e-09 0 4.98714e-10 0 1.51154e-08
66 3 0.001 -0.000901977 0 -0.0133512 -1.26645e-09 0 -5.55031e-10 0 1.55815e-08
67 3 0.001 -0.00116103 0 -0.0127758 1.50393e-09 0 6.59119e-10 0 1.6052e-08
68 3 0.001 -0.00140032 0 -0.0121919 -1.34494e-09 0 -5.65363e-10 0 1.65178e-08
69 3 0.001 -0.00161848 0 -0.0115998 1.00621e-09 0 3.09549e-10 0 1.69696e-08
70 3 0.001 -0.00181427 0 -0.011 -4.3554e-10 0 -1.42281e-10 0 1.73978e-08
72 3 0.001 -0.00213416 0 -0.00977967 7.57964e-10 0 1.65999e-10 0 1.81452e-08
71 3 0.001 -0.00198652 0 -0.0103931 -1.14057e-10 0 1.1061e-11 0 1.77927e-08
73 3 0.001 -0.00225629 0 -0.00916073 -9.95311e-10 0 -2.08914e-10 0 1.84467e-08
75 3 0.001 -0.00242101 0 -0.00791012 -5.11322e-10 0 -3.66013e-11 0 1.88679e-08
74 3 0.001 -0.00235211 0 -0.00853719 9.06219e-10 0 1.04917e-10 0 1.86896e-08
76 3 0.001 -0.00246253 0 -0.00728066 3.03456e-10 0 2.88678e-11 0 1.89767e-08
77 3 0.001 -0.00247641 0 -0.00664998 -2.19615e-10 0 3.53388e-12 0 1.90134e-08
78 3 0.001 -0.00246254 0 -0.00601931 4.26441e-10 0 -5.50903e-11 0 1.89768e-08
79 3 0.001 -0.00242102 0 -0.00538984 -4.95586e-10 0 4.70902e-11 0 1.88679e-08
80 3 0.001 -0.00235212 0 -0.00476277 4.81402e-10 0 -1.69474e-11 0 1.86897e-08
81 3 0.001 -0.0022563 0 -0.00413923 -2.91701e-10 0 5.49174e-11 0 1.84468e-08
82 3 0.001 -0.00213418 0 -0.00352029 2.72294e-10 0 -7.99196e-11 0 1.81453e-08
83 3 0.001 -0.00198654 0 -0.00290691 -1.20152e-10 0 9.23546e-12 0 1.77929e-08
84 3 0.001 -0.0018143 0 -0.00229995 -1.37182e-11 0 3.04316e-11 0 1.73979e-08
85 3 0.001 -0.00161851 0 -0.00170015 1.63666e-10 0 -1.23278e-11 0 1.69698e-08
86 3 0.001 -0.00140035 0 -0.00110808 -5.54511e-11 0 2.79665e-11 0 1.6518e-08
87 3 0.001 -0.00116107 0 -0.000524189 7.94801e-11 0 -4.41326e-11 0 1.60521e-08
88 3 0.001 -0.000902014 0 5.12355e-05 -1.01795e-10 0 4.27002e-11 0 1.55817e-08
89 3 0.001 -0.000624585 0 0.000618068 1.21809e-10 0 -5.87731e-11 0 1.51156e-08
90 3 0.001 -0.000330232 0 0.00117634 3.77327e-12 0 3.47287e-11 0 1.46621e-08
91 3 0.001 -2.04344e-05 0 0.00172623 -5.63592e-11 0 5.91587e-11 0 1.42289e-08
92 3 0.001 0.000303307 0 0.00226806 2.55532e-10 0 -1.56776e-10 0 1.38226e-08
93 3 0.001 0.000639484 0 0.0028023 -4.16616e-10 0 2.6311e-10 0 1.3449e-08
94 3 0.001 0.000986584 0 0.00332955 5.09258e-10 0 -3.53848e-10 0 1.31131e-08
95 3 0.001 0.0013431 0 0.0038505 -4.90036e-10 0 3.63274e-10 0 1.28191e-08
96 3 0.001 0.00170755 0 0.00436597 4.59997e-10 0 -2.94772e-10 0 1.25701e-08
97 3 0.001 0.00207843 0 0.00487684 -1.91219e-10 0 1.39787e-10 0 1.2369e-08
98 3 0.001 0.00245428 0 0.00538409 -6.90216e-11 0 5.62963e-11 0 1.22176e-08
99 3 0.001 0.00283363 0 0.00588874 1.49811e-10 0 -1.24712e-10 0 1.21174e-08
100 3 0.001 0.00321503 0 0.00639185 -1.64898e-10 0 1.26004e-10 0 1.20693e-08
101 3 0.001 0.00359704 0 0.0068945 2.58262e-10 0 -1.80627e-10 0 1.20736e-08
102 3 0.001 0.0039782 0 0.00739779 -1.23609e-10 0 9.55227e-11 0 1.21304e-08
103 3 0.001 0.00435708 0 0.0079028 -3.33185e-10 0 2.55212e-10 0 1.22392e-08
104 3 0.001 0.0047322 0 0.00841058 6.78211e-10 0 -5.04789e-10 0 1.2399e-08
105 3 0.001 0.00510212 0 0.00892215 -6.77506e-10 0 4.74126e-10 0 1.26082e-08
106 3 0.001 0.00546535 0 0.00943847 5.48485e-10 0 -3.89968e-10 0 1.28649e-08
107 3 0.001 0.00582041 0 0.00996041 -5.71111e-10 0 3.70672e-10 0 1.31661e-08
108 3 0.001 0.00616581 0 0.0104888 5.61918e-10 0 -3.4385e-10 0 1.35086e-08
109 3 0.001 0.00650003 0 0.0110242 -5.47926e-10 0 3.35226e-10 0 1.3888e-08
110 3 0.001 0.00682156 0 0.0115674 4.68962e-10 0 -2.97123e-10 0 1.42992e-08
111 3 0.001 0.0071289 0 0.0121186 -3.94488e-10 0 1.95749e-10 0 1.47363e-08
112 3 0.001 0.00742055 0 0.0126783 2.55133e-10 0 -1.46519e-10 0 1.51924e-08
113 3 0.001 0.00769503 0 0.0132466 -3.06489e-10 0 1.49922e-10 0 1.56598e-08
114 3 0.001 0.0079509 0 0.0138234 2.83447e-10 0 -1.06476e-10 0 1.61301e-08
115 3 0.001 0.00818677 0 0.0144087 -2.70653e-10 0 8.5823e-11 0 1.65943e-08
116 3 0.001 0.00840131 0 0.0150021 1.23523e-10 0 -7.20415e-11 0 1.70429e-08
117 3 0.001 0.00859327 0 0.0156031 1.24331e-10 0 -5.10411e-11 0 1.74662e-08
118 3 0.001 0.0087615 0 0.0162112 -5.81769e-10 0 1.42088e-10 0 1.78547e-08
119 3 0.001 0.00890498 0 0.0168255 7.02204e-10 0 -1.48277e-10 0 1.81993e-08
120 3 0.001 0.00902279 0 0.0174453 -4.96483e-10 0 9.50453e-11 0 1.84872e-08
121 3 0.001 0.00911418 0 0.0180695 1.93231e-10 0 -4.96513e-11 0 1.86818e-08
122 3 0.001 0.00917856 0 0.0186971 -1.99835e-10 0 -8.54589e-12 0 1.87924e-08
123 3 0.001 0.00921544 0 0.0193268 1.0249e-10 0 -1.52424e-11 0 1.88999e-08
124 3 0.001 0.00922442 0 0.0199576 1.35049e-10 0 9.75873e-12 0 1.90729e-08
125 3 0.001 0.00920513 0 0.0205881 -5.85265e-10 0 -3.05234e-11 0 1.93305e-08
126 3 0.001 0.00915724 0 0.0212171 9.51693e-10 0 9.6622e-11 0 1.96325e-08
127 3 0.001 0.00908051 0 0.0218432 -1.11799e-09 0 -1.74238e-10 0 1.98905e-08
128 3 0.001 0.00897481 0 0.022465 6.91442e-10 0 1.04654e-10 0 2.00318e-08
129 3 0.001 0.00884016 0 0.0230813 -2.76188e-11 0 -1.9118e-12 0 2.00611e-08
130 3 0.001 0.00867683 0 0.0236905 -3.4351e-10 0 -8.66435e-11 0 2.00029e-08
132 3 0.001 0.00826607 0 0.024883 -7.4771e-10 0 -3.21104e-10 0 1.9633e-08
131 3 0.001 0.00848525 0 0.0242915 4.48599e-10 0 1.51852e-10 0 1.98589e-08
133 3 0.001 0.00802009 0 0.0254638 9.59081e-10 0 4.30767e-10 0 1.93315e-08
134 3 0.001 0.00774831 0 0.0260331 -9.84361e-10 0 -4.86487e-10 0 1.89624e-08
135 3 0.001 0.00745184 0 0.0265899 9.4344e-10 0 5.36127e-10 0 1.85353e-08
137 3 0.001 0.00678989 0 0.0276638 2.15819e-10 0 1.0516e-10 0 1.75512e-08
138 3 0.001 0.00642718 0 0.0281801 5.24929e-10 0 4.18191e-10 0 1.70172e-08
136 3 0.001 0.00713192 0 0.0271337 -8.01104e-10 0 -5.04886e-10 0 1.80611e-08
141 3 0.001 0.00522981 0 0.0296454 -1.07419e-09 0 -9.8937e-10 0 1.53856e-08
139 3 0.001 0.00604526 0 0.0286824 -9.64018e-10 0 -7.44646e-10 0 1.6471e-08
140 3 0.001 0.00564563 0 0.0291707 1.0479e-09 0 8.92117e-10 0 1.59236e-08
145 3 0.001 0.00343485 0 0.0314192 3.46809e-10 0 4.18323e-10 0 1.35022e-08
142 3 0.001 0.00479934 0 0.0301069 9.59896e-10 0 8.97127e-10 0 1.48665e-08
143 3 0.001 0.00435571 0 0.0305558 -5.68192e-10 0 -5.74819e-10 0 1.43748e-08
144 3 0.001 0.0039004 0 0.0309929 3.59629e-11 0 5.38183e-11 0 1.39179e-08
148 3 0.001 0.00199064 0 0.032644 2.14645e-11 0 8.44455e-13 0 1.25489e-08
146 3 0.001 0.00296048 0 0.0318356 -4.94238e-10 0 -5.59505e-10 0 1.31328e-08
147 3 0.001 0.00247863 0 0.0322435 2.9897e-10 0 3.15203e-10 0 1.28139e-08
151 3 0.001 0.000501824 0 0.0338158 -7.09423e-11 0 -4.70328e-11 0 5.16837e-09
2 2 0.001 0 0 0.0342 -0.00356889 0 0.0151882 0 2.56432e-09
149 3 0.001 0.00149777 0 0.0330385 -1.41138e-10 0 -1.72447e-10 0 1.21285e-08
150 3 0.001 0.00100126 0 0.0334284 1.08519e-10 0 1.54385e-10 0 8.51738e-09
