ITEM: TIMESTEP
600000
ITEM: NUMBER OF ATOMS
151
ITEM: BOX BOUNDS ff ff ff
-1.0000000000000000e-02 1.0000000000000000e-02
-6.0000000000000001e-03 6.0000000000000001e-03
-5.2499999999999998e-02 5.2499999999999998e-02
ITEM: ATOMS id type radius x y z fx fy fz c_bendingE c_stretchingE
1 1 0.001 0 0 -0.0475 0.000130783 0 -0.00108108 0 3.99391e-10
3 3 0.001 0.000144741 0 -0.0468829 2.80403e-06 0 2.27969e-05 0 8.04642e-10
4 3 0.001 0.000289338 0 -0.0462658 7.33966e-07 0 3.85424e-06 0 4.31638e-10
5 3 0.001 0.000433643 0 -0.0456492 -1.51196e-06 0 -1.4797e-05 0 6.85287e-11
6 3 0.001 0.000577724 0 -0.0450327 -1.26691e-06 0 -8.15573e-06 0 8.49858e-11
7 3 0.001 0.000721517 0 -0.044416 4.40646e-07 0 1.19944e-05 0 8.47232e-11
8 3 0.001 0.00086495 0 -0.0437993 -6.70711e-06 0 -1.74049e-05 0 8.5328e-11
9 3 0.001 0.00100795 0 -0.0431825 5.78009e-07 0 8.92073e-06 0 8.61808e-11
10 3 0.001 0.00115045 0 -0.0425656 -6.3113e-07 0 -1.15885e-05 0 8.64565e-11
11 3 0.001 0.00129238 0 -0.0419486 3.54222e-07 0 -4.73109e-06 0 8.78691e-11
12 3 0.001 0.00143366 0 -0.0413314 -7.64317e-07 0 6.32182e-06 0 8.78134e-11
13 3 0.001 0.00157423 0 -0.040714 -2.39846e-06 0 8.58082e-06 0 8.67156e-11
14 3 0.001 0.00171401 0 -0.0400965 8.03779e-07 0 1.82363e-05 0 8.46321e-11
15 3 0.001 0.00185294 0 -0.0394787 8.76818e-07 0 -4.15418e-08 0 8.32035e-11
16 3 0.001 0.00199095 0 -0.0388608 4.04784e-07 0 -5.24438e-06 0 8.36997e-11
17 3 0.001 0.00212797 0 -0.0382426 3.17413e-07 0 4.09386e-06 0 8.38766e-11
18 3 0.001 0.00226393 0 -0.0376242 -7.288e-06 0 -8.45915e-06 0 8.44607e-11
19 3 0.001 0.00239876 0 -0.0370056 -1.15485e-05 0 -3.33842e-05 0 8.83829e-11
20 3 0.001 0.00253239 0 -0.0363867 -5.80189e-07 0 2.25776e-06 0 9.13107e-11
21 3 0.001 0.00266477 0 -0.0357675 2.95193e-06 0 7.09111e-06 0 9.05976e-11
22 3 0.001 0.00279583 0 -0.0351481 3.76989e-06 0 1.78515e-05 0 8.85111e-11
23 3 0.001 0.00292549 0 -0.0345283 -2.93709e-07 0 2.11801e-05 0 8.53454e-11
24 3 0.001 0.0030537 0 -0.0339083 -3.80095e-06 0 9.04056e-06 0 8.307e-11
25 3 0.001 0.0031804 0 -0.0332879 2.43684e-07 0 1.61573e-05 0 8.12301e-11
26 3 0.001 0.00330552 0 -0.0326672 -2.00574e-06 0 -1.19563e-05 0 8.10524e-11
27 3 0.001 0.003429 0 -0.0320462 -1.4516e-06 0 -9.62129e-06 0 8.29829e-11
28 3 0.001 0.00355078 0 -0.0314249 -5.10582e-06 0 -5.98588e-06 0 8.44991e-11
29 3 0.001 0.00367079 0 -0.0308032 -1.2263e-05 0 -3.01105e-05 0 8.79291e-11
30 3 0.001 0.00378899 0 -0.0301811 -5.82756e-06 0 -6.99074e-06 0 9.14809e-11
31 3 0.001 0.00390532 0 -0.0295588 1.22039e-06 0 8.56354e-06 0 9.15695e-11
32 3 0.001 0.00401971 0 -0.028936 1.788e-07 0 -5.57636e-06 0 9.14432e-11
33 3 0.001 0.00413212 0 -0.0283129 -1.16642e-06 0 8.92624e-06 0 9.1325e-11
34 3 0.001 0.00424249 0 -0.0276895 -5.07763e-06 0 9.06555e-06 0 9.00391e-11
35 3 0.001 0.00435077 0 -0.0270656 -6.01851e-06 0 3.97687e-06 0 8.92466e-11
36 3 0.001 0.0044569 0 -0.0264414 -5.35607e-07 0 9.74323e-06 0 8.83329e-11
37 3 0.001 0.00456083 0 -0.0258168 1.14017e-06 0 -2.41435e-06 0 8.78543e-11
38 3 0.001 0.00466253 0 -0.0251919 -2.15671e-06 0 -2.95631e-06 0 8.84674e-11
39 3 0.001 0.00476193 0 -0.0245666 -8.33196e-06 0 -2.11243e-05 0 9.08119e-11
40 3 0.001 0.00485899 0 -0.0239409 -1.23275e-05 0 -2.5582e-05 0 9.52843e-11
41 3 0.001 0.00495367 0 -0.0233149 -7.22547e-06 0 -2.01401e-05 0 9.9741e-11
42 3 0.001 0.00504593 0 -0.0226885 -1.98476e-06 0 -1.15384e-05 0 1.02868e-10
43 3 0.001 0.00513572 0 -0.0220617 6.75967e-07 0 1.71234e-06 0 1.03926e-10
44 3 0.001 0.005223 0 -0.0214346 -2.8847e-07 0 8.56087e-06 0 1.03125e-10
45 3 0.001 0.00530773 0 -0.0208072 -2.22411e-06 0 3.90644e-05 0 9.90142e-11
46 3 0.001 0.00538988 0 -0.0201794 -6.12053e-06 0 6.32767e-06 0 9.5186e-11
47 3 0.001 0.00546941 0 -0.0195512 -4.2601e-06 0 -1.88355e-06 0 9.50342e-11
48 3 0.001 0.00554628 0 -0.0189228 2.3209e-06 0 1.50657e-05 0 9.40223e-11
49 3 0.001 0.00562047 0 -0.018294 -4.70435e-06 0 -3.78671e-05 0 9.61934e-11
50 3 0.001 0.00569194 0 -0.0176649 -5.26198e-06 0 -5.7897e-06 0 1.00281e-10
51 3 0.001 0.00576065 0 -0.0170354 -5.38799e-06 0 1.76751e-05 0 9.94252e-11
52 3 0.001 0.0058266 0 -0.0164057 -6.69297e-06 0 -7.57108e-06 0 9.87263e-11
53 3 0.001 0.00588974 0 -0.0157757 -3.57963e-07 0 1.16232e-05 0 9.85201e-11
54 3 0.001 0.00595006 0 -0.0151455 1.58039e-06 0 1.21674e-05 0 9.64736e-11
55 3 0.001 0.00600752 0 -0.0145149 -2.73973e-06 0 -8.62659e-06 0 9.62493e-11
56 3 0.001 0.00606212 0 -0.0138841 -4.99615e-06 0 1.36381e-05 0 9.59417e-11
57 3 0.001 0.00611383 0 -0.0132531 -7.45898e-06 0 -6.04697e-06 0 9.54258e-11
58 3 0.001 0.00616263 0 -0.0126218 -3.35619e-06 0 7.81022e-06 0 9.54041e-11
59 3 0.001 0.0062085 0 -0.0119903 1.16768e-06 0 1.94646e-05 0 9.30796e-11
60 3 0.001 0.00625144 0 -0.0113586 -7.38284e-07 0 -6.65069e-06 0 9.20007e-11
61 3 0.001 0.00629143 0 -0.0107267 -1.59158e-06 0 4.17439e-05 0 8.90629e-11
62 3 0.001 0.00632846 0 -0.0100946 -7.20236e-06 0 1.48841e-06 0 8.54441e-11
63 3 0.001 0.00636253 0 -0.0094624 -6.4948e-06 0 -1.83669e-05 0 8.69595e-11
64 3 0.001 0.00639361 0 -0.00883 -1.69598e-06 0 7.19308e-06 0 8.79524e-11
65 3 0.001 0.00642171 0 -0.00819746 -4.78187e-07 0 -2.08241e-05 0 8.91434e-11
66 3 0.001 0.00644683 0 -0.0075648 -1.09629e-06 0 -1.49973e-05 0 9.22457e-11
67 3 0.001 0.00646896 0 -0.00693202 -6.68134e-06 0 -1.03359e-05 0 9.4488e-11
68 3 0.001 0.0064881 0 -0.00629916 -6.71503e-06 0 -1.17247e-06 0 9.55319e-11
69 3 0.001 0.00650425 0 -0.00566621 -4.68624e-06 0 -4.95933e-05 0 1.0015e-10
70 3 0.001 0.00651742 0 -0.0050332 1.91103e-06 0 3.06302e-05 0 1.0183e-10
71 3 0.001 0.0065276 0 -0.00440013 2.27419e-06 0 2.34802e-05 0 9.68908e-11
72 3 0.001 0.00653482 0 -0.00376701 -2.75634e-06 0 5.19897e-06 0 9.43013e-11
73 3 0.001 0.00653907 0 -0.00313387 -7.03367e-06 0 6.01821e-05 0 8.86662e-11
74 3 0.001 0.00654036 0 -0.0025007 -6.81247e-06 0 -2.45595e-05 0 8.55419e-11
75 3 0.001 0.00653871 0 -0.00186754 -1.71411e-07 0 -1.27352e-05 0 8.86398e-11
76 3 0.001 0.00653412 0 -0.0012344 2.81084e-06 0 -1.95605e-05 0 9.137e-11
77 3 0.001 0.00652662 0 -0.000601283 1.05907e-06 0 -1.2653e-07 0 9.30208e-11
78 3 0.001 0.00651621 0 3.17895e-05 -4.93041e-06 0 1.93848e-05 0 9.12786e-11
79 3 0.001 0.00650291 0 0.000664811 -7.63717e-06 0 1.32963e-05 0 8.83687e-11
80 3 0.001 0.00648674 0 0.00129777 -4.13036e-06 0 2.60856e-05 0 8.49501e-11
81 3 0.001 0.00646772 0 0.00193065 3.83849e-06 0 -5.91368e-05 0 8.77116e-11
82 3 0.001 0.00644588 0 0.00256343 2.81431e-06 0 -5.14778e-06 0 9.31205e-11
84 3 0.001 0.00639379 0 0.00382867 -4.10528e-06 0 -3.00001e-05 0 1.00252e-10
83 3 0.001 0.00642123 0 0.00319611 9.17069e-07 0 -2.33503e-05 0 9.55648e-11
85 3 0.001 0.0063636 0 0.0044611 -6.49527e-06 0 5.06086e-05 0 9.82793e-11
86 3 0.001 0.00633067 0 0.0050934 -2.77916e-07 0 2.27455e-06 0 9.33951e-11
87 3 0.001 0.00629504 0 0.00572555 2.07668e-06 0 1.17033e-05 0 9.20807e-11
89 3 0.001 0.00621578 0 0.00698939 -3.34798e-06 0 2.15576e-05 0 8.63384e-11
88 3 0.001 0.00625674 0 0.00635755 8.77599e-07 0 1.57304e-05 0 8.96225e-11
91 3 0.001 0.00612605 0 0.00825254 -3.67414e-06 0 1.96139e-05 0 8.35837e-11
90 3 0.001 0.00617221 0 0.00762106 -4.13314e-06 0 -5.94093e-06 0 8.48691e-11
92 3 0.001 0.00607733 0 0.00888383 2.12332e-06 0 -2.7567e-07 0 8.18616e-11
93 3 0.001 0.00602609 0 0.00951492 6.3522e-06 0 -4.08724e-05 0 8.52434e-11
94 3 0.001 0.00597237 0 0.0101458 9.20935e-08 0 6.81211e-06 0 8.80095e-11
96 3 0.001 0.00585761 0 0.0114069 -1.21606e-06 0 -7.25714e-06 0 9.10675e-11
95 3 0.001 0.0059162 0 0.0107765 -1.33985e-06 0 -1.92114e-05 0 8.89432e-11
98 3 0.001 0.00573332 0 0.0126671 4.95217e-06 0 -1.20014e-05 0 9.12698e-11
97 3 0.001 0.00579664 0 0.0120371 2.83982e-07 0 7.27409e-06 0 9.0937e-11
99 3 0.001 0.00566771 0 0.0132969 1.10787e-06 0 8.98102e-06 0 9.14624e-11
101 3 0.001 0.00552971 0 0.0145556 -5.58872e-07 0 -1.10147e-05 0 9.35705e-11
100 3 0.001 0.00559982 0 0.0139264 8.84944e-07 0 -1.23991e-05 0 9.16562e-11
103 3 0.001 0.00538297 0 0.0158134 5.04207e-06 0 -1.53706e-05 0 9.39316e-11
104 3 0.001 0.00530642 0 0.0164419 2.8097e-06 0 6.71067e-06 0 9.46489e-11
102 3 0.001 0.00545742 0 0.0151847 -8.57677e-07 0 9.90736e-06 0 9.35307e-11
105 3 0.001 0.0052278 0 0.0170702 -3.26546e-06 0 3.82351e-05 0 9.06585e-11
106 3 0.001 0.00514716 0 0.0176982 1.18243e-06 0 -1.50535e-05 0 8.85177e-11
108 3 0.001 0.00497997 0 0.0189534 2.0091e-06 0 -4.40241e-06 0 8.95139e-11
107 3 0.001 0.00506454 0 0.0183259 -1.37225e-06 0 2.53312e-06 0 8.9461e-11
110 3 0.001 0.0048052 0 0.0202076 5.11266e-06 0 -7.07667e-06 0 9.69399e-11
109 3 0.001 0.00489351 0 0.0195807 9.5713e-06 0 -3.64895e-05 0 9.30802e-11
111 3 0.001 0.00471507 0 0.0208343 1.85484e-06 0 -1.15544e-06 0 9.76462e-11
113 3 0.001 0.00452956 0 0.022087 -3.54889e-06 0 2.12824e-05 0 9.35769e-11
112 3 0.001 0.00462318 0 0.0214608 -2.69214e-06 0 1.14067e-05 0 9.66213e-11
115 3 0.001 0.00433733 0 0.0233386 1.15625e-06 0 2.32767e-05 0 8.46829e-11
114 3 0.001 0.00443426 0 0.0227129 -1.32727e-06 0 2.86558e-05 0 8.91333e-11
116 3 0.001 0.0042388 0 0.0239641 3.41912e-06 0 3.65571e-06 0 8.24295e-11
117 3 0.001 0.00413872 0 0.0245893 -1.02075e-07 0 2.10208e-06 0 8.19148e-11
118 3 0.001 0.00403713 0 0.0252143 2.25148e-07 0 -9.73294e-06 0 8.24505e-11
120 3 0.001 0.00382963 0 0.0264635 5.8951e-06 0 -6.48139e-06 0 8.40857e-11
119 3 0.001 0.00393409 0 0.025839 7.79592e-07 0 -2.29489e-06 0 8.33577e-11
122 3 0.001 0.00361663 0 0.0277118 2.03496e-06 0 5.64102e-06 0 8.54845e-11
121 3 0.001 0.00372379 0 0.0270877 6.36893e-06 0 -7.27168e-06 0 8.53092e-11
123 3 0.001 0.00350819 0 0.0283356 7.72321e-07 0 -9.34216e-06 0 8.57564e-11
125 3 0.001 0.00328762 0 0.0295826 -3.87598e-06 0 3.2181e-05 0 8.24604e-11
124 3 0.001 0.0033985 0 0.0289592 -2.21414e-06 0 7.263e-06 0 8.58336e-11
127 3 0.001 0.00306245 0 0.0308287 2.60047e-06 0 1.01968e-05 0 7.77233e-11
126 3 0.001 0.00317559 0 0.0302057 3.88145e-06 0 8.08364e-06 0 7.91385e-11
128 3 0.001 0.00294824 0 0.0314515 -8.08201e-07 0 1.18384e-05 0 7.59655e-11
129 3 0.001 0.00283302 0 0.0320741 1.54545e-06 0 -1.63684e-05 0 7.62746e-11
130 3 0.001 0.00271682 0 0.0326965 8.1219e-07 0 -8.07722e-06 0 7.81678e-11
132 3 0.001 0.00248166 0 0.0339408 8.5085e-06 0 -1.64089e-05 0 8.3413e-11
131 3 0.001 0.00259968 0 0.0333188 7.33343e-06 0 -1.88088e-05 0 8.03796e-11
135 3 0.001 0.00212268 0 0.0358061 -8.33937e-06 0 3.35637e-05 0 8.38014e-11
134 3 0.001 0.00224312 0 0.0351845 -2.13277e-07 0 -3.29993e-06 0 8.64456e-11
133 3 0.001 0.00236279 0 0.0345627 4.2953e-06 0 -7.59053e-06 0 8.55275e-11
136 3 0.001 0.00200153 0 0.0364276 -1.76491e-07 0 1.04277e-05 0 8.00558e-11
137 3 0.001 0.00187971 0 0.0370489 5.15963e-06 0 -2.05781e-06 0 7.94281e-11
139 3 0.001 0.00163421 0 0.0382912 5.93326e-08 0 -9.98295e-07 0 7.88061e-11
138 3 0.001 0.00175726 0 0.0376701 2.94674e-06 0 6.1303e-06 0 7.91978e-11
140 3 0.001 0.00151062 0 0.0389122 1.09554e-06 0 -1.89747e-05 0 8.0389e-11
141 3 0.001 0.00138653 0 0.0395331 7.93167e-07 0 -7.87016e-06 0 8.25432e-11
142 3 0.001 0.00126198 0 0.0401539 4.74096e-06 0 -4.25635e-06 0 8.35912e-11
144 3 0.001 0.00101165 0 0.0413953 -8.48066e-07 0 1.17465e-05 0 8.21362e-11
143 3 0.001 0.001137 0 0.0407746 3.46659e-06 0 6.07492e-06 0 8.35549e-11
147 3 0.001 0.000633763 0 0.0432568 3.36356e-06 0 -1.05528e-05 0 8.05898e-11
146 3 0.001 0.000759992 0 0.0426363 -6.85675e-06 0 1.72507e-05 0 8.12003e-11
145 3 0.001 0.000885969 0 0.0420158 -5.67698e-07 0 -9.75513e-06 0 8.1934e-11
148 3 0.001 0.000507325 0 0.0438772 2.64836e-06 0 1.01009e-05 0 8.07126e-11
149 3 0.001 0.000380721 0 0.0444976 4.65338e-07 0 1.50027e-05 0 6.46665e-11
150 3 0.001 0.000253984 0 0.045118 -1.1228e-06 0 -5.49133e-06 0 4.36364e-10
151 3 0.001 0.000127034 0 0.045739 -1.80612e-07 0 -2.45774e-05 0 8.17103e-10
2 2 0.001 0 0 0.04636 1.35351e-05 0 0.00102256 0 4.05434e-10
