ITEM: TIMESTEP
3500000
ITEM: NUMBER OF ATOMS
151
ITEM: BOX BOUNDS ff ff ff
-1.0000000000000000e-02 1.0000000000000000e-02
-6.0000000000000001e-03 6.0000000000000001e-03
-5.2499999999999998e-02 5.2499999999999998e-02
ITEM: ATOMS id type radius x y z fx fy fz c_bendingE c_stretchingE
1 1 0.001 0 0 -0.0475 -0.00800834 0 -0.0190804 0 8.85186e-09
3 3 0.001 0.000461855 0 -0.0470702 1.04728e-09 0 -1.04275e-09 0 1.77581e-08
4 3 0.001 0.000921417 0 -0.0466379 1.73552e-10 0 -8.05614e-11 0 2.33671e-08
5 3 0.001 0.00137821 0 -0.0462037 1.91185e-09 0 -1.97209e-09 0 2.93697e-08
6 3 0.001 0.00183153 0 -0.0457659 2.24069e-09 0 -2.60745e-09 0 2.99496e-08
7 3 0.001 0.00228026 0 -0.0453235 2.78562e-09 0 -3.10942e-09 0 3.02414e-08
8 3 0.001 0.00272322 0 -0.0448752 2.69658e-09 0 -2.81993e-09 0 3.05852e-08
9 3 0.001 0.00315927 0 -0.0444203 5.5838e-09 0 -5.56122e-09 0 3.09734e-08
10 3 0.001 0.00358721 0 -0.0439578 1.87971e-09 0 -2.11134e-09 0 3.13974e-08
11 3 0.001 0.00400588 0 -0.0434869 5.96847e-09 0 -5.89624e-09 0 3.18473e-08
12 3 0.001 0.00441411 0 -0.043007 3.84171e-09 0 -4.17062e-09 0 3.23123e-08
13 3 0.001 0.00481076 0 -0.0425174 3.45586e-09 0 -3.94018e-09 0 3.27807e-08
14 3 0.001 0.00519469 0 -0.0420179 1.08084e-08 0 -9.37623e-09 0 3.32407e-08
15 3 0.001 0.00556482 0 -0.0415081 8.30095e-10 0 -1.97825e-09 0 3.36801e-08
16 3 0.001 0.00592011 0 -0.0409878 6.34316e-09 0 -6.03859e-09 0 3.40869e-08
17 3 0.001 0.00625957 0 -0.0404571 7.86388e-09 0 -6.97712e-09 0 3.44499e-08
18 3 0.001 0.00658231 0 -0.0399161 3.9392e-09 0 -4.64699e-09 0 3.47586e-08
19 3 0.001 0.00688751 0 -0.0393651 5.84518e-09 0 -5.78703e-09 0 3.50041e-08
20 3 0.001 0.00717447 0 -0.0388043 7.36312e-09 0 -6.33669e-09 0 3.51792e-08
21 3 0.001 0.00744261 0 -0.0382343 5.92428e-10 0 -3.40079e-09 0 3.52786e-08
22 3 0.001 0.00769148 0 -0.0376556 9.11714e-09 0 -6.98307e-09 0 3.52993e-08
23 3 0.001 0.00792076 0 -0.0370689 1.55989e-09 0 -3.79845e-09 0 3.52407e-08
24 3 0.001 0.00813028 0 -0.0364748 5.4141e-09 0 -5.49898e-09 0 3.51046e-08
25 3 0.001 0.00832005 0 -0.0358742 3.00875e-09 0 -4.76383e-09 0 3.48951e-08
26 3 0.001 0.00849022 0 -0.0352676 1.18783e-09 0 -4.30748e-09 0 3.46184e-08
27 3 0.001 0.00864108 0 -0.034656 4.37106e-09 0 -4.90049e-09 0 3.42825e-08
28 3 0.001 0.0087731 0 -0.03404 1.37511e-09 0 -3.96931e-09 0 3.38972e-08
29 3 0.001 0.00888691 0 -0.0334204 9.10113e-10 0 -4.11409e-09 0 3.34734e-08
30 3 0.001 0.00898326 0 -0.0327978 -1.87748e-10 0 -4.13492e-09 0 3.30226e-08
31 3 0.001 0.00906304 0 -0.0321728 1.00882e-09 0 -4.36975e-09 0 3.25383e-08
32 3 0.001 0.00912728 0 -0.031546 2.07717e-09 0 -4.38476e-09 0 3.2014e-08
33 3 0.001 0.0091771 0 -0.0309179 -1.55896e-10 0 -3.94109e-09 0 3.14813e-08
34 3 0.001 0.00921366 0 -0.0302888 -5.45252e-09 0 -3.74419e-09 0 3.09877e-08
35 3 0.001 0.00923809 0 -0.0296592 4.96563e-09 0 -4.08277e-09 0 3.05678e-08
36 3 0.001 0.0092515 0 -0.0290291 2.26015e-10 0 -4.02882e-09 0 3.02398e-08
37 3 0.001 0.00925487 0 -0.028399 -5.39508e-09 0 -4.46198e-09 0 3.0007e-08
38 3 0.001 0.00924909 0 -0.0277688 4.84029e-09 0 -4.2141e-09 0 2.98615e-08
39 3 0.001 0.00923493 0 -0.0271388 -3.36453e-09 0 -3.99242e-09 0 2.97884e-08
40 3 0.001 0.00921303 0 -0.0265089 1.01155e-09 0 -3.77796e-09 0 2.97685e-08
41 3 0.001 0.00918392 0 -0.0258794 2.33678e-09 0 -3.80958e-09 0 2.97806e-08
42 3 0.001 0.00914802 0 -0.0252502 -1.54565e-09 0 -4.37454e-09 0 2.98037e-08
43 3 0.001 0.0091057 0 -0.0246215 2.36996e-09 0 -4.22153e-09 0 2.98188e-08
44 3 0.001 0.00905729 0 -0.0239931 4.71088e-09 0 -3.79763e-09 0 2.98114e-08
45 3 0.001 0.00900309 0 -0.0233653 1.53056e-09 0 -3.89029e-09 0 2.97774e-08
46 3 0.001 0.00894344 0 -0.0227379 2.51968e-09 0 -3.75776e-09 0 2.97301e-08
47 3 0.001 0.00887868 0 -0.022111 9.11634e-09 0 -3.26177e-09 0 2.96822e-08
48 3 0.001 0.00880921 0 -0.0214847 1.19222e-09 0 -4.33485e-09 0 2.9635e-08
49 3 0.001 0.00873544 0 -0.0208588 1.14315e-08 0 -3.13711e-09 0 2.95896e-08
50 3 0.001 0.00865781 0 -0.0202334 4.19756e-09 0 -4.0044e-09 0 2.95471e-08
51 3 0.001 0.00857678 0 -0.0196084 1.39695e-08 0 -2.59791e-09 0 2.95086e-08
53 3 0.001 0.00840645 0 -0.0183595 1.57998e-08 0 -2.26992e-09 0 2.94466e-08
52 3 0.001 0.00849283 0 -0.0189838 5.39962e-09 0 -3.74188e-09 0 2.94748e-08
54 3 0.001 0.00831817 0 -0.0177355 1.1308e-08 0 -2.97597e-09 0 2.94246e-08
55 3 0.001 0.00822849 0 -0.0171117 1.47398e-08 0 -2.8273e-09 0 2.94094e-08
56 3 0.001 0.00813795 0 -0.016488 1.62976e-08 0 -2.65153e-09 0 2.94013e-08
57 3 0.001 0.00804709 0 -0.0158644 1.71053e-08 0 -2.29e-09 0 2.94004e-08
58 3 0.001 0.00795642 0 -0.0152407 1.50371e-08 0 -2.32809e-09 0 2.94069e-08
60 3 0.001 0.00777785 0 -0.013993 8.51136e-09 0 -3.60807e-09 0 2.9441e-08
59 3 0.001 0.0078665 0 -0.014617 3.02165e-08 0 -2.27241e-10 0 2.94205e-08
61 3 0.001 0.00769099 0 -0.0133688 3.41004e-08 0 -1.72193e-10 0 2.94679e-08
62 3 0.001 0.00760643 0 -0.0127443 1.93734e-08 0 -2.0913e-09 0 2.95005e-08
63 3 0.001 0.00752468 0 -0.0121194 2.73045e-08 0 -8.08238e-10 0 2.9538e-08
64 3 0.001 0.00744622 0 -0.0114941 2.76435e-08 0 -8.24962e-10 0 2.95797e-08
65 3 0.001 0.00737152 0 -0.0108683 3.02506e-08 0 -7.07977e-10 0 2.96245e-08
66 3 0.001 0.00730101 0 -0.0102421 2.78998e-08 0 -1.00807e-09 0 2.96714e-08
67 3 0.001 0.00723513 0 -0.00961533 3.4421e-08 0 -2.86894e-10 0 2.97193e-08
68 3 0.001 0.00717426 0 -0.00898808 2.92038e-08 0 -6.61978e-10 0 2.9767e-08
69 3 0.001 0.00711877 0 -0.00836033 3.74193e-08 0 8.82362e-11 0 2.98134e-08
70 3 0.001 0.00706899 0 -0.0077321 3.74174e-08 0 -1.97378e-10 0 2.98574e-08
71 3 0.001 0.00702522 0 -0.00710343 2.74574e-08 0 -7.80076e-10 0 2.98979e-08
72 3 0.001 0.00698773 0 -0.00647435 4.7631e-08 0 5.38307e-10 0 2.9934e-08
73 3 0.001 0.00695674 0 -0.00584493 3.04541e-08 0 -2.21779e-10 0 2.99649e-08
74 3 0.001 0.00693243 0 -0.00521521 4.1401e-08 0 1.62721e-10 0 2.99896e-08
75 3 0.001 0.00691497 0 -0.00458526 3.76968e-08 0 -2.65668e-10 0 3.00078e-08
76 3 0.001 0.00690445 0 -0.00395516 3.87833e-08 0 -1.7003e-10 0 3.00189e-08
77 3 0.001 0.00690093 0 -0.00332498 4.28636e-08 0 -2.51746e-11 0 3.00226e-08
78 3 0.001 0.00690445 0 -0.00269481 3.49052e-08 0 2.15893e-10 0 3.00189e-08
79 3 0.001 0.00691497 0 -0.00206471 4.05072e-08 0 1.78164e-10 0 3.00078e-08
80 3 0.001 0.00693243 0 -0.00143476 3.90164e-08 0 -6.55887e-11 0 2.99897e-08
81 3 0.001 0.00695673 0 -0.000805043 3.48748e-08 0 1.53841e-10 0 2.99649e-08
82 3 0.001 0.00698772 0 -0.000175615 4.19237e-08 0 -2.41056e-10 0 2.99341e-08
83 3 0.001 0.00702521 0 0.00045346 3.21233e-08 0 2.87696e-10 0 2.9898e-08
84 3 0.001 0.00706897 0 0.00108213 3.45853e-08 0 3.66866e-10 0 2.98575e-08
85 3 0.001 0.00711875 0 0.00171036 4.06729e-08 0 -1.45009e-10 0 2.98135e-08
86 3 0.001 0.00717424 0 0.00233811 2.47449e-08 0 1.2197e-09 0 2.97671e-08
87 3 0.001 0.00723511 0 0.00296537 3.60316e-08 0 1.57025e-11 0 2.97194e-08
88 3 0.001 0.00730099 0 0.00359212 2.96158e-08 0 6.08589e-10 0 2.96715e-08
89 3 0.001 0.0073715 0 0.00421837 2.80224e-08 0 8.87002e-10 0 2.96247e-08
90 3 0.001 0.0074462 0 0.00484413 3.00327e-08 0 6.30483e-10 0 2.95799e-08
91 3 0.001 0.00752466 0 0.00546944 2.17778e-08 0 1.76672e-09 0 2.95382e-08
92 3 0.001 0.00760641 0 0.00609433 2.83049e-08 0 9.43588e-10 0 2.95006e-08
93 3 0.001 0.00769097 0 0.00671884 2.3102e-08 0 1.39373e-09 0 2.94681e-08
94 3 0.001 0.00777783 0 0.00734305 1.84155e-08 0 2.02639e-09 0 2.94412e-08
95 3 0.001 0.00786648 0 0.007967 2.37073e-08 0 1.29787e-09 0 2.94208e-08
96 3 0.001 0.0079564 0 0.00859077 1.86352e-08 0 2.1387e-09 0 2.94071e-08
97 3 0.001 0.00804707 0 0.00921443 1.45823e-08 0 2.75317e-09 0 2.94007e-08
98 3 0.001 0.00813793 0 0.00983806 1.71319e-08 0 2.21558e-09 0 2.94015e-08
99 3 0.001 0.00822847 0 0.0104617 1.60377e-08 0 2.44328e-09 0 2.94096e-08
100 3 0.001 0.00831815 0 0.0110856 1.16838e-08 0 2.99994e-09 0 2.94249e-08
101 3 0.001 0.00840644 0 0.0117096 1.1098e-08 0 2.89396e-09 0 2.94469e-08
102 3 0.001 0.00849281 0 0.0123338 1.1919e-08 0 2.87455e-09 0 2.94751e-08
103 3 0.001 0.00857676 0 0.0129584 7.95066e-09 0 3.68472e-09 0 2.95089e-08
104 3 0.001 0.00865779 0 0.0135834 9.9722e-09 0 3.5285e-09 0 2.95475e-08
105 3 0.001 0.00873542 0 0.0142088 5.93056e-09 0 3.57606e-09 0 2.95899e-08
106 3 0.001 0.0088092 0 0.0148347 7.37801e-09 0 3.1422e-09 0 2.96353e-08
107 3 0.001 0.00887867 0 0.0154611 4.67534e-09 0 3.60206e-09 0 2.96825e-08
108 3 0.001 0.00894343 0 0.0160879 2.55176e-09 0 4.04568e-09 0 2.97304e-08
109 3 0.001 0.00900308 0 0.0167153 6.69486e-09 0 3.87678e-09 0 2.97778e-08
110 3 0.001 0.00905728 0 0.0173432 -2.09596e-09 0 4.45395e-09 0 2.98118e-08
111 3 0.001 0.0091057 0 0.0179715 5.49628e-09 0 3.51099e-09 0 2.98192e-08
112 3 0.001 0.00914801 0 0.0186003 1.89691e-09 0 3.69033e-09 0 2.98041e-08
113 3 0.001 0.00918391 0 0.0192294 -4.66913e-09 0 4.25095e-09 0 2.9781e-08
114 3 0.001 0.00921303 0 0.019859 6.70149e-09 0 4.14606e-09 0 2.97689e-08
115 3 0.001 0.00923493 0 0.0204888 -1.96107e-09 0 4.44017e-09 0 2.97889e-08
116 3 0.001 0.00924909 0 0.0211188 -2.46335e-09 0 3.9071e-09 0 2.98619e-08
117 3 0.001 0.00925487 0 0.021749 9.59347e-10 0 3.63963e-09 0 3.00074e-08
118 3 0.001 0.0092515 0 0.0223792 -1.38131e-10 0 4.01813e-09 0 3.02403e-08
119 3 0.001 0.0092381 0 0.0230092 6.62467e-10 0 4.51031e-09 0 3.05683e-08
120 3 0.001 0.00921367 0 0.0236389 -2.8217e-09 0 4.17783e-09 0 3.09881e-08
121 3 0.001 0.00917712 0 0.0242679 2.39528e-09 0 4.0633e-09 0 3.14818e-08
122 3 0.001 0.0091273 0 0.024896 5.06658e-10 0 3.90704e-09 0 3.20145e-08
123 3 0.001 0.00906306 0 0.0255228 -2.4913e-09 0 3.58069e-09 0 3.25389e-08
124 3 0.001 0.00898328 0 0.0261478 3.87341e-09 0 4.67197e-09 0 3.30232e-08
125 3 0.001 0.00888693 0 0.0267704 -4.56936e-10 0 4.28652e-09 0 3.3474e-08
127 3 0.001 0.00864111 0 0.028006 1.98205e-09 0 4.24416e-09 0 3.42832e-08
126 3 0.001 0.00877313 0 0.0273901 3.11919e-09 0 4.68251e-09 0 3.38979e-08
129 3 0.001 0.00832008 0 0.0292242 6.26381e-09 0 5.47902e-09 0 3.48959e-08
130 3 0.001 0.00813032 0 0.0298249 9.62539e-10 0 4.00027e-09 0 3.51055e-08
128 3 0.001 0.00849024 0 0.0286177 1.17176e-09 0 3.85821e-09 0 3.46191e-08
131 3 0.001 0.00792079 0 0.0304189 8.94712e-09 0 6.88823e-09 0 3.52416e-08
132 3 0.001 0.00769151 0 0.0310056 -1.74237e-09 0 2.58999e-09 0 3.53002e-08
135 3 0.001 0.00688755 0 0.0327151 7.73674e-09 0 6.43053e-09 0 3.50051e-08
133 3 0.001 0.00744265 0 0.0315843 1.09142e-08 0 7.94017e-09 0 3.52795e-08
134 3 0.001 0.00717451 0 0.0321543 1.40686e-09 0 3.48634e-09 0 3.51801e-08
136 3 0.001 0.00658234 0 0.0332662 4.68616e-09 0 4.84168e-09 0 3.47596e-08
137 3 0.001 0.00625961 0 0.0338072 7.62667e-09 0 7.06089e-09 0 3.44509e-08
138 3 0.001 0.00592014 0 0.0343379 2.88804e-09 0 3.9893e-09 0 3.40879e-08
140 3 0.001 0.00519473 0 0.0353679 4.65155e-09 0 4.47523e-09 0 3.32417e-08
141 3 0.001 0.00481079 0 0.0358675 7.29281e-09 0 6.56384e-09 0 3.27817e-08
139 3 0.001 0.00556486 0 0.0348581 7.16364e-09 0 6.51657e-09 0 3.36811e-08
144 3 0.001 0.00358723 0 0.0373078 2.9866e-10 0 9.90704e-10 0 3.13983e-08
142 3 0.001 0.00441414 0 0.036357 1.45192e-10 0 1.04612e-09 0 3.23132e-08
143 3 0.001 0.00400591 0 0.0368369 1.0255e-08 0 9.99668e-09 0 3.18482e-08
147 3 0.001 0.00228027 0 0.0386735 -1.96958e-09 0 -1.77344e-09 0 3.02422e-08
145 3 0.001 0.00315929 0 0.0377703 2.52879e-09 0 2.51136e-09 0 3.09743e-08
146 3 0.001 0.00272324 0 0.0382253 8.06245e-09 0 7.75945e-09 0 3.0586e-08
151 3 0.001 0.000461858 0 0.0404202 1.90679e-09 0 1.56334e-09 0 1.77587e-08
148 3 0.001 0.00183154 0 0.0391159 3.47004e-09 0 3.96585e-09 0 2.99504e-08
149 3 0.001 0.00137822 0 0.0395537 2.91051e-09 0 3.29134e-09 0 2.93705e-08
150 3 0.001 0.000921423 0 0.0399879 -1.0745e-09 0 -1.27875e-09 0 2.33678e-08
2 2 0.001 0 0 0.04085 -0.00800853 0 0.0190807 0 8.85218e-09
