ITEM: TIMESTEP
3700000
ITEM: NUMBER OF ATOMS
151
ITEM: BOX BOUNDS ff ff ff
-1.0000000000000000e-02 1.0000000000000000e-02
-6.0000000000000001e-03 6.0000000000000001e-03
-5.2499999999999998e-02 5.2499999999999998e-02
ITEM: ATOMS id type radius x y z fx fy fz c_bendingE c_stretchingE
1 1 0.001 0 0 -0.0475 -0.00752367 0 -0.018462 0 7.88211e-09
3 3 0.001 0.000464654 0 -0.047073 -1.11653e-09 0 9.28388e-10 0 1.58154e-08
4 3 0.001 0.000927031 0 -0.0466436 8.11235e-10 0 -1.07287e-09 0 2.11435e-08
5 3 0.001 0.00138665 0 -0.0462121 -1.99441e-09 0 2.21866e-09 0 2.68467e-08
6 3 0.001 0.00184283 0 -0.0457771 4.81583e-10 0 -2.34213e-10 0 2.73995e-08
7 3 0.001 0.00229443 0 -0.0453374 -1.42959e-09 0 1.59564e-09 0 2.76793e-08
8 3 0.001 0.00274031 0 -0.0448919 -2.05755e-09 0 1.90322e-09 0 2.80096e-08
9 3 0.001 0.0031793 0 -0.0444396 -6.11543e-10 0 4.72331e-10 0 2.83837e-08
10 3 0.001 0.00361023 0 -0.0439797 -2.88135e-09 0 2.74723e-09 0 2.87935e-08
11 3 0.001 0.00403191 0 -0.0435113 -7.65471e-10 0 1.04065e-09 0 2.92299e-08
12 3 0.001 0.00444318 0 -0.0430338 -2.55515e-09 0 2.5933e-09 0 2.96831e-08
13 3 0.001 0.00484287 0 -0.0425466 -2.15719e-09 0 2.04096e-09 0 3.01422e-08
14 3 0.001 0.00522985 0 -0.0420492 -2.53825e-09 0 2.24553e-09 0 3.05961e-08
15 3 0.001 0.00560299 0 -0.0415414 -2.9255e-09 0 2.62176e-09 0 3.10332e-08
16 3 0.001 0.00596125 0 -0.0410231 -1.2583e-09 0 1.62636e-09 0 3.14421e-08
17 3 0.001 0.00630359 0 -0.0404941 -4.74375e-09 0 3.80554e-09 0 3.18119e-08
18 3 0.001 0.0066291 0 -0.0399546 1.68131e-10 0 7.59022e-10 0 3.21324e-08
19 3 0.001 0.0069369 0 -0.0394048 -6.22415e-09 0 4.30288e-09 0 3.23945e-08
20 3 0.001 0.00722627 0 -0.0388451 -5.60099e-10 0 1.43534e-09 0 3.25909e-08
21 3 0.001 0.00749655 0 -0.038276 -3.49578e-09 0 2.97395e-09 0 3.27157e-08
22 3 0.001 0.00774724 0 -0.037698 -2.91739e-09 0 2.55661e-09 0 3.27654e-08
23 3 0.001 0.00797797 0 -0.0371117 -2.71927e-09 0 2.411e-09 0 3.27384e-08
24 3 0.001 0.00818851 0 -0.0365179 -2.93683e-09 0 2.54396e-09 0 3.26357e-08
25 3 0.001 0.0083788 0 -0.0359172 -2.88733e-09 0 2.63632e-09 0 3.24601e-08
26 3 0.001 0.0085489 0 -0.0353106 -2.1711e-09 0 2.41924e-09 0 3.22168e-08
27 3 0.001 0.00869907 0 -0.0346986 -2.78717e-09 0 2.49081e-09 0 3.19129e-08
28 3 0.001 0.0088297 0 -0.0340822 -1.81838e-09 0 2.25016e-09 0 3.15567e-08
29 3 0.001 0.00894134 0 -0.0334621 -2.10684e-09 0 2.30704e-09 0 3.11583e-08
30 3 0.001 0.0090347 0 -0.0328389 -1.93537e-09 0 2.32911e-09 0 3.07197e-08
31 3 0.001 0.0091106 0 -0.0322133 -6.07736e-10 0 2.20231e-09 0 3.02239e-08
32 3 0.001 0.00917001 0 -0.0315859 -2.50248e-09 0 2.35034e-09 0 2.9685e-08
33 3 0.001 0.00921394 0 -0.0309573 1.37867e-09 0 2.06728e-09 0 2.91604e-08
34 3 0.001 0.00924344 0 -0.0303277 -2.9335e-09 0 2.20877e-09 0 2.87e-08
35 3 0.001 0.0092595 0 -0.0296976 1.04975e-09 0 2.11387e-09 0 2.8335e-08
36 3 0.001 0.00926303 0 -0.0290674 9.29682e-11 0 2.2029e-09 0 2.80765e-08
37 3 0.001 0.00925484 0 -0.0284371 -6.24299e-10 0 2.15785e-09 0 2.79192e-08
38 3 0.001 0.00923562 0 -0.0278071 8.08071e-10 0 2.1862e-09 0 2.78454e-08
39 3 0.001 0.00920594 0 -0.0271775 1.33056e-09 0 2.23529e-09 0 2.78286e-08
40 3 0.001 0.00916629 0 -0.0265485 -2.83467e-10 0 2.03813e-09 0 2.78379e-08
41 3 0.001 0.00911708 0 -0.0259201 1.28653e-09 0 2.12496e-09 0 2.78415e-08
42 3 0.001 0.00905866 0 -0.0252925 -8.25648e-10 0 1.97365e-09 0 2.78129e-08
43 3 0.001 0.00899141 0 -0.0246658 3.14568e-09 0 2.47478e-09 0 2.77452e-08
44 3 0.001 0.00891573 0 -0.02404 -2.2244e-09 0 1.80872e-09 0 2.76575e-08
45 3 0.001 0.00883205 0 -0.0234153 1.91467e-09 0 2.26564e-09 0 2.75661e-08
46 3 0.001 0.00874088 0 -0.0227916 8.23791e-10 0 2.13739e-09 0 2.74731e-08
47 3 0.001 0.00864274 0 -0.022169 -2.18637e-09 0 1.60759e-09 0 2.73806e-08
48 3 0.001 0.0085382 0 -0.0215474 1.85393e-09 0 2.25958e-09 0 2.72907e-08
51 3 0.001 0.00819237 0 -0.0196883 4.96817e-10 0 2.09311e-09 0 2.70564e-08
50 3 0.001 0.00831237 0 -0.0203071 -2.2535e-09 0 1.59688e-09 0 2.71268e-08
49 3 0.001 0.00842786 0 -0.0209268 -1.34641e-09 0 1.77146e-09 0 2.72054e-08
53 3 0.001 0.00794163 0 -0.0184528 -1.12968e-09 0 1.64201e-09 0 2.69465e-08
52 3 0.001 0.00806856 0 -0.0190702 -3.7112e-09 0 1.14149e-09 0 2.69959e-08
54 3 0.001 0.00781231 0 -0.0178358 -3.802e-09 0 1.1594e-09 0 2.69095e-08
55 3 0.001 0.00768132 0 -0.0172192 -3.44165e-09 0 1.27376e-09 0 2.68856e-08
56 3 0.001 0.00754941 0 -0.0166028 -2.89349e-09 0 1.33287e-09 0 2.68753e-08
57 3 0.001 0.00741732 0 -0.0159865 -5.61177e-09 0 7.12434e-10 0 2.68788e-08
58 3 0.001 0.00728578 0 -0.01537 -4.85831e-09 0 8.46413e-10 0 2.6896e-08
60 3 0.001 0.00702735 0 -0.014136 -8.09281e-09 0 1.48312e-10 0 2.69701e-08
59 3 0.001 0.00715555 0 -0.0147532 -3.43087e-09 0 1.10161e-09 0 2.69267e-08
63 3 0.001 0.00666216 0 -0.0122806 -7.46859e-09 0 2.989e-10 0 2.71657e-08
61 3 0.001 0.00690192 0 -0.0135183 -5.5679e-09 0 7.05413e-10 0 2.70252e-08
62 3 0.001 0.00677995 0 -0.0128999 -6.12082e-09 0 5.96179e-10 0 2.70909e-08
64 3 0.001 0.0065492 0 -0.0116605 -7.25287e-09 0 2.94859e-10 0 2.72479e-08
65 3 0.001 0.00644173 0 -0.0110394 -7.64034e-09 0 1.93541e-10 0 2.73358e-08
67 3 0.001 0.00624569 0 -0.0097941 -4.32344e-09 0 7.01141e-10 0 2.75203e-08
68 3 0.001 0.00615826 0 -0.00916988 -1.28637e-08 0 -4.58383e-10 0 2.76128e-08
66 3 0.001 0.00634037 0 -0.0104173 -1.04157e-08 0 -2.19955e-10 0 2.74273e-08
69 3 0.001 0.00607859 0 -0.00854462 -5.57989e-09 0 4.26965e-10 0 2.77026e-08
70 3 0.001 0.00600713 0 -0.00791837 -1.10141e-08 0 -2.75982e-10 0 2.77876e-08
71 3 0.001 0.00594432 0 -0.00729121 -8.00631e-09 0 5.3813e-11 0 2.78658e-08
72 3 0.001 0.00589053 0 -0.00666321 -9.25616e-09 0 -2.57432e-11 0 2.79354e-08
73 3 0.001 0.00584606 0 -0.00603448 -9.16651e-09 0 -4.43386e-12 0 2.79948e-08
74 3 0.001 0.00581121 0 -0.00540515 -8.86842e-09 0 -2.64741e-11 0 2.80426e-08
75 3 0.001 0.00578615 0 -0.00477536 -9.01335e-09 0 -1.57689e-11 0 2.80775e-08
76 3 0.001 0.00577106 0 -0.00414525 -9.69089e-09 0 3.01284e-12 0 2.80988e-08
77 3 0.001 0.00576602 0 -0.00351498 -8.57088e-09 0 -4.63697e-11 0 2.8106e-08
78 3 0.001 0.00577106 0 -0.00288472 -9.53519e-09 0 -1.01375e-10 0 2.80988e-08
79 3 0.001 0.00578615 0 -0.00225461 -8.64675e-09 0 -8.27731e-11 0 2.80775e-08
80 3 0.001 0.0058112 0 -0.00162481 -9.43809e-09 0 5.08784e-11 0 2.80426e-08
81 3 0.001 0.00584606 0 -0.000995486 -8.95395e-09 0 7.07318e-11 0 2.79949e-08
82 3 0.001 0.00589051 0 -0.00036676 -8.10114e-09 0 -1.66845e-10 0 2.79355e-08
83 3 0.001 0.00594431 0 0.000261239 -1.07173e-08 0 -4.10552e-11 0 2.78659e-08
84 3 0.001 0.00600712 0 0.000888406 -8.24193e-09 0 -1.88011e-10 0 2.77877e-08
85 3 0.001 0.00607857 0 0.00151465 -7.25068e-09 0 -1.97003e-10 0 2.77027e-08
86 3 0.001 0.00615824 0 0.00213991 -1.01015e-08 0 1.8187e-10 0 2.76129e-08
87 3 0.001 0.00624567 0 0.00276413 -8.66511e-09 0 -1.17716e-10 0 2.75205e-08
88 3 0.001 0.00634034 0 0.00338731 -6.8455e-09 0 -5.1437e-10 0 2.74274e-08
89 3 0.001 0.00644171 0 0.00400943 -8.78306e-09 0 -1.42491e-10 0 2.7336e-08
90 3 0.001 0.00654918 0 0.00463053 -6.29289e-09 0 -4.94469e-10 0 2.72481e-08
91 3 0.001 0.00666213 0 0.00525067 -9.20026e-09 0 6.09966e-11 0 2.71659e-08
92 3 0.001 0.00677993 0 0.00586991 -4.05029e-09 0 -1.04341e-09 0 2.70911e-08
93 3 0.001 0.00690189 0 0.00648834 -7.81058e-09 0 -4.00865e-10 0 2.70254e-08
94 3 0.001 0.00702732 0 0.00710608 -5.75365e-09 0 -7.25149e-10 0 2.69703e-08
95 3 0.001 0.00715552 0 0.00772326 -5.00625e-09 0 -8.08055e-10 0 2.69269e-08
96 3 0.001 0.00728575 0 0.00834002 -2.80168e-09 0 -1.3192e-09 0 2.68963e-08
97 3 0.001 0.00741729 0 0.0089565 -8.02351e-09 0 -2.87021e-10 0 2.6879e-08
98 3 0.001 0.00754938 0 0.00957285 -3.35549e-10 0 -1.96333e-09 0 2.68755e-08
99 3 0.001 0.0076813 0 0.0101893 -5.06208e-09 0 -8.67995e-10 0 2.68858e-08
100 3 0.001 0.00781228 0 0.0108058 -3.54524e-09 0 -1.15817e-09 0 2.69098e-08
101 3 0.001 0.0079416 0 0.0114228 4.95867e-10 0 -2.12231e-09 0 2.69468e-08
102 3 0.001 0.00806853 0 0.0120402 -5.15035e-09 0 -1.0505e-09 0 2.69961e-08
103 3 0.001 0.00819235 0 0.0126583 -9.85988e-11 0 -2.07939e-09 0 2.70567e-08
104 3 0.001 0.00831234 0 0.0132771 2.18744e-10 0 -1.9892e-09 0 2.7127e-08
105 3 0.001 0.00842784 0 0.0138968 -3.84525e-09 0 -1.24445e-09 0 2.72057e-08
106 3 0.001 0.00853818 0 0.0145174 1.20774e-09 0 -2.24469e-09 0 2.7291e-08
107 3 0.001 0.00864272 0 0.015139 1.0557e-09 0 -2.25217e-09 0 2.73809e-08
108 3 0.001 0.00874086 0 0.0157616 -2.13116e-09 0 -1.76443e-09 0 2.74735e-08
109 3 0.001 0.00883204 0 0.0163853 2.15198e-09 0 -2.3577e-09 0 2.75665e-08
110 3 0.001 0.00891571 0 0.0170101 -1.51382e-09 0 -1.82223e-09 0 2.76579e-08
111 3 0.001 0.0089914 0 0.0176358 2.16305e-09 0 -2.28802e-09 0 2.77456e-08
112 3 0.001 0.00905865 0 0.0182625 -1.29647e-10 0 -2.08817e-09 0 2.78133e-08
113 3 0.001 0.00911707 0 0.0188901 1.7561e-10 0 -2.1782e-09 0 2.78419e-08
114 3 0.001 0.00916629 0 0.0195185 1.01487e-09 0 -2.22464e-09 0 2.78384e-08
115 3 0.001 0.00920594 0 0.0201475 -9.52093e-12 0 -2.13623e-09 0 2.78291e-08
116 3 0.001 0.00923562 0 0.0207771 5.94844e-10 0 -2.16767e-09 0 2.78458e-08
117 3 0.001 0.00925484 0 0.0214072 2.43334e-10 0 -2.16824e-09 0 2.79197e-08
118 3 0.001 0.00926304 0 0.0220374 -2.83162e-11 0 -2.14772e-09 0 2.80769e-08
119 3 0.001 0.00925951 0 0.0226677 -1.43677e-10 0 -2.13076e-09 0 2.83354e-08
120 3 0.001 0.00924345 0 0.0232977 -9.4757e-10 0 -2.20125e-09 0 2.87005e-08
121 3 0.001 0.00921396 0 0.0239273 -8.21038e-11 0 -2.23938e-09 0 2.91608e-08
122 3 0.001 0.00917002 0 0.024556 -1.67601e-09 0 -2.32535e-09 0 2.96855e-08
123 3 0.001 0.00911062 0 0.0251834 -9.63188e-10 0 -2.19469e-09 0 3.02244e-08
124 3 0.001 0.00903472 0 0.0258089 -2.22241e-09 0 -2.30687e-09 0 3.07202e-08
125 3 0.001 0.00894137 0 0.0264321 -1.30227e-09 0 -2.17612e-09 0 3.1159e-08
127 3 0.001 0.00869909 0 0.0276687 -2.41996e-09 0 -2.53421e-09 0 3.19136e-08
126 3 0.001 0.00882972 0 0.0270523 -2.58317e-09 0 -2.46952e-09 0 3.15574e-08
128 3 0.001 0.00854893 0 0.0282806 -2.43872e-09 0 -2.49144e-09 0 3.22176e-08
129 3 0.001 0.00837882 0 0.0288873 -2.12059e-09 0 -2.25863e-09 0 3.24609e-08
130 3 0.001 0.00818855 0 0.0294879 -3.81848e-09 0 -2.78386e-09 0 3.26365e-08
131 3 0.001 0.007978 0 0.0300817 -1.75193e-09 0 -2.11586e-09 0 3.27393e-08
132 3 0.001 0.00774728 0 0.030668 -4.36327e-09 0 -3.28892e-09 0 3.27662e-08
133 3 0.001 0.00749659 0 0.031246 -1.7781e-09 0 -2.20145e-09 0 3.27166e-08
136 3 0.001 0.00662913 0 0.0329246 -2.51051e-09 0 -2.37181e-09 0 3.21333e-08
135 3 0.001 0.00693694 0 0.0323748 -3.81426e-09 0 -3.01252e-09 0 3.23954e-08
134 3 0.001 0.0072263 0 0.0318152 -2.5186e-09 0 -2.34546e-09 0 3.25918e-08
137 3 0.001 0.00630363 0 0.0334641 -3.13049e-09 0 -2.7581e-09 0 3.18128e-08
138 3 0.001 0.00596128 0 0.0339931 -9.27902e-10 0 -1.28008e-09 0 3.1443e-08
140 3 0.001 0.00522988 0 0.0350192 -1.14104e-09 0 -1.38463e-09 0 3.0597e-08
141 3 0.001 0.0048429 0 0.0355166 -2.52321e-09 0 -2.27767e-09 0 3.01431e-08
139 3 0.001 0.00560303 0 0.0345115 -4.46748e-09 0 -3.80221e-09 0 3.10341e-08
144 3 0.001 0.00361025 0 0.0369497 -1.70267e-09 0 -1.87413e-09 0 2.87943e-08
145 3 0.001 0.00317932 0 0.0374097 -1.3845e-09 0 -1.43453e-09 0 2.83845e-08
142 3 0.001 0.00444321 0 0.0360038 -2.2639e-09 0 -2.07652e-09 0 2.9684e-08
143 3 0.001 0.00403193 0 0.0364813 -1.52615e-09 0 -1.62176e-09 0 2.92308e-08
147 3 0.001 0.00229445 0 0.0383074 -1.81057e-09 0 -1.80363e-09 0 2.76801e-08
148 3 0.001 0.00184284 0 0.0387471 4.86306e-10 0 4.04099e-10 0 2.74003e-08
146 3 0.001 0.00274033 0 0.0378619 -1.27827e-09 0 -1.20766e-09 0 2.80104e-08
151 3 0.001 0.000464657 0 0.040043 -6.46772e-10 0 -5.86119e-10 0 1.5816e-08
149 3 0.001 0.00138666 0 0.0391821 -2.09285e-09 0 -2.29767e-09 0 2.68475e-08
150 3 0.001 0.000927038 0 0.0396136 6.97865e-10 0 8.3882e-10 0 2.11442e-08
2 2 0.001 0 0 0.04047 -0.00752385 0 0.0184623 0 7.88241e-09
