ITEM: TIMESTEP
1900000
ITEM: NUMBER OF ATOMS
151
ITEM: BOX BOUNDS ff ff ff
-1.0000000000000000e-02 1.0000000000000000e-02
-6.0000000000000001e-03 6.0000000000000001e-03
-5.2499999999999998e-02 5.2499999999999998e-02
ITEM: ATOMS id type radius x y z fx fy fz c_bendingE c_stretchingE
1 1 0.001 0 0 -0.0475 -0.00217278 0 -0.00863232 0 8.21714e-10
3 3 0.001 0.000299925 0 -0.046943 3.26463e-08 0 2.58436e-08 0 1.6445e-09
4 3 0.001 0.00059909 0 -0.0463856 3.58367e-09 0 2.32371e-09 0 3.75235e-09
5 3 0.001 0.000897189 0 -0.0458284 2.8585e-08 0 2.78032e-08 0 6.00811e-09
6 3 0.001 0.00119414 0 -0.0452706 6.27184e-08 0 1.36673e-08 0 6.16117e-09
7 3 0.001 0.00148957 0 -0.044712 9.87519e-09 0 -2.6251e-08 0 6.1703e-09
8 3 0.001 0.00178313 0 -0.0441525 6.15477e-08 0 -1.33204e-08 0 6.18128e-09
9 3 0.001 0.00207444 0 -0.0435917 3.24133e-08 0 -2.1477e-08 0 6.19397e-09
10 3 0.001 0.00236312 0 -0.0430296 5.43987e-08 0 -4.89727e-08 0 6.20827e-09
11 3 0.001 0.00264884 0 -0.042466 2.21743e-08 0 -3.55259e-08 0 6.22402e-09
12 3 0.001 0.00293121 0 -0.0419007 9.48683e-08 0 -1.89386e-08 0 6.24102e-09
13 3 0.001 0.00320991 0 -0.0413336 -1.20883e-08 0 -3.07853e-08 0 6.25911e-09
14 3 0.001 0.00348459 0 -0.0407645 1.2394e-07 0 6.95726e-09 0 6.27808e-09
15 3 0.001 0.0037549 0 -0.0401933 3.61861e-08 0 1.88812e-08 0 6.2977e-09
16 3 0.001 0.00402053 0 -0.03962 4.65185e-08 0 -7.6443e-08 0 6.31787e-09
17 3 0.001 0.00428117 0 -0.0390444 3.0873e-08 0 -6.25489e-08 0 6.33837e-09
18 3 0.001 0.00453649 0 -0.0384664 4.47952e-08 0 -1.02616e-07 0 6.35891e-09
19 3 0.001 0.00478622 0 -0.0378859 -4.8652e-09 0 -2.03701e-08 0 6.37926e-09
20 3 0.001 0.00503006 0 -0.037303 7.25367e-08 0 -5.60509e-08 0 6.39914e-09
21 3 0.001 0.00526776 0 -0.0367175 2.15673e-08 0 -1.09431e-09 0 6.41837e-09
22 3 0.001 0.00549905 0 -0.0361295 3.94536e-08 0 2.79825e-08 0 6.4367e-09
23 3 0.001 0.0057237 0 -0.0355389 2.01812e-09 0 -4.10198e-08 0 6.45399e-09
24 3 0.001 0.0059415 0 -0.0349457 2.16926e-08 0 -2.77469e-08 0 6.47006e-09
25 3 0.001 0.00615222 0 -0.03435 -3.23827e-10 0 4.43028e-08 0 6.48462e-09
26 3 0.001 0.0063557 0 -0.0337518 -1.18491e-08 0 -6.48753e-08 0 6.4976e-09
27 3 0.001 0.00655176 0 -0.0331512 1.36659e-08 0 -2.86727e-08 0 6.50886e-09
28 3 0.001 0.00674026 0 -0.0325481 -4.64792e-08 0 3.39929e-08 0 6.51816e-09
29 3 0.001 0.00692108 0 -0.0319426 -1.53328e-08 0 -4.46403e-08 0 6.52547e-09
30 3 0.001 0.0070941 0 -0.0313349 -4.34581e-08 0 6.0295e-09 0 6.5307e-09
31 3 0.001 0.00725926 0 -0.030725 -3.59492e-08 0 2.7327e-08 0 6.53373e-09
32 3 0.001 0.00741648 0 -0.030113 -5.01628e-08 0 -3.59542e-09 0 6.53458e-09
33 3 0.001 0.00756575 0 -0.029499 -7.5458e-08 0 2.20562e-08 0 6.53323e-09
34 3 0.001 0.00770703 0 -0.0288832 -4.31211e-08 0 -1.78915e-08 0 6.52971e-09
35 3 0.001 0.00784036 0 -0.0282655 -7.69434e-08 0 3.69175e-08 0 6.52403e-09
36 3 0.001 0.00796576 0 -0.0276462 -5.55698e-08 0 -7.36609e-09 0 6.51626e-09
37 3 0.001 0.00808329 0 -0.0270254 -8.24289e-08 0 -1.79408e-08 0 6.50655e-09
38 3 0.001 0.00819305 0 -0.0264031 -6.74419e-08 0 4.95956e-08 0 6.49493e-09
39 3 0.001 0.00829512 0 -0.0257795 -8.20514e-08 0 2.30955e-08 0 6.48154e-09
40 3 0.001 0.00838966 0 -0.0251548 -7.37605e-08 0 6.03388e-08 0 6.46656e-09
41 3 0.001 0.0084768 0 -0.0245289 -9.19965e-08 0 2.59504e-08 0 6.45017e-09
42 3 0.001 0.00855673 0 -0.0239021 -7.6418e-08 0 -3.71182e-08 0 6.43263e-09
43 3 0.001 0.00862965 0 -0.0232745 -9.97424e-08 0 -6.87806e-08 0 6.41414e-09
44 3 0.001 0.00869576 0 -0.0226461 -8.04399e-08 0 -5.97246e-08 0 6.39485e-09
45 3 0.001 0.00875533 0 -0.022017 -5.56214e-08 0 6.83874e-09 0 6.37492e-09
46 3 0.001 0.00880859 0 -0.0213874 -5.5543e-08 0 1.55933e-08 0 6.35456e-09
47 3 0.001 0.00885583 0 -0.0207573 -7.07959e-08 0 6.45697e-08 0 6.33403e-09
48 3 0.001 0.00889735 0 -0.0201267 -4.42015e-08 0 1.87858e-09 0 6.3136e-09
49 3 0.001 0.00893346 0 -0.0194959 -8.70367e-08 0 1.86745e-08 0 6.29351e-09
50 3 0.001 0.00896448 0 -0.0188647 -4.70035e-08 0 3.13639e-08 0 6.27393e-09
51 3 0.001 0.00899077 0 -0.0182334 -1.93956e-08 0 -3.03137e-08 0 6.25513e-09
52 3 0.001 0.00901267 0 -0.0176019 -4.43156e-08 0 -1.07056e-09 0 6.2371e-09
53 3 0.001 0.00903055 0 -0.0169702 -2.90855e-08 0 -3.1245e-08 0 6.21962e-09
54 3 0.001 0.00904479 0 -0.0163385 -3.92006e-08 0 3.68295e-08 0 6.20296e-09
55 3 0.001 0.00905578 0 -0.0157067 -3.90751e-10 0 -1.27077e-08 0 6.18777e-09
56 3 0.001 0.00906389 0 -0.0150748 -4.6902e-09 0 -3.05504e-08 0 6.17463e-09
57 3 0.001 0.00906948 0 -0.0144429 -1.14314e-08 0 -2.99849e-08 0 6.16377e-09
58 3 0.001 0.00907291 0 -0.013811 9.01474e-09 0 -5.18748e-08 0 6.15523e-09
59 3 0.001 0.0090745 0 -0.0131791 -4.3667e-08 0 1.50547e-08 0 6.14882e-09
60 3 0.001 0.00907457 0 -0.0125472 2.75568e-08 0 6.0944e-08 0 6.14423e-09
61 3 0.001 0.00907339 0 -0.0119153 6.37925e-09 0 4.25261e-08 0 6.14122e-09
62 3 0.001 0.00907123 0 -0.0112834 2.8819e-08 0 2.36104e-08 0 6.1395e-09
63 3 0.001 0.00906832 0 -0.0106515 1.715e-08 0 2.98743e-10 0 6.13878e-09
64 3 0.001 0.00906487 0 -0.0100196 2.84504e-08 0 -3.72852e-09 0 6.13876e-09
65 3 0.001 0.00906105 0 -0.00938771 -1.04235e-08 0 -4.49537e-08 0 6.13922e-09
66 3 0.001 0.00905703 0 -0.00875581 5.03774e-08 0 2.27506e-08 0 6.13994e-09
67 3 0.001 0.00905296 0 -0.00812392 4.41867e-08 0 8.1903e-09 0 6.14076e-09
68 3 0.001 0.00904896 0 -0.00749202 7.58609e-09 0 -1.1321e-08 0 6.14163e-09
69 3 0.001 0.00904513 0 -0.00686012 2.94079e-08 0 3.45363e-08 0 6.14246e-09
70 3 0.001 0.00904155 0 -0.00622822 1.39934e-09 0 -1.53516e-08 0 6.14322e-09
71 3 0.001 0.00903832 0 -0.00559632 6.46397e-08 0 1.68602e-08 0 6.1439e-09
72 3 0.001 0.00903548 0 -0.00496442 4.62272e-08 0 4.77243e-08 0 6.14442e-09
73 3 0.001 0.00903309 0 -0.00433251 3.41028e-08 0 -3.52342e-09 0 6.14485e-09
74 3 0.001 0.0090312 0 -0.0037006 2.94683e-08 0 -7.599e-09 0 6.14522e-09
75 3 0.001 0.00902982 0 -0.0030687 3.87686e-08 0 -2.52006e-08 0 6.14549e-09
76 3 0.001 0.00902898 0 -0.00243679 1.63376e-08 0 -4.0422e-08 0 6.14569e-09
77 3 0.001 0.0090287 0 -0.00180488 4.07717e-08 0 -3.95232e-09 0 6.14577e-09
78 3 0.001 0.00902898 0 -0.00117297 5.55098e-08 0 3.29407e-08 0 6.1457e-09
79 3 0.001 0.00902981 0 -0.00054106 2.13257e-08 0 1.7549e-08 0 6.14552e-09
80 3 0.001 0.00903119 0 9.08484e-05 2.71937e-08 0 -7.04803e-10 0 6.14527e-09
81 3 0.001 0.00903308 0 0.000722755 1.57124e-08 0 -5.53992e-09 0 6.14492e-09
82 3 0.001 0.00903547 0 0.00135466 6.51771e-08 0 -5.66492e-08 0 6.14451e-09
83 3 0.001 0.0090383 0 0.00198656 3.51623e-08 0 -2.4842e-08 0 6.14401e-09
84 3 0.001 0.00904154 0 0.00261847 4.57222e-08 0 7.26713e-09 0 6.14335e-09
85 3 0.001 0.00904511 0 0.00325036 -1.56638e-08 0 -4.23974e-08 0 6.1426e-09
86 3 0.001 0.00904894 0 0.00388226 4.94252e-08 0 4.88548e-11 0 6.14179e-09
87 3 0.001 0.00905295 0 0.00451416 -1.65902e-08 0 -1.90955e-08 0 6.14094e-09
88 3 0.001 0.00905702 0 0.00514606 5.14821e-08 0 -3.18207e-08 0 6.14014e-09
89 3 0.001 0.00906104 0 0.00577795 3.57531e-08 0 3.67946e-08 0 6.13944e-09
90 3 0.001 0.00906486 0 0.00640985 -1.76996e-08 0 -3.23585e-09 0 6.13898e-09
91 3 0.001 0.00906832 0 0.00704175 3.28487e-08 0 -9.54653e-09 0 6.13902e-09
92 3 0.001 0.00907124 0 0.00767366 -4.3189e-09 0 -3.44884e-08 0 6.13976e-09
93 3 0.001 0.00907341 0 0.00830556 -5.17791e-10 0 -5.21437e-08 0 6.14149e-09
94 3 0.001 0.00907459 0 0.00893747 1.87018e-08 0 -6.81122e-08 0 6.14451e-09
95 3 0.001 0.00907453 0 0.00956938 -3.40681e-08 0 -2.15411e-08 0 6.1491e-09
96 3 0.001 0.00907295 0 0.0102013 -6.87109e-09 0 4.34121e-08 0 6.15552e-09
97 3 0.001 0.00906954 0 0.0108332 -4.17746e-08 0 1.74188e-08 0 6.16407e-09
98 3 0.001 0.00906396 0 0.0114651 -1.61549e-08 0 1.88246e-08 0 6.17495e-09
99 3 0.001 0.00905587 0 0.0120969 -1.5146e-08 0 4.2927e-09 0 6.1881e-09
100 3 0.001 0.0090449 0 0.0127287 -4.8743e-08 0 -4.27116e-08 0 6.2033e-09
102 3 0.001 0.00901282 0 0.0139921 -6.83025e-08 0 -7.27736e-09 0 6.23748e-09
101 3 0.001 0.00903068 0 0.0133605 -3.8109e-08 0 2.50367e-08 0 6.21999e-09
103 3 0.001 0.00899094 0 0.0146236 -5.48805e-08 0 2.01186e-08 0 6.25555e-09
104 3 0.001 0.00896468 0 0.015255 -5.7932e-08 0 -4.0837e-08 0 6.27437e-09
105 3 0.001 0.00893368 0 0.0158861 -1.03031e-07 0 -2.65958e-08 0 6.29397e-09
106 3 0.001 0.0088976 0 0.016517 -5.30168e-08 0 -7.9752e-09 0 6.31409e-09
107 3 0.001 0.00885611 0 0.0171475 -1.0825e-07 0 -7.37626e-08 0 6.33455e-09
108 3 0.001 0.00880889 0 0.0177776 -6.63147e-08 0 -2.44543e-08 0 6.35511e-09
110 3 0.001 0.00869612 0 0.0190363 -8.6688e-08 0 5.20298e-08 0 6.39547e-09
109 3 0.001 0.00875565 0 0.0184073 -9.16594e-08 0 -1.75262e-08 0 6.3755e-09
111 3 0.001 0.00863002 0 0.0196648 -1.23843e-07 0 5.91987e-08 0 6.41479e-09
112 3 0.001 0.00855713 0 0.0202924 -8.556e-08 0 2.98246e-08 0 6.43331e-09
114 3 0.001 0.00839011 0 0.0215451 -9.60115e-08 0 -6.92176e-08 0 6.46731e-09
113 3 0.001 0.00847723 0 0.0209192 -1.2726e-07 0 -3.63137e-08 0 6.45088e-09
115 3 0.001 0.0082956 0 0.0221698 -9.17987e-08 0 -3.06756e-08 0 6.48232e-09
117 3 0.001 0.00808381 0 0.0234157 -1.00301e-07 0 9.67405e-09 0 6.50739e-09
116 3 0.001 0.00819354 0 0.0227934 -8.32748e-08 0 -5.93827e-08 0 6.49574e-09
119 3 0.001 0.00784091 0 0.0246558 -5.86072e-08 0 -3.586e-08 0 6.52492e-09
118 3 0.001 0.00796629 0 0.0240365 -9.16135e-08 0 -2.64368e-09 0 6.51713e-09
120 3 0.001 0.0077076 0 0.0252734 -9.48585e-08 0 1.24505e-09 0 6.53062e-09
121 3 0.001 0.00756632 0 0.0258893 -7.40676e-08 0 -2.85347e-08 0 6.53417e-09
122 3 0.001 0.00741707 0 0.0265033 -6.16183e-08 0 -4.03254e-09 0 6.53554e-09
124 3 0.001 0.0070947 0 0.0277252 -6.85125e-08 0 -1.2653e-08 0 6.53169e-09
123 3 0.001 0.00725985 0 0.0271153 -4.83407e-08 0 -3.12589e-08 0 6.53471e-09
125 3 0.001 0.00692168 0 0.0283329 -3.25385e-08 0 3.57961e-08 0 6.52647e-09
127 3 0.001 0.00655237 0 0.0295414 -2.53173e-08 0 1.20387e-08 0 6.50989e-09
126 3 0.001 0.00674087 0 0.0289384 -3.60497e-08 0 -3.6775e-08 0 6.51917e-09
129 3 0.001 0.00615282 0 0.0307403 -4.49079e-09 0 -4.45064e-08 0 6.48565e-09
128 3 0.001 0.0063563 0 0.0301421 -1.06258e-08 0 6.38294e-08 0 6.49863e-09
130 3 0.001 0.00594209 0 0.031336 -3.66876e-09 0 1.80027e-08 0 6.47109e-09
131 3 0.001 0.00572428 0 0.0319292 -1.7007e-08 0 2.78993e-08 0 6.45502e-09
132 3 0.001 0.00549962 0 0.0325198 2.97062e-08 0 -3.84833e-08 0 6.43773e-09
133 3 0.001 0.00526831 0 0.0331078 4.64813e-08 0 9.82296e-09 0 6.41941e-09
134 3 0.001 0.0050306 0 0.0336932 6.7317e-09 0 3.18832e-08 0 6.40017e-09
135 3 0.001 0.00478674 0 0.0342762 7.89699e-09 0 2.7513e-08 0 6.38027e-09
137 3 0.001 0.00428165 0 0.0354346 -4.17906e-09 0 4.31564e-08 0 6.33937e-09
136 3 0.001 0.00453699 0 0.0348566 4.35393e-08 0 9.95796e-08 0 6.35992e-09
138 3 0.001 0.00402099 0 0.0360102 3.63818e-08 0 7.09457e-08 0 6.31887e-09
139 3 0.001 0.00375533 0 0.0365836 6.54842e-08 0 -2.52633e-09 0 6.29868e-09
140 3 0.001 0.00348499 0 0.0371547 4.58332e-08 0 -4.10036e-08 0 6.27905e-09
142 3 0.001 0.00293156 0 0.0382909 1.20396e-08 0 -2.50058e-08 0 6.24197e-09
141 3 0.001 0.00321029 0 0.0377238 4.72514e-08 0 5.96693e-08 0 6.26007e-09
144 3 0.001 0.00236341 0 0.0394198 -2.32588e-08 0 9.6858e-09 0 6.20921e-09
145 3 0.001 0.00207469 0 0.0399818 8.25978e-08 0 4.95527e-08 0 6.1949e-09
143 3 0.001 0.00264915 0 0.0388561 9.21332e-08 0 6.8335e-08 0 6.22497e-09
146 3 0.001 0.00178335 0 0.0405426 6.63138e-10 0 -1.67001e-08 0 6.1822e-09
147 3 0.001 0.00148976 0 0.0411021 5.71386e-08 0 5.0021e-08 0 6.17122e-09
148 3 0.001 0.00119428 0 0.0416607 1.44072e-08 0 -4.24382e-08 0 6.1621e-09
150 3 0.001 0.000599164 0 0.0427757 6.61423e-09 0 2.06201e-09 0 3.75303e-09
149 3 0.001 0.000897299 0 0.0422185 5.23199e-08 0 -1.6142e-08 0 6.00902e-09
151 3 0.001 0.000299962 0 0.043333 9.72497e-09 0 -3.63526e-08 0 1.64498e-09
2 2 0.001 0 0 0.04389 -0.0021729 0 0.00863316 0 8.21951e-10
