ITEM: TIMESTEP
5900000
ITEM: NUMBER OF ATOMS
151
ITEM: BOX BOUNDS ff ff ff
-1.0000000000000000e-02 1.0000000000000000e-02
-6.0000000000000001e-03 6.0000000000000001e-03
-5.2499999999999998e-02 5.2499999999999998e-02
ITEM: ATOMS id type radius x y z fx fy fz c_bendingE c_stretchingE
1 1 0.001 0 0 -0.0475 -0.00452948 0 -0.0156958 0 3.49412e-09
3 3 0.001 0.000491259 0 -0.0471027 -1.55468e-11 0 1.56145e-11 0 7.02968e-09
4 3 0.001 0.000980182 0 -0.0467025 4.12547e-11 0 -3.90334e-11 0 1.08134e-08
5 3 0.001 0.00146625 0 -0.0462999 -2.29168e-11 0 2.96231e-11 0 1.48814e-08
6 3 0.001 0.00194877 0 -0.0458932 2.63157e-11 0 -5.3312e-11 0 1.5324e-08
7 3 0.001 0.00242655 0 -0.0454809 2.84446e-11 0 -2.90013e-11 0 1.5584e-08
8 3 0.001 0.00289836 0 -0.0450618 -2.85629e-11 0 2.39853e-11 0 1.58953e-08
9 3 0.001 0.00336294 0 -0.0446348 6.17935e-11 0 -7.32614e-11 0 1.62537e-08
10 3 0.001 0.003819 0 -0.0441987 4.08941e-12 0 -6.29753e-12 0 1.66544e-08
11 3 0.001 0.00426522 0 -0.0437526 -4.29918e-12 0 -6.09876e-12 0 1.70912e-08
12 3 0.001 0.00470025 0 -0.0432956 4.70591e-11 0 -5.71861e-11 0 1.75571e-08
13 3 0.001 0.00512272 0 -0.042827 1.02102e-11 0 -2.84451e-11 0 1.80443e-08
14 3 0.001 0.00553126 0 -0.0423463 -5.94516e-12 0 -2.67512e-12 0 1.85437e-08
15 3 0.001 0.00592447 0 -0.041853 6.05263e-11 0 -6.34302e-11 0 1.90457e-08
16 3 0.001 0.006301 0 -0.0413468 -6.08527e-11 0 3.43368e-11 0 1.95399e-08
17 3 0.001 0.00665948 0 -0.0408278 9.72196e-11 0 -8.59721e-11 0 2.00156e-08
18 3 0.001 0.00699863 0 -0.040296 -9.1453e-11 0 3.80523e-11 0 2.04619e-08
19 3 0.001 0.00731719 0 -0.0397517 9.92811e-11 0 -6.8677e-11 0 2.08681e-08
20 3 0.001 0.00761402 0 -0.0391952 -7.69365e-11 0 2.33356e-11 0 2.12244e-08
21 3 0.001 0.00788804 0 -0.0386271 3.16169e-11 0 -3.53931e-11 0 2.15214e-08
22 3 0.001 0.00813832 0 -0.0380483 -4.18222e-11 0 4.07361e-12 0 2.17515e-08
23 3 0.001 0.00836405 0 -0.0374594 4.20904e-11 0 -2.37533e-11 0 2.19084e-08
24 3 0.001 0.00856458 0 -0.0368615 -3.75518e-11 0 -2.15265e-12 0 2.19879e-08
25 3 0.001 0.0087394 0 -0.0362556 -7.14898e-11 0 -2.20403e-12 0 2.19878e-08
26 3 0.001 0.00888822 0 -0.0356427 8.86051e-11 0 -3.39694e-11 0 2.19082e-08
27 3 0.001 0.00901088 0 -0.0350241 -1.07269e-10 0 7.16652e-12 0 2.17494e-08
28 3 0.001 0.00910745 0 -0.0344009 4.20707e-11 0 -1.26213e-11 0 2.14808e-08
29 3 0.001 0.00917814 0 -0.0337742 -2.43471e-11 0 -1.26382e-11 0 2.11101e-08
30 3 0.001 0.00922334 0 -0.0331451 1.06519e-11 0 -4.10809e-12 0 2.07258e-08
31 3 0.001 0.00924347 0 -0.0325147 2.83739e-11 0 -2.46776e-11 0 2.04093e-08
32 3 0.001 0.00923899 0 -0.031884 2.70015e-11 0 -1.59453e-11 0 2.01988e-08
33 3 0.001 0.00921035 0 -0.0312539 4.14434e-11 0 -9.4977e-12 0 2.00832e-08
34 3 0.001 0.00915799 0 -0.0306253 7.58971e-11 0 -2.44411e-12 0 2.00084e-08
35 3 0.001 0.00908234 0 -0.0299991 7.29553e-11 0 -1.49339e-11 0 1.98968e-08
36 3 0.001 0.00898393 0 -0.029376 1.21692e-10 0 -4.46162e-12 0 1.96975e-08
37 3 0.001 0.00886333 0 -0.0287569 1.39331e-10 0 -1.86488e-12 0 1.94298e-08
38 3 0.001 0.0087213 0 -0.0281423 1.39325e-10 0 -5.44534e-12 0 1.91259e-08
39 3 0.001 0.00855866 0 -0.0275327 2.1484e-10 0 2.36264e-11 0 1.87927e-08
42 3 0.001 0.00795701 0 -0.0257389 2.48689e-10 0 2.24292e-11 0 1.76923e-08
41 3 0.001 0.00817544 0 -0.0263308 2.58066e-10 0 3.08228e-11 0 1.80682e-08
40 3 0.001 0.00837636 0 -0.0269288 2.11214e-10 0 1.25349e-11 0 1.84376e-08
44 3 0.001 0.00747242 0 -0.0245739 3.06873e-10 0 4.47013e-11 0 1.69498e-08
43 3 0.001 0.00772226 0 -0.0251533 3.30596e-10 0 5.95504e-11 0 1.73171e-08
47 3 0.001 0.00664529 0 -0.0228714 3.46749e-10 0 5.86525e-11 0 1.59582e-08
46 3 0.001 0.00693261 0 -0.0234332 4.02508e-10 0 8.90352e-11 0 1.62646e-08
45 3 0.001 0.00720876 0 -0.0240006 3.31941e-10 0 5.01966e-11 0 1.6597e-08
49 3 0.001 0.00604258 0 -0.0217626 4.58836e-10 0 1.09529e-10 0 1.54413e-08
48 3 0.001 0.00634816 0 -0.0223147 3.93771e-10 0 8.21804e-11 0 1.56824e-08
50 3 0.001 0.00572994 0 -0.0212144 3.16678e-10 0 3.83149e-11 0 1.52383e-08
52 3 0.001 0.00508892 0 -0.020127 3.53232e-10 0 4.52469e-11 0 1.49569e-08
53 3 0.001 0.00476331 0 -0.0195864 4.50201e-10 0 1.06117e-10 0 1.48821e-08
51 3 0.001 0.00541159 0 -0.0206694 5.20631e-10 0 1.45004e-10 0 1.50761e-08
55 3 0.001 0.00410874 0 -0.0185072 4.10798e-10 0 7.85125e-11 0 1.4869e-08
54 3 0.001 0.00443612 0 -0.0190467 4.41227e-10 0 1.01688e-10 0 1.48527e-08
58 3 0.001 0.00313915 0 -0.016881 4.13151e-10 0 7.49301e-11 0 1.51875e-08
57 3 0.001 0.00345888 0 -0.0174251 3.95257e-10 0 6.65824e-11 0 1.50374e-08
56 3 0.001 0.00378253 0 -0.0179669 4.36097e-10 0 8.64791e-11 0 1.49308e-08
60 3 0.001 0.00251699 0 -0.0157828 3.28348e-10 0 2.85418e-11 0 1.56095e-08
59 3 0.001 0.00282473 0 -0.0163338 4.04732e-10 0 7.17467e-11 0 1.5379e-08
61 3 0.001 0.00221729 0 -0.0152275 4.76178e-10 0 1.04265e-10 0 1.58757e-08
63 3 0.001 0.00164752 0 -0.0141014 4.18528e-10 0 7.6984e-11 0 1.64992e-08
62 3 0.001 0.00192702 0 -0.0146672 2.46447e-10 0 -1.82208e-11 0 1.61738e-08
65 3 0.001 0.0011262 0 -0.0129523 3.45741e-10 0 3.78017e-11 0 1.72106e-08
64 3 0.001 0.00138014 0 -0.0135299 3.1655e-10 0 1.60503e-11 0 1.68468e-08
66 3 0.001 0.000886993 0 -0.0123685 2.59643e-10 0 -1.24482e-11 0 1.75842e-08
68 3 0.001 0.000457698 0 -0.0111821 3.09877e-10 0 1.78607e-11 0 1.83327e-08
67 3 0.001 0.000663758 0 -0.0117784 3.07425e-10 0 2.78782e-11 0 1.79607e-08
71 3 0.001 -4.64758e-05 0 -0.00935865 3.22378e-10 0 1.97942e-11 0 1.93461e-08
69 3 0.001 0.000269946 0 -0.0105798 2.65789e-10 0 -4.47719e-12 0 1.86927e-08
70 3 0.001 0.000101564 0 -0.00997185 2.23766e-10 0 -1.29499e-11 0 1.9033e-08
72 3 0.001 -0.000173301 0 -0.00874073 1.86722e-10 0 -1.37552e-11 0 1.96249e-08
73 3 0.001 -0.000278149 0 -0.00811872 2.89992e-10 0 2.14621e-12 0 1.98628e-08
74 3 0.001 -0.000360381 0 -0.00749334 2.3048e-10 0 -3.82561e-12 0 2.00543e-08
75 3 0.001 -0.000419489 0 -0.00686536 2.40915e-10 0 -5.82666e-12 0 2.01946e-08
76 3 0.001 -0.000455104 0 -0.00623562 2.37399e-10 0 -7.93551e-12 0 2.02802e-08
77 3 0.001 -0.000467001 0 -0.00560498 2.6438e-10 0 2.64843e-12 0 2.03089e-08
78 3 0.001 -0.000455107 0 -0.00497435 2.52821e-10 0 -1.65531e-12 0 2.02802e-08
79 3 0.001 -0.000419496 0 -0.00434461 2.03751e-10 0 5.21052e-12 0 2.01946e-08
80 3 0.001 -0.000360392 0 -0.00371663 3.30304e-10 0 -2.20168e-11 0 2.00544e-08
81 3 0.001 -0.000278164 0 -0.00309124 1.57241e-10 0 1.42524e-11 0 1.98629e-08
82 3 0.001 -0.000173319 0 -0.00246924 3.29066e-10 0 -1.68212e-11 0 1.9625e-08
83 3 0.001 -4.64967e-05 0 -0.00185132 2.40399e-10 0 1.87295e-12 0 1.93462e-08
84 3 0.001 0.00010154 0 -0.00123812 2.62977e-10 0 -3.47503e-12 0 1.90331e-08
85 3 0.001 0.000269919 0 -0.000630168 3.33199e-10 0 -3.67447e-11 0 1.86928e-08
86 3 0.001 0.000457668 0 -2.78909e-05 1.97589e-10 0 2.81633e-11 0 1.83329e-08
87 3 0.001 0.000663726 0 0.000568396 3.91863e-10 0 -5.1733e-11 0 1.79609e-08
88 3 0.001 0.000886958 0 0.0011585 2.2191e-10 0 1.71198e-11 0 1.75844e-08
89 3 0.001 0.00112617 0 0.00174233 4.06299e-10 0 -6.93725e-11 0 1.72108e-08
90 3 0.001 0.00138011 0 0.00231994 2.39793e-10 0 1.49889e-11 0 1.6847e-08
91 3 0.001 0.00164748 0 0.00289148 4.27258e-10 0 -8.02149e-11 0 1.64994e-08
92 3 0.001 0.00192698 0 0.00345721 2.95073e-10 0 -7.87385e-12 0 1.6174e-08
93 3 0.001 0.00221725 0 0.00401752 4.33468e-10 0 -9.41557e-11 0 1.58759e-08
94 3 0.001 0.00251694 0 0.00457287 3.18694e-10 0 -1.42267e-11 0 1.56097e-08
95 3 0.001 0.00282469 0 0.00512382 4.17209e-10 0 -8.34689e-11 0 1.53792e-08
96 3 0.001 0.00313911 0 0.00567101 4.14074e-10 0 -8.33974e-11 0 1.51877e-08
97 3 0.001 0.00345883 0 0.00621513 3.75211e-10 0 -5.41397e-11 0 1.50376e-08
98 3 0.001 0.00378249 0 0.00675693 4.51923e-10 0 -1.09924e-10 0 1.4931e-08
99 3 0.001 0.00410869 0 0.00729721 3.59393e-10 0 -5.04886e-11 0 1.48692e-08
100 3 0.001 0.00443608 0 0.00783677 4.8998e-10 0 -1.24919e-10 0 1.48529e-08
101 3 0.001 0.00476326 0 0.00837646 3.47451e-10 0 -4.89858e-11 0 1.48823e-08
102 3 0.001 0.00508888 0 0.00891709 5.14671e-10 0 -1.447e-10 0 1.49571e-08
103 3 0.001 0.00541155 0 0.00945948 3.32797e-10 0 -4.01046e-11 0 1.50763e-08
104 3 0.001 0.00572989 0 0.0100044 5.29739e-10 0 -1.61394e-10 0 1.52385e-08
105 3 0.001 0.00604254 0 0.0105526 3.44917e-10 0 -5.05195e-11 0 1.54415e-08
106 3 0.001 0.00634812 0 0.0111047 4.37368e-10 0 -1.06248e-10 0 1.56826e-08
107 3 0.001 0.00664525 0 0.0116615 4.19792e-10 0 -9.38747e-11 0 1.59584e-08
108 3 0.001 0.00693257 0 0.0122233 3.48124e-10 0 -6.31379e-11 0 1.62648e-08
109 3 0.001 0.00720873 0 0.0127907 4.3137e-10 0 -1.06203e-10 0 1.65972e-08
110 3 0.001 0.00747239 0 0.0133639 2.74453e-10 0 -3.74855e-11 0 1.695e-08
111 3 0.001 0.00772223 0 0.0139433 3.40904e-10 0 -6.50084e-11 0 1.73174e-08
112 3 0.001 0.00795699 0 0.0145289 3.19655e-10 0 -5.13346e-11 0 1.76925e-08
113 3 0.001 0.00817542 0 0.0151208 2.32026e-10 0 -2.22097e-11 0 1.80685e-08
114 3 0.001 0.00837634 0 0.0157188 2.42408e-10 0 -3.84252e-11 0 1.84379e-08
115 3 0.001 0.00855864 0 0.0163228 2.02029e-10 0 -1.30035e-11 0 1.8793e-08
116 3 0.001 0.00872128 0 0.0169323 1.68835e-10 0 -1.9894e-11 0 1.91262e-08
117 3 0.001 0.00886332 0 0.0175469 1.57867e-10 0 -3.68921e-13 0 1.94302e-08
118 3 0.001 0.00898392 0 0.0181661 9.15272e-11 0 2.26431e-12 0 1.96979e-08
119 3 0.001 0.00908234 0 0.0187891 1.03203e-10 0 -1.27113e-12 0 1.98972e-08
120 3 0.001 0.00915799 0 0.0194153 6.32397e-11 0 -1.87156e-12 0 2.00088e-08
121 3 0.001 0.00921035 0 0.0200439 6.21769e-11 0 9.04899e-12 0 2.00836e-08
122 3 0.001 0.009239 0 0.020674 4.88579e-11 0 7.02542e-12 0 2.01992e-08
123 3 0.001 0.00924348 0 0.0213047 -4.6639e-11 0 6.9913e-12 0 2.04097e-08
124 3 0.001 0.00922335 0 0.0219351 7.00118e-11 0 1.10569e-11 0 2.07263e-08
125 3 0.001 0.00917816 0 0.0225642 1.15723e-11 0 1.15107e-12 0 2.11106e-08
126 3 0.001 0.00910746 0 0.0231909 -3.56717e-11 0 4.90527e-12 0 2.14813e-08
127 3 0.001 0.0090109 0 0.0238142 4.24279e-11 0 1.03635e-11 0 2.175e-08
128 3 0.001 0.00888824 0 0.0244328 -2.4602e-11 0 3.30946e-12 0 2.19088e-08
129 3 0.001 0.00873943 0 0.0250456 -4.16756e-12 0 3.2237e-12 0 2.19885e-08
131 3 0.001 0.00836408 0 0.0262494 4.4757e-11 0 2.80217e-11 0 2.19091e-08
130 3 0.001 0.0085646 0 0.0256515 -1.48268e-11 0 2.21149e-12 0 2.19886e-08
132 3 0.001 0.00813835 0 0.0268383 -4.95201e-11 0 -1.16225e-11 0 2.17522e-08
133 3 0.001 0.00788807 0 0.0274172 3.71573e-11 0 1.75902e-11 0 2.15221e-08
134 3 0.001 0.00761405 0 0.0279852 1.42806e-12 0 1.31417e-11 0 2.12251e-08
137 3 0.001 0.00665951 0 0.0296179 1.06257e-10 0 8.96678e-11 0 2.00163e-08
135 3 0.001 0.00731722 0 0.0285417 -1.81173e-12 0 6.8678e-12 0 2.08689e-08
136 3 0.001 0.00699866 0 0.0290861 -4.43845e-11 0 -1.67312e-11 0 2.04626e-08
138 3 0.001 0.00630102 0 0.0301369 -3.90456e-11 0 -2.57624e-11 0 1.95406e-08
139 3 0.001 0.0059245 0 0.030643 1.3896e-11 0 8.17884e-12 0 1.90464e-08
140 3 0.001 0.00553128 0 0.0311363 7.41509e-11 0 7.18862e-11 0 1.85444e-08
141 3 0.001 0.00512275 0 0.031617 -4.12658e-12 0 1.08763e-11 0 1.80449e-08
142 3 0.001 0.00470027 0 0.0320856 1.95203e-11 0 1.14831e-11 0 1.75578e-08
143 3 0.001 0.00426524 0 0.0325426 4.7483e-11 0 5.30344e-11 0 1.70918e-08
144 3 0.001 0.00381902 0 0.0329887 2.05803e-12 0 1.96351e-12 0 1.6655e-08
145 3 0.001 0.00336296 0 0.0334248 6.87973e-11 0 8.02646e-11 0 1.62543e-08
146 3 0.001 0.00289837 0 0.0338518 -2.39798e-11 0 -3.23317e-11 0 1.58958e-08
148 3 0.001 0.00194878 0 0.0346832 -2.72641e-11 0 -3.57852e-11 0 1.53246e-08
149 3 0.001 0.00146626 0 0.0350899 5.21656e-11 0 5.80269e-11 0 1.4882e-08
150 3 0.001 0.000980187 0 0.0354925 -1.88806e-11 0 -2.16649e-11 0 1.08138e-08
147 3 0.001 0.00242656 0 0.0342709 5.69104e-11 0 7.12662e-11 0 1.55846e-08
151 3 0.001 0.000491262 0 0.0358927 1.65675e-11 0 2.72974e-11 0 7.03006e-09
2 2 0.001 0 0 0.03629 -0.00452965 0 0.0156961 0 3.49431e-09
