ITEM: TIMESTEP
9400000
ITEM: NUMBER OF ATOMS
151
ITEM: BOX BOUNDS ff ff ff
-1.0000000000000000e-02 1.0000000000000000e-02
-6.0000000000000001e-03 6.0000000000000001e-03
-5.2499999999999998e-02 5.2499999999999998e-02
ITEM: ATOMS id type radius x y z fx fy fz c_bendingE c_stretchingE
1 1 0.001 0 0 -0.0475 -0.00178289 0 -0.0146088 0 1.29573e-09
3 3 0.001 0.000520094 0 -0.0471402 -5.1728e-11 0 9.18642e-11 0 2.62655e-09
4 3 0.001 0.00103769 0 -0.0467769 5.16862e-11 0 -5.53678e-11 0 5.22498e-09
5 3 0.001 0.00155224 0 -0.0464104 -3.1973e-11 0 3.10711e-11 0 8.04916e-09
6 3 0.001 0.00206296 0 -0.0460387 7.55275e-11 0 -1.04508e-10 0 8.43148e-09
7 3 0.001 0.00256855 0 -0.04566 -1.85859e-10 0 2.16676e-10 0 8.70421e-09
8 3 0.001 0.00306763 0 -0.0452729 3.19011e-10 0 -3.8702e-10 0 9.03595e-09
9 3 0.001 0.00355876 0 -0.0448758 -3.70862e-10 0 4.72363e-10 0 9.42516e-09
10 3 0.001 0.00404043 0 -0.0444673 3.41176e-10 0 -4.22986e-10 0 9.86952e-09
11 3 0.001 0.00451105 0 -0.0440462 -2.71593e-10 0 2.88886e-10 0 1.03657e-08
12 3 0.001 0.004969 0 -0.0436114 1.44558e-10 0 -1.32874e-10 0 1.09092e-08
13 3 0.001 0.00541254 0 -0.043162 -1.10297e-11 0 1.44726e-11 0 1.14941e-08
14 3 0.001 0.0058399 0 -0.0426973 -1.29705e-11 0 4.89154e-12 0 1.21129e-08
15 3 0.001 0.00624928 0 -0.0422167 6.53369e-11 0 -6.83163e-11 0 1.27566e-08
16 3 0.001 0.00663882 0 -0.04172 -2.24416e-10 0 1.43496e-10 0 1.34146e-08
17 3 0.001 0.00700666 0 -0.0412071 3.82963e-10 0 -2.40344e-10 0 1.40748e-08
18 3 0.001 0.00735098 0 -0.0406781 -4.91263e-10 0 3.27475e-10 0 1.47239e-08
19 3 0.001 0.00766996 0 -0.0401335 5.09777e-10 0 -2.88909e-10 0 1.53475e-08
20 3 0.001 0.00796189 0 -0.0395741 -2.93713e-10 0 1.12567e-10 0 1.59309e-08
21 3 0.001 0.00822514 0 -0.0390006 4.86824e-11 0 -3.78027e-11 0 1.64595e-08
22 3 0.001 0.00845823 0 -0.0384142 -6.90474e-11 0 3.19125e-11 0 1.69192e-08
23 3 0.001 0.00865983 0 -0.0378163 3.00847e-10 0 -7.62601e-11 0 1.72972e-08
24 3 0.001 0.00882881 0 -0.0372084 -4.45776e-10 0 1.20689e-10 0 1.75827e-08
25 3 0.001 0.00896426 0 -0.0365922 3.93879e-10 0 -1.0935e-10 0 1.77673e-08
26 3 0.001 0.0090655 0 -0.0359695 -3.10057e-10 0 1.57886e-11 0 1.78301e-08
27 3 0.001 0.00913212 0 -0.0353421 2.06617e-10 0 3.07365e-12 0 1.77711e-08
28 3 0.001 0.00916392 0 -0.034712 2.30369e-10 0 3.2853e-11 0 1.76525e-08
29 3 0.001 0.00916094 0 -0.0340811 -7.68115e-10 0 -7.18592e-11 0 1.75352e-08
30 3 0.001 0.00912335 0 -0.0334513 8.85729e-10 0 3.96006e-11 0 1.74149e-08
31 3 0.001 0.00905151 0 -0.0328244 -4.80586e-10 0 -4.86308e-11 0 1.7228e-08
32 3 0.001 0.00894599 0 -0.0322024 -3.74893e-11 0 -6.39883e-12 0 1.69297e-08
33 3 0.001 0.00880754 0 -0.0315868 4.2531e-10 0 1.09228e-10 0 1.65344e-08
35 3 0.001 0.00843607 0 -0.030381 2.61794e-10 0 5.26753e-11 0 1.55325e-08
34 3 0.001 0.00863717 0 -0.0309792 -4.23975e-10 0 -1.44035e-10 0 1.60644e-08
37 3 0.001 0.00794732 0 -0.0292177 1.38986e-10 0 8.85466e-11 0 1.4338e-08
36 3 0.001 0.00820561 0 -0.0297935 -8.36646e-11 0 -5.20337e-11 0 1.49523e-08
38 3 0.001 0.00766283 0 -0.0286542 -2.56682e-11 0 -2.49698e-11 0 1.37037e-08
41 3 0.001 0.00666973 0 -0.0270429 3.63999e-11 0 1.33782e-11 0 1.18096e-08
39 3 0.001 0.00735387 0 -0.0281038 -2.19173e-10 0 -1.85489e-10 0 1.30627e-08
40 3 0.001 0.00702222 0 -0.0275666 3.67052e-10 0 2.17166e-10 0 1.24276e-08
43 3 0.001 0.00590953 0 -0.0260347 5.44899e-10 0 4.12685e-10 0 1.06624e-08
42 3 0.001 0.00629822 0 -0.0265324 -4.07427e-10 0 -3.21333e-10 0 1.12185e-08
44 3 0.001 0.00550547 0 -0.0255494 -2.44458e-10 0 -2.56111e-10 0 1.01481e-08
46 3 0.001 0.0046583 0 -0.0246127 3.99535e-10 0 3.71993e-10 0 9.26505e-09
45 3 0.001 0.00508782 0 -0.0250757 -3.70184e-11 0 -8.41752e-11 0 9.68095e-09
47 3 0.001 0.00421861 0 -0.0241593 -3.37964e-10 0 -3.62558e-10 0 8.90332e-09
49 3 0.001 0.00331516 0 -0.0232763 4.04023e-10 0 3.8983e-10 0 8.34996e-09
50 3 0.001 0.00285452 0 -0.0228441 -3.28754e-10 0 -3.88434e-10 0 8.1605e-09
48 3 0.001 0.00377037 0 -0.0237143 3.38284e-11 0 -3.83502e-11 0 8.59784e-09
53 3 0.001 0.00145483 0 -0.0215665 5.00014e-10 0 4.91229e-10 0 7.94637e-09
52 3 0.001 0.00192289 0 -0.0219907 -3.30284e-10 0 -3.94749e-10 0 7.95854e-09
54 3 0.001 0.000987196 0 -0.0211418 -2.35286e-10 0 -3.2489e-10 0 7.99347e-09
51 3 0.001 0.00238994 0 -0.0224161 3.02367e-10 0 2.7324e-10 0 8.02995e-09
56 3 0.001 5.89909e-05 0 -0.0202847 -1.1382e-10 0 -1.70369e-10 0 8.26507e-09
57 3 0.001 -0.000398634 0 -0.0198493 2.11333e-10 0 1.65371e-10 0 8.48904e-09
55 3 0.001 0.000521429 0 -0.020715 1.43782e-10 0 1.24156e-10 0 8.09976e-09
60 3 0.001 -0.00172721 0 -0.0184985 -3.73054e-11 0 -8.83988e-11 0 9.50381e-09
59 3 0.001 -0.00129332 0 -0.0189575 6.25077e-11 0 7.30587e-12 0 9.10985e-09
58 3 0.001 -0.000849925 0 -0.0194073 1.57502e-11 0 -3.34175e-11 0 8.77101e-09
63 3 0.001 -0.00295501 0 -0.0170564 2.89954e-11 0 -4.14747e-11 0 1.09855e-08
62 3 0.001 -0.00255979 0 -0.0175489 1.51845e-10 0 8.73772e-11 0 1.04458e-08
61 3 0.001 -0.00214994 0 -0.0180293 5.74732e-11 0 1.97393e-11 0 9.95033e-09
66 3 0.001 -0.00403475 0 -0.0155013 -1.17366e-10 0 -1.20743e-10 0 1.28006e-08
65 3 0.001 -0.00369432 0 -0.016033 2.80045e-10 0 1.75251e-10 0 1.21713e-08
64 3 0.001 -0.00333379 0 -0.0165513 -1.13059e-10 0 -1.24927e-10 0 1.15632e-08
68 3 0.001 -0.00464799 0 -0.0143981 -1.28968e-10 0 -8.12737e-11 0 1.40792e-08
67 3 0.001 -0.00435324 0 -0.0149563 2.80687e-10 0 1.23461e-10 0 1.34406e-08
69 3 0.001 -0.00491724 0 -0.0138273 -6.53293e-11 0 -5.34324e-11 0 1.47034e-08
70 3 0.001 -0.00515932 0 -0.0132445 2.84709e-10 0 8.5341e-11 0 1.52994e-08
71 3 0.001 -0.00537264 0 -0.0126505 1.25051e-10 0 -4.93356e-12 0 1.58528e-08
72 3 0.001 -0.00555578 0 -0.0120467 -2.73129e-10 0 -9.10697e-11 0 1.63499e-08
73 3 0.001 -0.00570746 0 -0.0114342 3.02141e-10 0 8.72667e-11 0 1.67773e-08
74 3 0.001 -0.00582661 0 -0.0108146 2.21412e-10 0 2.56754e-11 0 1.71233e-08
75 3 0.001 -0.00591236 0 -0.0101895 -3.87031e-10 0 -5.73083e-11 0 1.7378e-08
76 3 0.001 -0.00596406 0 -0.00956067 4.38494e-10 0 1.46847e-11 0 1.75339e-08
77 3 0.001 -0.00598134 0 -0.00892998 -9.74694e-11 0 -7.34881e-12 0 1.75864e-08
78 3 0.001 -0.00596406 0 -0.00829929 5.55879e-11 0 7.58874e-12 0 1.75339e-08
79 3 0.001 -0.00591236 0 -0.00767048 1.67557e-11 0 5.20873e-12 0 1.7378e-08
80 3 0.001 -0.00582662 0 -0.00704539 2.82482e-10 0 -2.97356e-11 0 1.71234e-08
81 3 0.001 -0.00570748 0 -0.00642577 -1.52588e-10 0 3.33445e-11 0 1.67774e-08
82 3 0.001 -0.0055558 0 -0.00581328 1.0877e-10 0 -1.3063e-11 0 1.635e-08
83 3 0.001 -0.00537266 0 -0.00520941 1.73483e-10 0 -1.86765e-11 0 1.5853e-08
84 3 0.001 -0.00515934 0 -0.00461549 -2.66606e-10 0 1.28734e-10 0 1.52995e-08
85 3 0.001 -0.00491727 0 -0.00403265 5.47184e-10 0 -2.40417e-10 0 1.47036e-08
86 3 0.001 -0.00464802 0 -0.00346181 -3.78572e-10 0 2.08721e-10 0 1.40794e-08
87 3 0.001 -0.00435328 0 -0.00290365 2.31199e-10 0 -8.05713e-11 0 1.34408e-08
88 3 0.001 -0.00403478 0 -0.00235864 7.66077e-11 0 -8.19454e-12 0 1.28008e-08
89 3 0.001 -0.00369436 0 -0.00182698 7.08249e-11 0 -8.2062e-12 0 1.21715e-08
90 3 0.001 -0.00333384 0 -0.00130868 1.10432e-11 0 3.70004e-11 0 1.15634e-08
91 3 0.001 -0.00295505 0 -0.000803515 8.26278e-12 0 1.5279e-11 0 1.09857e-08
92 3 0.001 -0.00255984 0 -0.000311032 1.03806e-10 0 -3.96695e-11 0 1.0446e-08
93 3 0.001 -0.00214999 0 0.0001694 1.2416e-10 0 -4.90016e-11 0 9.95051e-09
94 3 0.001 -0.00172726 0 0.000638601 -2.28029e-10 0 2.46991e-10 0 9.50398e-09
95 3 0.001 -0.00129337 0 0.00109755 4.00299e-10 0 -3.32681e-10 0 9.11001e-09
96 3 0.001 -0.000849973 0 0.00154737 -1.95889e-10 0 2.47248e-10 0 8.77116e-09
97 3 0.001 -0.000398682 0 0.00198932 1.8565e-10 0 -1.45829e-10 0 8.48919e-09
98 3 0.001 5.89431e-05 0 0.00242474 -8.74354e-11 0 1.4931e-10 0 8.26521e-09
99 3 0.001 0.000521382 0 0.00285507 1.83632e-10 0 -1.42422e-10 0 8.09989e-09
100 3 0.001 0.000987149 0 0.00328181 -8.8909e-11 0 1.39581e-10 0 7.9936e-09
101 3 0.001 0.00145479 0 0.00370652 1.35926e-10 0 -1.11185e-10 0 7.9465e-09
102 3 0.001 0.00192285 0 0.00413077 -2.53885e-11 0 7.32805e-11 0 7.95866e-09
103 3 0.001 0.00238989 0 0.00455612 1.27631e-10 0 -7.55136e-11 0 8.03007e-09
104 3 0.001 0.00285447 0 0.00498415 -1.22684e-10 0 1.89893e-10 0 8.16062e-09
105 3 0.001 0.00331512 0 0.00541639 3.05132e-10 0 -2.90249e-10 0 8.35008e-09
106 3 0.001 0.00377033 0 0.00585432 -4.1825e-10 0 4.54173e-10 0 8.59796e-09
107 3 0.001 0.00421857 0 0.00629934 6.74577e-10 0 -6.34908e-10 0 8.90345e-09
108 3 0.001 0.00465827 0 0.00675276 -5.80691e-10 0 6.07709e-10 0 9.26518e-09
109 3 0.001 0.00508778 0 0.00721579 4.78514e-10 0 -4.01829e-10 0 9.68109e-09
110 3 0.001 0.00550543 0 0.00768949 -3.0154e-10 0 2.85111e-10 0 1.01482e-08
111 3 0.001 0.0059095 0 0.00817478 2.66743e-10 0 -1.63886e-10 0 1.06625e-08
112 3 0.001 0.00629819 0 0.0086724 -8.14525e-11 0 6.88502e-11 0 1.12186e-08
113 3 0.001 0.0066697 0 0.00918291 -4.87918e-12 0 1.00336e-11 0 1.18098e-08
114 3 0.001 0.0070222 0 0.00970668 1.25482e-10 0 -4.79797e-11 0 1.24279e-08
115 3 0.001 0.00735385 0 0.0102438 8.22836e-11 0 -3.02774e-11 0 1.30629e-08
116 3 0.001 0.00766281 0 0.0107943 -2.58005e-10 0 1.59616e-10 0 1.37039e-08
117 3 0.001 0.00794731 0 0.0113577 2.42235e-10 0 -9.46196e-11 0 1.43383e-08
118 3 0.001 0.0082056 0 0.0119336 1.49847e-10 0 -3.48173e-11 0 1.49526e-08
119 3 0.001 0.00843606 0 0.0125211 -4.2288e-10 0 1.36682e-10 0 1.55328e-08
120 3 0.001 0.00863716 0 0.0131192 4.25938e-10 0 -1.39983e-10 0 1.60647e-08
121 3 0.001 0.00880754 0 0.0137268 -1.63283e-10 0 7.85406e-11 0 1.65348e-08
122 3 0.001 0.00894599 0 0.0143424 3.02692e-11 0 1.43723e-11 0 1.69301e-08
123 3 0.001 0.00905152 0 0.0149645 -3.25148e-11 0 2.15402e-11 0 1.72284e-08
124 3 0.001 0.00912335 0 0.0155913 1.9186e-10 0 -2.11701e-11 0 1.74153e-08
125 3 0.001 0.00916094 0 0.0162211 -3.79673e-10 0 -2.05603e-11 0 1.75356e-08
126 3 0.001 0.00916393 0 0.016852 6.01062e-10 0 3.91803e-11 0 1.76529e-08
127 3 0.001 0.00913213 0 0.0174822 -5.86034e-10 0 -1.85233e-11 0 1.77716e-08
128 3 0.001 0.00906552 0 0.0181095 2.43042e-10 0 1.88827e-11 0 1.78306e-08
129 3 0.001 0.00896428 0 0.0187323 2.021e-10 0 5.41967e-11 0 1.77678e-08
130 3 0.001 0.00882883 0 0.0193485 -4.42139e-10 0 -1.13194e-10 0 1.75833e-08
132 3 0.001 0.00845825 0 0.0205542 1.49608e-10 0 7.31325e-11 0 1.69198e-08
131 3 0.001 0.00865985 0 0.0199564 2.89479e-10 0 8.2969e-11 0 1.72978e-08
133 3 0.001 0.00822517 0 0.0211406 -3.19531e-10 0 -1.24967e-10 0 1.64602e-08
134 3 0.001 0.00796191 0 0.0217141 7.10207e-11 0 1.20376e-11 0 1.59316e-08
135 3 0.001 0.00766999 0 0.0222736 1.9379e-10 0 1.20518e-10 0 1.53481e-08
138 3 0.001 0.00663884 0 0.02386 2.71292e-10 0 2.10561e-10 0 1.34152e-08
136 3 0.001 0.007351 0 0.0228181 -2.51534e-10 0 -1.28034e-10 0 1.47245e-08
137 3 0.001 0.00700669 0 0.0233471 8.05565e-11 0 3.11684e-11 0 1.40754e-08
139 3 0.001 0.0062493 0 0.0243568 -4.43269e-10 0 -3.62597e-10 0 1.27572e-08
140 3 0.001 0.00583993 0 0.0248373 2.65497e-10 0 2.29143e-10 0 1.21134e-08
141 3 0.001 0.00541256 0 0.0253021 3.35994e-11 0 6.632e-11 0 1.14946e-08
142 3 0.001 0.00496902 0 0.0257515 -1.50998e-10 0 -1.34707e-10 0 1.09097e-08
143 3 0.001 0.00451107 0 0.0261862 2.61697e-11 0 -2.50348e-11 0 1.03662e-08
144 3 0.001 0.00404044 0 0.0266073 1.68105e-10 0 1.79454e-10 0 9.86998e-09
148 3 0.001 0.00206297 0 0.0281787 -4.18339e-10 0 -5.90377e-10 0 8.43187e-09
145 3 0.001 0.00355878 0 0.0270158 -1.23285e-10 0 -1.01838e-10 0 9.4256e-09
146 3 0.001 0.00306765 0 0.0274129 -1.36596e-10 0 -1.61769e-10 0 9.03637e-09
147 3 0.001 0.00256857 0 0.0278 3.57175e-10 0 4.60881e-10 0 8.70461e-09
151 3 0.001 0.000520096 0 0.0292802 2.51716e-11 0 9.54879e-11 0 2.62676e-09
2 2 0.001 0 0 0.02964 -0.00178306 0 0.0146091 0 1.29584e-09
149 3 0.001 0.00155225 0 0.0285504 3.31995e-10 0 4.60342e-10 0 8.04954e-09
150 3 0.001 0.0010377 0 0.0289169 -1.53049e-10 0 -2.2486e-10 0 5.22527e-09
