ITEM: TIMESTEP
6200000
ITEM: NUMBER OF ATOMS
151
ITEM: BOX BOUNDS ff ff ff
-1.0000000000000000e-02 1.0000000000000000e-02
-6.0000000000000001e-03 6.0000000000000001e-03
-5.2499999999999998e-02 5.2499999999999998e-02
ITEM: ATOMS id type radius x y z fx fy fz c_bendingE c_stretchingE
1 1 0.001 0 0 -0.0475 -0.00425259 0 -0.0155327 0 3.20595e-09
3 3 0.001 0.0004943 0 -0.0471064 -3.54679e-09 0 5.83844e-09 0 6.45285e-09
4 3 0.001 0.000986249 0 -0.0467098 3.53403e-09 0 -3.36399e-09 0 1.01086e-08
5 3 0.001 0.00147533 0 -0.0463108 4.83849e-09 0 -6.28042e-09 0 1.40421e-08
6 3 0.001 0.00196083 0 -0.0459075 -1.21926e-08 0 1.30924e-08 0 1.4478e-08
7 3 0.001 0.00244155 0 -0.0454986 9.71941e-09 0 -1.19777e-08 0 1.47392e-08
8 3 0.001 0.00291625 0 -0.0450827 -8.53298e-09 0 1.05063e-08 0 1.50525e-08
9 3 0.001 0.00338366 0 -0.0446586 1.56318e-08 0 -1.53745e-08 0 1.54138e-08
10 3 0.001 0.00384247 0 -0.0442253 -2.32032e-08 0 2.33662e-08 0 1.58184e-08
11 3 0.001 0.00429132 0 -0.0437818 2.80972e-08 0 -2.87659e-08 0 1.62606e-08
12 3 0.001 0.00472885 0 -0.0433271 -3.0606e-08 0 2.86081e-08 0 1.67334e-08
13 3 0.001 0.00515366 0 -0.0428606 2.6811e-08 0 -2.30598e-08 0 1.72292e-08
14 3 0.001 0.00556434 0 -0.0423816 -2.14966e-08 0 1.89335e-08 0 1.7739e-08
15 3 0.001 0.00595945 0 -0.0418898 2.50656e-08 0 -2.00895e-08 0 1.82533e-08
16 3 0.001 0.0063376 0 -0.0413848 -2.86635e-08 0 1.97258e-08 0 1.87616e-08
17 3 0.001 0.00669739 0 -0.0408666 1.41702e-08 0 -9.80289e-09 0 1.92531e-08
18 3 0.001 0.00703746 0 -0.0403353 1.29587e-08 0 -5.93718e-09 0 1.97167e-08
19 3 0.001 0.00735654 0 -0.0397912 -3.439e-08 0 1.94175e-08 0 2.01415e-08
20 3 0.001 0.00765341 0 -0.0392347 4.05456e-08 0 -2.22838e-08 0 2.05171e-08
21 3 0.001 0.00792696 0 -0.0386664 -3.42469e-08 0 1.51642e-08 0 2.08339e-08
22 3 0.001 0.0081762 0 -0.038087 1.89914e-08 0 -7.00645e-09 0 2.10836e-08
23 3 0.001 0.00840027 0 -0.0374975 -5.00479e-09 0 3.24709e-09 0 2.12596e-08
24 3 0.001 0.00859848 0 -0.0368988 4.5577e-09 0 -1.35479e-09 0 2.1357e-08
25 3 0.001 0.00877028 0 -0.0362919 -9.91414e-09 0 6.9794e-10 0 2.13732e-08
26 3 0.001 0.00891532 0 -0.0356782 5.4628e-09 0 -1.81335e-09 0 2.13077e-08
27 3 0.001 0.00903345 0 -0.0350586 8.14231e-09 0 7.19949e-10 0 2.1154e-08
28 3 0.001 0.00912467 0 -0.0344346 -2.69639e-08 0 3.81399e-09 0 2.08849e-08
29 3 0.001 0.00918919 0 -0.0338072 4.76522e-08 0 -4.10599e-09 0 2.05275e-08
30 3 0.001 0.00922735 0 -0.0331776 -6.05027e-08 0 8.792e-10 0 2.01765e-08
31 3 0.001 0.00923954 0 -0.0325469 6.19594e-08 0 -2.11547e-10 0 1.99044e-08
32 3 0.001 0.00922618 0 -0.0319163 -5.24216e-08 0 -3.73046e-10 0 1.97348e-08
33 3 0.001 0.00918769 0 -0.0312867 3.03074e-08 0 2.29511e-09 0 1.96394e-08
34 3 0.001 0.0091245 0 -0.0306591 -1.16045e-08 0 -1.71309e-09 0 1.95498e-08
35 3 0.001 0.00903709 0 -0.0300344 1.10047e-08 0 1.1527e-09 0 1.93874e-08
36 3 0.001 0.008926 0 -0.0294134 -1.49535e-08 0 -3.13539e-09 0 1.91381e-08
37 3 0.001 0.00879193 0 -0.028797 8.59893e-09 0 2.78823e-09 0 1.88363e-08
38 3 0.001 0.00863568 0 -0.0281858 -2.68012e-11 0 3.79912e-10 0 1.84983e-08
39 3 0.001 0.0084582 0 -0.0275804 -3.13938e-09 0 -1.14758e-09 0 1.81317e-08
42 3 0.001 0.00780901 0 -0.0258031 1.77272e-08 0 7.90608e-09 0 1.69414e-08
41 3 0.001 0.0080437 0 -0.0263888 -1.48024e-08 0 -6.11474e-09 0 1.73451e-08
40 3 0.001 0.00826049 0 -0.0269813 7.90028e-09 0 2.44886e-09 0 1.77445e-08
44 3 0.001 0.00729103 0 -0.0246524 -4.74119e-09 0 -2.61067e-09 0 1.6152e-08
43 3 0.001 0.00755768 0 -0.0252243 -9.46033e-09 0 -3.8773e-09 0 1.65412e-08
45 3 0.001 0.00701039 0 -0.0240872 7.02763e-09 0 3.5577e-09 0 1.57804e-08
47 3 0.001 0.00641268 0 -0.0229756 -1.83713e-09 0 -7.09349e-10 0 1.51137e-08
46 3 0.001 0.00671714 0 -0.0235284 9.43068e-10 0 5.79489e-10 0 1.54325e-08
49 3 0.001 0.00577572 0 -0.0218859 3.1644e-09 0 1.39479e-09 0 1.45814e-08
48 3 0.001 0.0060984 0 -0.0224283 -2.67093e-09 0 -1.73161e-09 0 1.48287e-08
50 3 0.001 0.00544605 0 -0.0213477 4.16943e-09 0 2.75816e-09 0 1.43751e-08
52 3 0.001 0.00477137 0 -0.0202808 3.16355e-08 0 2.10032e-08 0 1.4095e-08
53 3 0.001 0.00442917 0 -0.0197505 -3.42879e-08 0 -2.17252e-08 0 1.40246e-08
51 3 0.001 0.0051108 0 -0.020813 -1.79424e-08 0 -1.14255e-08 0 1.42123e-08
56 3 0.001 0.00339999 0 -0.018161 3.5151e-08 0 2.25355e-08 0 1.40998e-08
55 3 0.001 0.00374209 0 -0.0186915 -3.52929e-08 0 -2.38764e-08 0 1.4027e-08
54 3 0.001 0.00408561 0 -0.019221 3.13671e-08 0 1.95424e-08 0 1.40019e-08
58 3 0.001 0.00272573 0 -0.0170939 3.90331e-09 0 3.39982e-09 0 1.43843e-08
57 3 0.001 0.00306074 0 -0.0176288 -1.96454e-08 0 -1.09591e-08 0 1.42194e-08
61 3 0.001 0.00176026 0 -0.0154653 1.63486e-08 0 9.11588e-09 0 1.51288e-08
60 3 0.001 0.00207408 0 -0.0160128 -9.7385e-09 0 -6.88263e-09 0 1.4842e-08
59 3 0.001 0.00239637 0 -0.0165555 2.88841e-09 0 6.52757e-10 0 1.45928e-08
63 3 0.001 0.00116366 0 -0.0143531 2.21052e-08 0 1.14289e-08 0 1.57983e-08
62 3 0.001 0.00145632 0 -0.0149122 -1.71704e-08 0 -8.16863e-09 0 1.54491e-08
64 3 0.001 0.000883687 0 -0.0137876 -2.4513e-08 0 -1.24421e-08 0 1.6171e-08
66 3 0.001 0.000367232 0 -0.0126362 3.06448e-08 0 1.23619e-08 0 1.69614e-08
65 3 0.001 0.000617762 0 -0.0132153 3.3688e-09 0 1.72981e-09 0 1.65609e-08
68 3 0.001 -8.24712e-05 0 -0.0114573 3.50308e-08 0 1.22832e-08 0 1.77641e-08
67 3 0.001 0.000133402 0 -0.0120502 -4.44203e-08 0 -1.67827e-08 0 1.73651e-08
69 3 0.001 -0.000279195 0 -0.0108579 -2.03235e-08 0 -6.77118e-09 0 1.81505e-08
71 3 0.001 -0.000610817 0 -0.00964073 6.48268e-09 0 1.38364e-09 0 1.88523e-08
70 3 0.001 -0.000455653 0 -0.0102522 6.40523e-09 0 2.27407e-09 0 1.85159e-08
72 3 0.001 -0.000743765 0 -0.00902407 -1.14529e-08 0 -2.31712e-09 0 1.9152e-08
73 3 0.001 -0.00085369 0 -0.00840291 1.06233e-08 0 1.65529e-09 0 1.9408e-08
74 3 0.001 -0.000939913 0 -0.00777803 -9.66942e-09 0 -1.07995e-09 0 1.96141e-08
75 3 0.001 -0.00100189 0 -0.0071503 6.17154e-09 0 7.16598e-10 0 1.97651e-08
76 3 0.001 -0.00103924 0 -0.00652063 -3.28952e-09 0 -7.3206e-10 0 1.98572e-08
77 3 0.001 -0.00105172 0 -0.00588998 1.53388e-08 0 -4.50937e-10 0 1.98882e-08
78 3 0.001 -0.00103925 0 -0.00525934 -3.75155e-08 0 2.50096e-09 0 1.98572e-08
79 3 0.001 -0.0010019 0 -0.00462967 4.57088e-08 0 -3.42018e-09 0 1.97651e-08
80 3 0.001 -0.000939924 0 -0.00400193 -2.96955e-08 0 2.7836e-09 0 1.96141e-08
81 3 0.001 -0.000853704 0 -0.00337706 5.27662e-09 0 -9.57462e-10 0 1.94081e-08
82 3 0.001 -0.000743783 0 -0.0027559 1.11372e-08 0 -2.0008e-09 0 1.91521e-08
83 3 0.001 -0.000610838 0 -0.00213924 -1.41103e-08 0 3.91381e-09 0 1.88524e-08
84 3 0.001 -0.000455677 0 -0.00152777 1.13886e-08 0 -3.10131e-09 0 1.8516e-08
85 3 0.001 -0.000279222 0 -0.000922072 -1.84757e-08 0 5.6581e-09 0 1.81506e-08
86 3 0.001 -8.2501e-05 0 -0.000322627 3.80619e-08 0 -1.39978e-08 0 1.77643e-08
87 3 0.001 0.00013337 0 0.00027022 -5.2241e-08 0 2.06516e-08 0 1.73653e-08
88 3 0.001 0.000367197 0 0.000856247 4.84365e-08 0 -1.93954e-08 0 1.69616e-08
89 3 0.001 0.000617725 0 0.00143536 -3.01907e-08 0 1.25827e-08 0 1.65611e-08
90 3 0.001 0.000883649 0 0.0020076 1.08434e-08 0 -5.38308e-09 0 1.61711e-08
91 3 0.001 0.00116362 0 0.00257313 2.68703e-09 0 -1.20841e-09 0 1.57985e-08
92 3 0.001 0.00145627 0 0.00313223 -1.29762e-08 0 7.7085e-09 0 1.54493e-08
93 3 0.001 0.00176021 0 0.00368531 2.19545e-08 0 -1.20417e-08 0 1.5129e-08
94 3 0.001 0.00207403 0 0.00423287 -2.54167e-08 0 1.3767e-08 0 1.48422e-08
95 3 0.001 0.00239633 0 0.0047755 2.28486e-08 0 -1.4302e-08 0 1.4593e-08
96 3 0.001 0.00272569 0 0.0053139 -1.76553e-08 0 1.16577e-08 0 1.43845e-08
97 3 0.001 0.0030607 0 0.00584881 1.14011e-08 0 -6.41846e-09 0 1.42195e-08
98 3 0.001 0.00339995 0 0.00638106 7.9148e-10 0 -1.42115e-10 0 1.40999e-08
99 3 0.001 0.00374204 0 0.0069115 -1.78531e-08 0 1.05512e-08 0 1.40272e-08
100 3 0.001 0.00408557 0 0.00744101 2.55676e-08 0 -1.70521e-08 0 1.4002e-08
101 3 0.001 0.00442913 0 0.00797049 -1.54943e-08 0 1.08002e-08 0 1.40248e-08
102 3 0.001 0.00477133 0 0.00850086 4.62548e-09 0 -2.75011e-09 0 1.40952e-08
103 3 0.001 0.00511076 0 0.009033 -5.05627e-09 0 3.01615e-09 0 1.42125e-08
104 3 0.001 0.00544601 0 0.00956776 5.85252e-09 0 -4.23467e-09 0 1.43753e-08
105 3 0.001 0.00577568 0 0.010106 3.13302e-09 0 -1.50726e-09 0 1.45816e-08
106 3 0.001 0.00609836 0 0.0106484 -1.15962e-08 0 7.40535e-09 0 1.48289e-08
107 3 0.001 0.00641264 0 0.0111957 8.01617e-10 0 -1.15186e-09 0 1.51139e-08
108 3 0.001 0.00671711 0 0.0117485 2.34215e-08 0 -1.28769e-08 0 1.54327e-08
109 3 0.001 0.00701036 0 0.0123072 -3.39449e-08 0 1.72375e-08 0 1.57806e-08
110 3 0.001 0.007291 0 0.0128724 2.97669e-08 0 -1.40268e-08 0 1.61522e-08
111 3 0.001 0.00755766 0 0.0134443 -2.98262e-08 0 1.39607e-08 0 1.65415e-08
112 3 0.001 0.00780898 0 0.0140231 3.77237e-08 0 -1.60238e-08 0 1.69416e-08
113 3 0.001 0.00804368 0 0.0146088 -3.98415e-08 0 1.49373e-08 0 1.73453e-08
114 3 0.001 0.00826047 0 0.0152013 3.12674e-08 0 -1.11772e-08 0 1.77448e-08
115 3 0.001 0.00845818 0 0.0158004 -1.91615e-08 0 6.30066e-09 0 1.8132e-08
116 3 0.001 0.00863567 0 0.0164058 1.10379e-08 0 -2.79492e-09 0 1.84986e-08
117 3 0.001 0.00879192 0 0.017017 -8.44663e-09 0 1.75888e-09 0 1.88367e-08
118 3 0.001 0.00892599 0 0.0176334 8.54564e-09 0 -1.8494e-09 0 1.91384e-08
119 3 0.001 0.00903708 0 0.0182544 -5.29746e-09 0 1.01107e-09 0 1.93878e-08
120 3 0.001 0.0091245 0 0.0188791 -5.98493e-09 0 4.60049e-10 0 1.95502e-08
121 3 0.001 0.00918769 0 0.0195067 1.7173e-08 0 -1.19817e-09 0 1.96398e-08
122 3 0.001 0.00922618 0 0.0201363 -1.23406e-08 0 4.53769e-10 0 1.97352e-08
123 3 0.001 0.00923955 0 0.020767 -7.91502e-09 0 -4.79091e-10 0 1.99048e-08
124 3 0.001 0.00922736 0 0.0213976 2.44307e-08 0 1.45119e-09 0 2.01769e-08
125 3 0.001 0.00918921 0 0.0220272 -2.38307e-08 0 -1.40654e-09 0 2.0528e-08
126 3 0.001 0.00912468 0 0.0226546 1.43014e-08 0 1.22246e-09 0 2.08854e-08
127 3 0.001 0.00903346 0 0.0232787 -3.38765e-09 0 -1.14632e-09 0 2.11545e-08
128 3 0.001 0.00891534 0 0.0238982 -7.56163e-09 0 -1.86518e-09 0 2.13083e-08
129 3 0.001 0.0087703 0 0.024512 1.05578e-08 0 3.37739e-09 0 2.13738e-08
131 3 0.001 0.00840029 0 0.0257175 4.60437e-09 0 1.52703e-09 0 2.12603e-08
132 3 0.001 0.00817622 0 0.0263071 1.09469e-08 0 3.79302e-09 0 2.10843e-08
130 3 0.001 0.0085985 0 0.0251188 -8.35684e-09 0 -1.64795e-09 0 2.13577e-08
133 3 0.001 0.00792699 0 0.0268864 -3.82179e-08 0 -1.90877e-08 0 2.08346e-08
134 3 0.001 0.00765344 0 0.0274548 5.07591e-08 0 2.6451e-08 0 2.05178e-08
135 3 0.001 0.00735657 0 0.0280113 -3.65273e-08 0 -1.84999e-08 0 2.01422e-08
137 3 0.001 0.00669741 0 0.0290866 -1.31521e-08 0 -1.03552e-08 0 1.92538e-08
138 3 0.001 0.00633763 0 0.0296048 1.60504e-08 0 1.11984e-08 0 1.87623e-08
136 3 0.001 0.00703749 0 0.0285554 1.75067e-08 0 1.04688e-08 0 1.97174e-08
141 3 0.001 0.00515369 0 0.0310806 -3.14803e-09 0 -2.87253e-09 0 1.72298e-08
139 3 0.001 0.00595948 0 0.0301098 -1.40699e-08 0 -9.92554e-09 0 1.82539e-08
140 3 0.001 0.00556436 0 0.0306016 6.85838e-09 0 6.078e-09 0 1.77397e-08
144 3 0.001 0.00384249 0 0.0324454 3.01759e-08 0 3.25409e-08 0 1.5819e-08
142 3 0.001 0.00472887 0 0.0315471 1.02801e-08 0 8.83487e-09 0 1.67341e-08
143 3 0.001 0.00429134 0 0.0320018 -2.39704e-08 0 -2.38736e-08 0 1.62612e-08
145 3 0.001 0.00338368 0 0.0328787 -2.43827e-08 0 -2.63643e-08 0 1.54144e-08
146 3 0.001 0.00291627 0 0.0333027 1.53053e-08 0 1.61012e-08 0 1.5053e-08
147 3 0.001 0.00244156 0 0.0337186 -8.97693e-09 0 -1.12521e-08 0 1.47398e-08
151 3 0.001 0.000494303 0 0.0353264 7.58093e-09 0 7.71421e-09 0 6.45322e-09
148 3 0.001 0.00196084 0 0.0341275 3.72976e-10 0 1.40401e-09 0 1.44785e-08
149 3 0.001 0.00147534 0 0.0345308 1.0341e-08 0 1.43569e-08 0 1.40427e-08
150 3 0.001 0.000986254 0 0.0349298 -1.34344e-08 0 -1.77297e-08 0 1.01091e-08
2 2 0.001 0 0 0.03572 -0.00425276 0 0.0155329 0 3.20613e-09
