ITEM: TIMESTEP
3600000
ITEM: NUMBER OF ATOMS
151
ITEM: BOX BOUNDS ff ff ff
-1.0000000000000000e-02 1.0000000000000000e-02
-6.0000000000000001e-03 6.0000000000000001e-03
-5.2499999999999998e-02 5.2499999999999998e-02
ITEM: ATOMS id type radius x y z fx fy fz c_bendingE c_stretchingE
1 1 0.001 0 0 -0.0475 -0.00776162 0 -0.0187596 0 8.34459e-09
3 3 0.001 0.000463357 0 -0.0470717 1.46262e-09 0 -1.37195e-09 0 1.67419e-08
4 3 0.001 0.000924429 0 -0.0466409 -1.00793e-09 0 1.16876e-09 0 2.2206e-08
5 3 0.001 0.00138274 0 -0.0462082 2.65323e-09 0 -3.0325e-09 0 2.80541e-08
6 3 0.001 0.00183759 0 -0.0457719 1.13415e-09 0 -1.3943e-09 0 2.862e-08
7 3 0.001 0.00228786 0 -0.0453309 4.1838e-10 0 -5.07171e-10 0 2.89056e-08
8 3 0.001 0.00273239 0 -0.0448842 5.64859e-09 0 -5.5688e-09 0 2.92425e-08
9 3 0.001 0.00317002 0 -0.0444307 -1.28079e-09 0 1.04744e-09 0 2.96234e-08
10 3 0.001 0.00359956 0 -0.0439696 5.32167e-09 0 -5.39031e-09 0 3.00402e-08
11 3 0.001 0.00401984 0 -0.0435 9.97962e-10 0 -1.49704e-09 0 3.04832e-08
12 3 0.001 0.00442971 0 -0.0430214 3.15262e-09 0 -3.2119e-09 0 3.09421e-08
13 3 0.001 0.00482799 0 -0.0425331 1.54758e-09 0 -1.80776e-09 0 3.14059e-08
14 3 0.001 0.00521356 0 -0.0420347 4.88209e-09 0 -4.28598e-09 0 3.18629e-08
15 3 0.001 0.00558531 0 -0.041526 1.11793e-09 0 -1.75418e-09 0 3.23012e-08
16 3 0.001 0.00594219 0 -0.0410067 3.28869e-09 0 -3.51612e-09 0 3.27093e-08
17 3 0.001 0.00628321 0 -0.040477 1.59299e-09 0 -2.26961e-09 0 3.30759e-08
18 3 0.001 0.00660744 0 -0.0399368 1.44015e-09 0 -1.97643e-09 0 3.33909e-08
19 3 0.001 0.00691406 0 -0.0393864 5.07592e-09 0 -3.79181e-09 0 3.36451e-08
20 3 0.001 0.00720233 0 -0.0388262 -1.61869e-09 0 -6.35738e-10 0 3.38313e-08
21 3 0.001 0.00747165 0 -0.0382567 3.38175e-09 0 -3.29175e-09 0 3.39439e-08
22 3 0.001 0.00772153 0 -0.0376784 3.18392e-09 0 -2.89211e-09 0 3.39797e-08
23 3 0.001 0.00795163 0 -0.037092 -4.74643e-10 0 -1.37885e-09 0 3.39375e-08
24 3 0.001 0.00816176 0 -0.036498 7.57622e-10 0 -2.01729e-09 0 3.38186e-08
25 3 0.001 0.00835187 0 -0.0358974 4.20895e-09 0 -3.04485e-09 0 3.36265e-08
26 3 0.001 0.00852208 0 -0.0352908 -2.91999e-09 0 -1.08766e-09 0 3.33669e-08
27 3 0.001 0.00867267 0 -0.0346791 4.69203e-09 0 -2.91093e-09 0 3.30473e-08
28 3 0.001 0.00880405 0 -0.0340629 -4.48639e-09 0 -8.93761e-10 0 3.26768e-08
29 3 0.001 0.00891683 0 -0.033443 5.53833e-09 0 -2.74567e-09 0 3.22658e-08
30 3 0.001 0.00901172 0 -0.0328201 -2.84037e-09 0 -1.54882e-09 0 3.18237e-08
31 3 0.001 0.00908959 0 -0.0321948 1.27719e-09 0 -2.15953e-09 0 3.13343e-08
32 3 0.001 0.00915143 0 -0.0315677 1.91767e-09 0 -1.96045e-09 0 3.07985e-08
33 3 0.001 0.00919832 0 -0.0309393 -2.04105e-09 0 -1.60537e-09 0 3.02654e-08
34 3 0.001 0.00923134 0 -0.03031 2.09287e-09 0 -2.067e-09 0 2.97848e-08
35 3 0.001 0.00925158 0 -0.0296801 -1.69573e-09 0 -2.09521e-09 0 2.939e-08
36 3 0.001 0.00926002 0 -0.0290499 1.76042e-09 0 -2.00139e-09 0 2.90957e-08
37 3 0.001 0.00925757 0 -0.0284197 1.36162e-09 0 -1.74537e-09 0 2.89013e-08
38 3 0.001 0.00924499 0 -0.0277896 -2.47338e-09 0 -1.94118e-09 0 2.87943e-08
39 3 0.001 0.00922294 0 -0.0271597 3.15952e-09 0 -1.98707e-09 0 2.87544e-08
40 3 0.001 0.00919198 0 -0.0265302 2.47685e-10 0 -2.11111e-09 0 2.87564e-08
41 3 0.001 0.00915255 0 -0.0259012 -2.48151e-10 0 -1.99302e-09 0 2.87733e-08
42 3 0.001 0.00910503 0 -0.0252727 3.54769e-09 0 -1.54537e-09 0 2.87798e-08
43 3 0.001 0.00904977 0 -0.0246449 -1.64657e-09 0 -2.15629e-09 0 2.87562e-08
44 3 0.001 0.00898711 0 -0.0240178 4.62348e-09 0 -1.77206e-09 0 2.8701e-08
45 3 0.001 0.00891743 0 -0.0233914 1.25267e-09 0 -2.08323e-09 0 2.86319e-08
46 3 0.001 0.00884115 0 -0.0227658 5.41876e-10 0 -2.01708e-09 0 2.85609e-08
47 3 0.001 0.00875871 0 -0.0221409 7.06349e-09 0 -9.91196e-10 0 2.84899e-08
48 3 0.001 0.00867059 0 -0.0215168 -2.47367e-10 0 -2.19687e-09 0 2.84204e-08
51 3 0.001 0.00837752 0 -0.0196489 1.2731e-09 0 -2.0881e-09 0 2.82369e-08
49 3 0.001 0.00857732 0 -0.0208935 4.38687e-09 0 -1.77251e-09 0 2.83541e-08
50 3 0.001 0.00847944 0 -0.0202709 6.14306e-09 0 -1.45472e-09 0 2.82924e-08
53 3 0.001 0.00816396 0 -0.0184065 5.27968e-09 0 -1.48031e-09 0 2.81489e-08
52 3 0.001 0.00827216 0 -0.0190275 7.24441e-09 0 -9.92134e-10 0 2.81887e-08
54 3 0.001 0.00805354 0 -0.017786 3.48974e-09 0 -1.96534e-09 0 2.81185e-08
55 3 0.001 0.00794156 0 -0.0171657 9.86699e-09 0 -7.39961e-10 0 2.80981e-08
56 3 0.001 0.00782864 0 -0.0165457 4.83492e-09 0 -1.58925e-09 0 2.80882e-08
57 3 0.001 0.00771545 0 -0.0159256 6.1772e-09 0 -1.37516e-09 0 2.80889e-08
58 3 0.001 0.00760263 0 -0.0153055 1.19495e-08 0 -4.95486e-10 0 2.81004e-08
60 3 0.001 0.0073807 0 -0.0140646 1.20372e-08 0 -3.14637e-10 0 2.81542e-08
59 3 0.001 0.00749083 0 -0.0146852 4.96403e-09 0 -1.76144e-09 0 2.81223e-08
61 3 0.001 0.00727287 0 -0.0134436 8.28404e-09 0 -1.02539e-09 0 2.81953e-08
62 3 0.001 0.00716797 0 -0.0128221 1.20434e-08 0 -5.48359e-10 0 2.82446e-08
63 3 0.001 0.00706661 0 -0.0122001 1.09987e-08 0 -8.58783e-10 0 2.83012e-08
64 3 0.001 0.00696937 0 -0.0115773 1.23326e-08 0 -5.65836e-10 0 2.83636e-08
65 3 0.001 0.00687682 0 -0.0109539 1.23136e-08 0 -3.44334e-10 0 2.84305e-08
67 3 0.001 0.00670792 0 -0.00970473 1.11955e-08 0 -6.45073e-10 0 2.85715e-08
68 3 0.001 0.00663258 0 -0.00907899 1.64687e-08 0 -1.61585e-10 0 2.86423e-08
66 3 0.001 0.0067895 0 -0.0103297 1.6232e-08 0 1.45407e-10 0 2.85004e-08
69 3 0.001 0.0065639 0 -0.00845248 1.72179e-08 0 -1.43294e-10 0 2.87111e-08
70 3 0.001 0.0065023 0 -0.00782525 1.17985e-08 0 -4.24448e-10 0 2.87763e-08
71 3 0.001 0.00644815 0 -0.00719733 2.09009e-08 0 4.80204e-10 0 2.88363e-08
72 3 0.001 0.00640176 0 -0.00656879 1.49308e-08 0 -1.21072e-10 0 2.88897e-08
73 3 0.001 0.00636343 0 -0.00593971 1.80411e-08 0 -1.13317e-10 0 2.89353e-08
74 3 0.001 0.00633337 0 -0.00531019 1.74296e-08 0 -1.00549e-10 0 2.8972e-08
75 3 0.001 0.00631176 0 -0.00468031 1.68831e-08 0 6.47248e-11 0 2.89988e-08
76 3 0.001 0.00629875 0 -0.00405021 2.06833e-08 0 1.01423e-10 0 2.90152e-08
77 3 0.001 0.0062944 0 -0.00341998 1.45461e-08 0 -6.15361e-11 0 2.90207e-08
78 3 0.001 0.00629875 0 -0.00278976 2.19967e-08 0 -1.45571e-10 0 2.90152e-08
79 3 0.001 0.00631176 0 -0.00215965 1.46115e-08 0 7.16344e-11 0 2.89988e-08
80 3 0.001 0.00633336 0 -0.00152978 1.83267e-08 0 7.5657e-11 0 2.8972e-08
81 3 0.001 0.00636342 0 -0.000900258 1.97669e-08 0 -1.03722e-10 0 2.89354e-08
82 3 0.001 0.00640175 0 -0.00027118 1.33863e-08 0 1.94509e-10 0 2.88898e-08
83 3 0.001 0.00644814 0 0.000357358 1.93273e-08 0 -2.2588e-10 0 2.88364e-08
84 3 0.001 0.00650229 0 0.000985278 1.46064e-08 0 2.07133e-10 0 2.87764e-08
85 3 0.001 0.00656388 0 0.00161252 1.68079e-08 0 9.30413e-11 0 2.87112e-08
86 3 0.001 0.00663256 0 0.00223902 1.27929e-08 0 5.4488e-10 0 2.86424e-08
87 3 0.001 0.00670791 0 0.00286476 1.64858e-08 0 -9.57586e-11 0 2.85716e-08
88 3 0.001 0.00678948 0 0.00348973 1.16027e-08 0 4.37051e-10 0 2.85005e-08
89 3 0.001 0.0068768 0 0.00411392 1.51139e-08 0 3.38687e-11 0 2.84307e-08
90 3 0.001 0.00696935 0 0.00473736 9.90949e-09 0 9.48658e-10 0 2.83638e-08
91 3 0.001 0.00706659 0 0.00536009 1.42334e-08 0 2.35067e-10 0 2.83014e-08
92 3 0.001 0.00716795 0 0.00598216 8.08675e-09 0 1.14519e-09 0 2.82448e-08
93 3 0.001 0.00727285 0 0.00660365 1.33893e-08 0 2.15709e-10 0 2.81955e-08
94 3 0.001 0.00738068 0 0.00722465 5.86607e-09 0 1.49726e-09 0 2.81544e-08
95 3 0.001 0.00749081 0 0.00784524 1.04348e-08 0 6.80198e-10 0 2.81226e-08
96 3 0.001 0.0076026 0 0.00846553 7.79188e-09 0 1.08982e-09 0 2.81006e-08
97 3 0.001 0.00771542 0 0.00908564 8.31665e-09 0 1.04605e-09 0 2.80892e-08
98 3 0.001 0.00782862 0 0.00970568 4.71665e-09 0 1.73285e-09 0 2.80884e-08
99 3 0.001 0.00794153 0 0.0103258 8.77191e-09 0 8.99345e-10 0 2.80983e-08
100 3 0.001 0.00805352 0 0.010946 4.15395e-09 0 1.63267e-09 0 2.81187e-08
101 3 0.001 0.00816393 0 0.0115666 6.46273e-09 0 1.22185e-09 0 2.81492e-08
102 3 0.001 0.00827214 0 0.0121875 3.30552e-09 0 1.88508e-09 0 2.81889e-08
103 3 0.001 0.0083775 0 0.0128089 5.54399e-09 0 1.47846e-09 0 2.82372e-08
104 3 0.001 0.00847942 0 0.0134309 4.92356e-09 0 1.52086e-09 0 2.82927e-08
105 3 0.001 0.0085773 0 0.0140535 1.3974e-09 0 2.01704e-09 0 2.83544e-08
106 3 0.001 0.00867057 0 0.0146769 4.45274e-09 0 1.51175e-09 0 2.84208e-08
107 3 0.001 0.00875869 0 0.0153009 3.48234e-09 0 1.68518e-09 0 2.84902e-08
108 3 0.001 0.00884113 0 0.0159258 1.16629e-09 0 2.01399e-09 0 2.85613e-08
109 3 0.001 0.00891742 0 0.0165514 3.65296e-09 0 1.62042e-09 0 2.86322e-08
110 3 0.001 0.0089871 0 0.0171778 1.61098e-10 0 2.01222e-09 0 2.87014e-08
111 3 0.001 0.00904976 0 0.017805 3.06454e-09 0 1.74468e-09 0 2.87566e-08
112 3 0.001 0.00910502 0 0.0184328 1.10827e-10 0 2.03598e-09 0 2.87802e-08
113 3 0.001 0.00915254 0 0.0190612 2.58556e-09 0 1.87886e-09 0 2.87738e-08
114 3 0.001 0.00919198 0 0.0196903 -9.64792e-10 0 1.98793e-09 0 2.87568e-08
115 3 0.001 0.00922294 0 0.0203197 2.45901e-09 0 1.8068e-09 0 2.87548e-08
116 3 0.001 0.00924499 0 0.0209496 -9.48494e-10 0 1.99217e-09 0 2.87948e-08
117 3 0.001 0.00925757 0 0.0215797 1.13975e-09 0 1.95989e-09 0 2.89018e-08
118 3 0.001 0.00926003 0 0.02221 -1.98849e-11 0 1.9268e-09 0 2.90962e-08
119 3 0.001 0.00925159 0 0.0228401 4.38749e-10 0 1.84356e-09 0 2.93904e-08
120 3 0.001 0.00923135 0 0.02347 9.23184e-10 0 1.96704e-09 0 2.97853e-08
121 3 0.001 0.00919833 0 0.0240994 -3.72133e-10 0 1.91763e-09 0 3.02659e-08
122 3 0.001 0.00915144 0 0.0247278 1.14636e-09 0 1.90018e-09 0 3.0799e-08
123 3 0.001 0.0090896 0 0.0253549 -7.99179e-10 0 1.67894e-09 0 3.13348e-08
124 3 0.001 0.00901174 0 0.0259801 6.89356e-10 0 1.97935e-09 0 3.18242e-08
125 3 0.001 0.00891685 0 0.026603 2.13824e-09 0 2.36737e-09 0 3.22664e-08
127 3 0.001 0.00867269 0 0.0278391 4.09206e-09 0 2.63335e-09 0 3.3048e-08
126 3 0.001 0.00880408 0 0.0272229 -1.92113e-09 0 1.54881e-09 0 3.26775e-08
129 3 0.001 0.0083519 0 0.0290574 2.17456e-09 0 2.26975e-09 0 3.36273e-08
130 3 0.001 0.00816179 0 0.0296581 3.28184e-09 0 2.94414e-09 0 3.38194e-08
128 3 0.001 0.00852211 0 0.0284509 -1.7997e-09 0 1.10899e-09 0 3.33677e-08
131 3 0.001 0.00795167 0 0.030252 -2.67177e-09 0 7.48498e-10 0 3.39383e-08
132 3 0.001 0.00772157 0 0.0308385 6.16813e-09 0 4.09295e-09 0 3.39806e-08
133 3 0.001 0.00747169 0 0.0314168 -2.59094e-09 0 1.84265e-10 0 3.39449e-08
135 3 0.001 0.0069141 0 0.0325465 -1.98599e-09 0 3.44405e-10 0 3.36461e-08
134 3 0.001 0.00720237 0 0.0319863 6.7943e-09 0 4.7049e-09 0 3.38322e-08
136 3 0.001 0.00660748 0 0.0330968 3.98537e-09 0 3.5229e-09 0 3.33918e-08
137 3 0.001 0.00628325 0 0.033637 2.39764e-09 0 2.61566e-09 0 3.30769e-08
138 3 0.001 0.00594223 0 0.0341668 1.5161e-09 0 1.98436e-09 0 3.27102e-08
140 3 0.001 0.00521359 0 0.0351947 4.98391e-10 0 1.10843e-09 0 3.18638e-08
141 3 0.001 0.00482802 0 0.0356931 3.69099e-09 0 3.53676e-09 0 3.14068e-08
139 3 0.001 0.00558534 0 0.034686 4.18358e-09 0 3.87731e-09 0 3.23022e-08
144 3 0.001 0.00359958 0 0.0371296 1.96401e-09 0 2.17794e-09 0 3.0041e-08
142 3 0.001 0.00442973 0 0.0361814 2.70534e-09 0 2.88397e-09 0 3.0943e-08
143 3 0.001 0.00401987 0 0.03666 3.01269e-09 0 3.22484e-09 0 3.04841e-08
147 3 0.001 0.00228788 0 0.038491 1.78877e-09 0 1.98178e-09 0 2.89064e-08
148 3 0.001 0.0018376 0 0.0389319 -9.85661e-10 0 -9.06876e-10 0 2.86208e-08
145 3 0.001 0.00317004 0 0.0375907 1.67338e-09 0 1.69967e-09 0 2.96243e-08
146 3 0.001 0.00273241 0 0.0380442 3.4149e-09 0 3.50017e-09 0 2.92433e-08
151 3 0.001 0.00046336 0 0.0402317 2.11869e-09 0 2.24102e-09 0 1.67425e-08
149 3 0.001 0.00138275 0 0.0393682 5.62473e-09 0 5.96807e-09 0 2.80549e-08
150 3 0.001 0.000924436 0 0.0398009 -3.22452e-09 0 -3.49778e-09 0 2.22067e-08
2 2 0.001 0 0 0.04066 -0.0077618 0 0.0187599 0 8.3449e-09
