ITEM: TIMESTEP
4200000
ITEM: NUMBER OF ATOMS
151
ITEM: BOX BOUNDS ff ff ff
-1.0000000000000000e-02 1.0000000000000000e-02
-6.0000000000000001e-03 6.0000000000000001e-03
-5.2499999999999998e-02 5.2499999999999998e-02
ITEM: ATOMS id type radius x y z fx fy fz c_bendingE c_stretchingE
1 1 0.001 0 0 -0.0475 -0.00655889 0 -0.017366 0 6.19266e-09
3 3 0.001 0.000471127 0 -0.0470798 4.59808e-10 0 -4.10636e-10 0 1.24317e-08
4 3 0.001 0.000939988 0 -0.046657 6.12075e-10 0 -1.32579e-09 0 1.72293e-08
5 3 0.001 0.00140609 0 -0.0462322 -3.0415e-09 0 3.77065e-09 0 2.23685e-08
6 3 0.001 0.00186877 0 -0.0458038 3.45657e-09 0 -3.33074e-09 0 2.28755e-08
7 3 0.001 0.00232688 0 -0.0453704 -3.22341e-09 0 3.10489e-09 0 2.31389e-08
8 3 0.001 0.00277927 0 -0.0449312 3.21992e-09 0 -3.15852e-09 0 2.34512e-08
9 3 0.001 0.00322477 0 -0.044485 -4.36199e-09 0 3.84871e-09 0 2.38067e-08
10 3 0.001 0.00366218 0 -0.0440308 1.51769e-09 0 -1.26693e-09 0 2.41986e-08
11 3 0.001 0.00409031 0 -0.043568 -2.30138e-10 0 8.16786e-10 0 2.46191e-08
12 3 0.001 0.00450796 0 -0.0430957 -5.14604e-10 0 1.43183e-10 0 2.50597e-08
13 3 0.001 0.00491392 0 -0.0426133 1.05439e-10 0 1.07256e-10 0 2.55107e-08
14 3 0.001 0.005307 0 -0.0421205 -2.09059e-09 0 1.57413e-09 0 2.5962e-08
15 3 0.001 0.00568604 0 -0.0416168 6.50832e-10 0 -5.64056e-10 0 2.64033e-08
16 3 0.001 0.00604991 0 -0.041102 -1.61029e-09 0 1.7193e-09 0 2.68238e-08
17 3 0.001 0.00639752 0 -0.0405762 1.41791e-09 0 -7.62288e-10 0 2.72131e-08
18 3 0.001 0.00672784 0 -0.0400393 -1.69627e-09 0 1.38534e-09 0 2.75612e-08
19 3 0.001 0.00703994 0 -0.0394917 -2.53593e-09 0 1.47834e-09 0 2.78588e-08
20 3 0.001 0.00733294 0 -0.0389337 1.96961e-09 0 -1.28077e-09 0 2.80979e-08
21 3 0.001 0.00760611 0 -0.0383657 -2.2001e-09 0 1.81079e-09 0 2.82721e-08
22 3 0.001 0.00785882 0 -0.0377883 1.59601e-09 0 -1.14096e-10 0 2.83763e-08
23 3 0.001 0.00809057 0 -0.0372021 -4.36134e-09 0 1.72867e-09 0 2.84078e-08
24 3 0.001 0.00830101 0 -0.036608 6.29855e-10 0 2.41346e-10 0 2.83656e-08
25 3 0.001 0.00848994 0 -0.0360068 1.88764e-09 0 -2.79639e-10 0 2.82508e-08
26 3 0.001 0.00865732 0 -0.0353991 -2.78665e-09 0 1.37022e-09 0 2.80668e-08
27 3 0.001 0.00880325 0 -0.0347859 -5.4015e-10 0 6.41958e-10 0 2.78187e-08
28 3 0.001 0.00892803 0 -0.0341681 -8.00436e-10 0 1.9393e-10 0 2.75131e-08
29 3 0.001 0.00903207 0 -0.0335464 1.51092e-09 0 6.70068e-10 0 2.71503e-08
30 3 0.001 0.00911596 0 -0.0329217 -1.92919e-09 0 7.94834e-10 0 2.67071e-08
31 3 0.001 0.00918042 0 -0.0322946 -1.04481e-09 0 3.15229e-10 0 2.61977e-08
32 3 0.001 0.00922627 0 -0.0316658 4.45258e-11 0 6.03246e-10 0 2.56933e-08
33 3 0.001 0.00925433 0 -0.031036 1.01996e-09 0 2.96296e-10 0 2.52579e-08
34 3 0.001 0.00926538 0 -0.0304057 -1.77099e-09 0 8.51369e-10 0 2.49299e-08
35 3 0.001 0.00926015 0 -0.0297752 -1.23942e-10 0 7.07479e-10 0 2.47198e-08
36 3 0.001 0.00923928 0 -0.0291451 9.86342e-10 0 2.67892e-10 0 2.4613e-08
37 3 0.001 0.00920329 0 -0.0285156 -1.93098e-09 0 6.09248e-10 0 2.45753e-08
38 3 0.001 0.00915264 0 -0.0278872 8.96628e-10 0 4.70033e-10 0 2.45594e-08
39 3 0.001 0.00908777 0 -0.02726 -2.08929e-09 0 2.28387e-10 0 2.45153e-08
40 3 0.001 0.00900909 0 -0.0266345 1.66104e-09 0 1.1812e-09 0 2.441e-08
41 3 0.001 0.00891706 0 -0.0260107 -1.04757e-09 0 1.95999e-10 0 2.42609e-08
42 3 0.001 0.00881221 0 -0.025389 -4.03251e-10 0 5.62603e-10 0 2.40972e-08
43 3 0.001 0.00869514 0 -0.0247694 8.21593e-10 0 7.50822e-10 0 2.39237e-08
44 3 0.001 0.00856653 0 -0.0241522 -2.84771e-09 0 -3.53899e-10 0 2.37443e-08
46 3 0.001 0.0082776 0 -0.0229247 -3.23713e-09 0 -4.03486e-10 0 2.33831e-08
45 3 0.001 0.00842709 0 -0.0235372 2.17018e-09 0 1.41946e-09 0 2.35627e-08
47 3 0.001 0.00811888 0 -0.0223144 2.72789e-09 0 1.28986e-09 0 2.3209e-08
48 3 0.001 0.00795181 0 -0.0217064 -3.869e-09 0 -8.82242e-11 0 2.30442e-08
49 3 0.001 0.00777727 0 -0.0211004 3.28106e-09 0 1.23976e-09 0 2.2892e-08
51 3 0.001 0.00740958 0 -0.019894 1.65768e-09 0 1.05447e-09 0 2.26372e-08
50 3 0.001 0.00759621 0 -0.0204964 -3.97493e-09 0 -7.14943e-10 0 2.27554e-08
53 3 0.001 0.00702354 0 -0.0186934 2.02778e-09 0 1.72111e-09 0 2.24646e-08
52 3 0.001 0.00721836 0 -0.0192931 -3.07261e-09 0 -4.6059e-10 0 2.25396e-08
54 3 0.001 0.00682614 0 -0.0180944 -1.99178e-09 0 -3.41049e-10 0 2.24136e-08
56 3 0.001 0.00642768 0 -0.0168978 -5.53393e-10 0 5.79934e-10 0 2.23868e-08
55 3 0.001 0.00662718 0 -0.017496 -1.30977e-09 0 -1.50038e-10 0 2.23875e-08
58 3 0.001 0.00603116 0 -0.0157005 5.82403e-10 0 1.07607e-09 0 2.24613e-08
57 3 0.001 0.00622866 0 -0.0162994 -9.55808e-10 0 4.57063e-11 0 2.24115e-08
59 3 0.001 0.00583618 0 -0.0151008 -3.99744e-09 0 -6.2016e-10 0 2.2535e-08
60 3 0.001 0.00564474 0 -0.0145 1.29859e-09 0 5.43438e-10 0 2.26314e-08
61 3 0.001 0.00545784 0 -0.0138977 -2.58632e-09 0 -2.32483e-10 0 2.27486e-08
63 3 0.001 0.00510155 0 -0.0126879 -2.56505e-09 0 -1.242e-10 0 2.30357e-08
64 3 0.001 0.00493405 0 -0.01208 -1.19185e-09 0 4.68356e-10 0 2.31999e-08
62 3 0.001 0.00527646 0 -0.0132938 3.26717e-10 0 3.75875e-10 0 2.28843e-08
66 3 0.001 0.00462487 0 -0.0108574 -4.91141e-09 0 -6.95635e-10 0 2.35531e-08
65 3 0.001 0.00477487 0 -0.0114699 1.86691e-10 0 5.37829e-11 0 2.33736e-08
67 3 0.001 0.00448487 0 -0.0102426 2.16003e-09 0 9.05506e-10 0 2.37346e-08
68 3 0.001 0.00435566 0 -0.00962549 -1.97215e-09 0 -2.69284e-10 0 2.39143e-08
69 3 0.001 0.00423796 0 -0.00900605 -2.4362e-09 0 1.13117e-10 0 2.40882e-08
70 3 0.001 0.00413245 0 -0.00838443 -1.73118e-09 0 -2.16251e-10 0 2.42525e-08
71 3 0.001 0.00403972 0 -0.00776079 -8.18896e-10 0 1.32529e-10 0 2.44036e-08
72 3 0.001 0.00396031 0 -0.00713532 -5.86965e-10 0 3.7259e-10 0 2.45378e-08
73 3 0.001 0.0038947 0 -0.00650825 -2.51802e-09 0 -4.35422e-10 0 2.46523e-08
74 3 0.001 0.00384325 0 -0.00587988 -2.21575e-09 0 9.35953e-11 0 2.47442e-08
75 3 0.001 0.00380629 0 -0.00525049 9.26662e-10 0 6.3615e-11 0 2.48115e-08
76 3 0.001 0.00378402 0 -0.00462041 -4.83927e-09 0 -2.39224e-10 0 2.48525e-08
77 3 0.001 0.00377658 0 -0.00398999 9.62629e-10 0 4.17993e-10 0 2.48663e-08
78 3 0.001 0.00378402 0 -0.00335956 -2.76947e-09 0 -1.30488e-10 0 2.48525e-08
79 3 0.001 0.00380628 0 -0.00272948 -1.79375e-10 0 -1.42023e-10 0 2.48115e-08
80 3 0.001 0.00384324 0 -0.00210009 -2.48366e-09 0 1.67488e-10 0 2.47443e-08
81 3 0.001 0.00389469 0 -0.00147172 -1.78288e-09 0 -3.20951e-10 0 2.46524e-08
82 3 0.001 0.0039603 0 -0.000844655 -1.92033e-09 0 3.06766e-10 0 2.45379e-08
83 3 0.001 0.0040397 0 -0.000219182 9.17769e-10 0 -2.64995e-10 0 2.44037e-08
84 3 0.001 0.00413243 0 0.000404462 -3.80685e-09 0 1.13037e-10 0 2.42526e-08
85 3 0.001 0.00423794 0 0.00102608 -1.34771e-10 0 -7.50199e-11 0 2.40883e-08
86 3 0.001 0.00435564 0 0.00164552 -4.22429e-09 0 2.63151e-10 0 2.39144e-08
87 3 0.001 0.00448485 0 0.00226267 2.40443e-09 0 -8.17603e-10 0 2.37347e-08
88 3 0.001 0.00462484 0 0.00287747 -2.46147e-09 0 4.05956e-10 0 2.35532e-08
89 3 0.001 0.00477484 0 0.00348992 -2.34585e-09 0 -4.18402e-11 0 2.33738e-08
90 3 0.001 0.00493402 0 0.00410006 -1.2958e-09 0 2.57244e-10 0 2.32001e-08
91 3 0.001 0.00510152 0 0.00470798 -1.48332e-09 0 -1.56933e-10 0 2.30359e-08
92 3 0.001 0.00527642 0 0.00531382 6.23365e-10 0 -1.09815e-09 0 2.28844e-08
93 3 0.001 0.00545781 0 0.00591776 -2.0154e-09 0 3.31542e-10 0 2.27488e-08
94 3 0.001 0.00564471 0 0.00652002 -2.73958e-09 0 2.89903e-10 0 2.26316e-08
95 3 0.001 0.00583614 0 0.00712087 1.8341e-10 0 -3.04409e-10 0 2.25352e-08
96 3 0.001 0.00603112 0 0.00772058 -3.49863e-10 0 -3.78066e-10 0 2.24615e-08
97 3 0.001 0.00622863 0 0.00831946 -1.73719e-09 0 -5.08429e-10 0 2.24117e-08
98 3 0.001 0.00642765 0 0.00891785 1.55779e-10 0 -3.78727e-10 0 2.2387e-08
99 3 0.001 0.00662715 0 0.00951608 -2.97725e-09 0 4.74293e-10 0 2.23877e-08
100 3 0.001 0.00682611 0 0.0101145 3.02507e-10 0 -7.34797e-10 0 2.24138e-08
101 3 0.001 0.00702351 0 0.0107134 4.72675e-10 0 -3.42212e-10 0 2.24649e-08
102 3 0.001 0.00721833 0 0.0113132 -6.25651e-11 0 -8.90493e-10 0 2.25399e-08
103 3 0.001 0.00740955 0 0.0119141 -4.71887e-09 0 7.45066e-10 0 2.26374e-08
104 3 0.001 0.00759618 0 0.0125164 2.02977e-09 0 -1.17348e-09 0 2.27557e-08
105 3 0.001 0.00777724 0 0.0131205 -9.46266e-10 0 -3.8392e-10 0 2.28922e-08
106 3 0.001 0.00795178 0 0.0137264 2.31425e-09 0 -7.92717e-10 0 2.30445e-08
107 3 0.001 0.00811886 0 0.0143344 -3.87235e-09 0 1.98705e-10 0 2.32093e-08
108 3 0.001 0.00827757 0 0.0149447 -2.07667e-09 0 -3.62835e-10 0 2.33833e-08
109 3 0.001 0.00842707 0 0.0155573 4.51908e-09 0 -1.2064e-09 0 2.3563e-08
110 3 0.001 0.00856651 0 0.0161722 -4.34515e-09 0 2.841e-10 0 2.37446e-08
111 3 0.001 0.00869513 0 0.0167895 4.13481e-09 0 -1.40696e-09 0 2.39241e-08
112 3 0.001 0.00881219 0 0.017409 -6.14811e-09 0 3.93475e-10 0 2.40976e-08
113 3 0.001 0.00891705 0 0.0180308 4.50105e-09 0 -1.5417e-09 0 2.42613e-08
114 3 0.001 0.00900908 0 0.0186545 -4.10148e-09 0 4.40799e-10 0 2.44104e-08
115 3 0.001 0.00908777 0 0.0192801 4.16203e-09 0 -1.0803e-09 0 2.45157e-08
116 3 0.001 0.00915264 0 0.0199072 -4.8224e-09 0 -2.88185e-10 0 2.45598e-08
117 3 0.001 0.00920328 0 0.0205357 2.43849e-09 0 -6.24993e-10 0 2.45758e-08
118 3 0.001 0.00923928 0 0.0211651 -1.7077e-09 0 -8.48833e-10 0 2.46135e-08
119 3 0.001 0.00926016 0 0.0217953 2.10999e-09 0 -3.06226e-10 0 2.47202e-08
120 3 0.001 0.00926539 0 0.0224257 -3.04809e-09 0 -2.22799e-10 0 2.49303e-08
121 3 0.001 0.00925433 0 0.0230561 1.32688e-09 0 -8.22001e-10 0 2.52583e-08
122 3 0.001 0.00922628 0 0.0236859 -7.31515e-10 0 -5.47317e-10 0 2.56938e-08
123 3 0.001 0.00918044 0 0.0243146 -2.27244e-09 0 -1.01129e-09 0 2.61982e-08
124 3 0.001 0.00911597 0 0.0249417 1.89177e-09 0 -1.84142e-10 0 2.67076e-08
125 3 0.001 0.00903208 0 0.0255664 5.29403e-10 0 1.72903e-10 0 2.71509e-08
126 3 0.001 0.00892805 0 0.0261881 -4.04528e-09 0 -1.62876e-09 0 2.75137e-08
127 3 0.001 0.00880328 0 0.026806 5.87148e-10 0 -5.71261e-10 0 2.78193e-08
129 3 0.001 0.00848997 0 0.0280268 2.20375e-09 0 3.35686e-10 0 2.82516e-08
128 3 0.001 0.00865734 0 0.0274191 -4.95219e-11 0 -4.00463e-10 0 2.80675e-08
130 3 0.001 0.00830104 0 0.0286281 -5.68273e-09 0 -1.8331e-09 0 2.83663e-08
131 3 0.001 0.0080906 0 0.0292222 8.3632e-10 0 -4.33636e-10 0 2.84086e-08
132 3 0.001 0.00785885 0 0.0298083 2.11682e-09 0 3.82383e-10 0 2.83771e-08
133 3 0.001 0.00760614 0 0.0303857 -3.75249e-09 0 -1.80916e-09 0 2.82729e-08
134 3 0.001 0.00733297 0 0.0309537 6.63308e-10 0 -2.36803e-10 0 2.80988e-08
136 3 0.001 0.00672788 0 0.0320594 3.36504e-09 0 1.92778e-09 0 2.7562e-08
137 3 0.001 0.00639755 0 0.0325962 -5.32861e-09 0 -3.99633e-09 0 2.7214e-08
135 3 0.001 0.00703997 0 0.0315118 -2.43566e-09 0 -1.26972e-09 0 2.78596e-08
140 3 0.001 0.00530703 0 0.0341405 2.98703e-09 0 2.31812e-09 0 2.59629e-08
138 3 0.001 0.00604994 0 0.0331221 2.85375e-09 0 1.97468e-09 0 2.68247e-08
139 3 0.001 0.00568607 0 0.0336368 -2.9293e-09 0 -2.46316e-09 0 2.64041e-08
141 3 0.001 0.00491394 0 0.0346334 -4.15857e-09 0 -3.10346e-09 0 2.55115e-08
142 3 0.001 0.00450798 0 0.0351157 7.32539e-11 0 -5.5096e-10 0 2.50605e-08
143 3 0.001 0.00409034 0 0.035588 2.27453e-09 0 2.22022e-09 0 2.46199e-08
144 3 0.001 0.0036622 0 0.0360509 -3.51322e-09 0 -3.39749e-09 0 2.41994e-08
145 3 0.001 0.00322479 0 0.036505 3.02764e-09 0 2.59496e-09 0 2.38074e-08
146 3 0.001 0.00277929 0 0.0369512 -4.62761e-09 0 -4.11176e-09 0 2.34519e-08
148 3 0.001 0.00186878 0 0.0378238 -2.02834e-09 0 -2.38901e-09 0 2.28762e-08
149 3 0.001 0.0014061 0 0.0382522 4.41589e-10 0 5.51604e-10 0 2.23692e-08
150 3 0.001 0.000939994 0 0.038677 6.37061e-12 0 -2.79215e-10 0 1.72299e-08
147 3 0.001 0.00232689 0 0.0373905 3.68735e-09 0 3.6318e-09 0 2.31396e-08
151 3 0.001 0.000471129 0 0.0390998 -7.68465e-10 0 -1.27504e-10 0 1.24323e-08
2 2 0.001 0 0 0.03952 -0.00655907 0 0.0173663 0 6.19293e-09
