ITEM: TIMESTEP
3400000
ITEM: NUMBER OF ATOMS
151
ITEM: BOX BOUNDS ff ff ff
-1.0000000000000000e-02 1.0000000000000000e-02
-6.0000000000000001e-03 6.0000000000000001e-03
-5.2499999999999998e-02 5.2499999999999998e-02
ITEM: ATOMS id type radius x y z fx fy fz c_bendingE c_stretchingE
1 1 0.001 0 0 -0.0475 -0.00816561 0 -0.0192985 0 9.23177e-09
3 3 0.001 0.000459346 0 -0.0470676 -1.17376e-09 0 1.18431e-09 0 1.85183e-08
4 3 0.001 0.000916402 0 -0.0466327 -5.75077e-10 0 7.61049e-10 0 2.42313e-08
5 3 0.001 0.00137069 0 -0.046196 9.84661e-10 0 -1.16935e-09 0 3.03441e-08
6 3 0.001 0.00182152 0 -0.0457557 1.30915e-09 0 -1.10812e-09 0 3.09308e-08
7 3 0.001 0.00226775 0 -0.0453108 -2.31248e-09 0 2.4598e-09 0 3.12228e-08
8 3 0.001 0.00270824 0 -0.0448602 -1.07169e-10 0 -3.869e-10 0 3.15666e-08
9 3 0.001 0.00314182 0 -0.044403 1.74571e-09 0 -1.78284e-09 0 3.19545e-08
10 3 0.001 0.00356733 0 -0.0439383 -5.19082e-09 0 5.00196e-09 0 3.23775e-08
11 3 0.001 0.00398359 0 -0.0434654 3.73818e-09 0 -2.61334e-09 0 3.28257e-08
12 3 0.001 0.00438946 0 -0.0429835 -1.87404e-09 0 1.87507e-09 0 3.3288e-08
13 3 0.001 0.0047838 0 -0.0424922 3.07447e-09 0 -2.74783e-09 0 3.37529e-08
14 3 0.001 0.0051655 0 -0.041991 -9.80882e-09 0 6.80578e-09 0 3.42082e-08
15 3 0.001 0.00553347 0 -0.0414796 8.80369e-09 0 -6.04627e-09 0 3.46417e-08
16 3 0.001 0.00588671 0 -0.0409581 -8.73694e-09 0 6.59708e-09 0 3.50416e-08
17 3 0.001 0.00622425 0 -0.0404262 2.93747e-09 0 -9.50141e-10 0 3.53965e-08
18 3 0.001 0.00654521 0 -0.0398842 -3.50789e-09 0 2.18715e-09 0 3.56962e-08
19 3 0.001 0.0068488 0 -0.0393323 5.48623e-10 0 -3.50135e-10 0 3.5932e-08
20 3 0.001 0.00713435 0 -0.0387709 -8.57863e-09 0 4.42507e-09 0 3.60968e-08
21 3 0.001 0.0074013 0 -0.0382003 6.6883e-09 0 -1.91527e-09 0 3.61856e-08
22 3 0.001 0.00764921 0 -0.0376213 -1.1015e-08 0 5.75495e-09 0 3.61957e-08
23 3 0.001 0.00787781 0 -0.0370344 8.16615e-09 0 -2.24344e-09 0 3.6127e-08
24 3 0.001 0.00808695 0 -0.0364402 -1.27919e-08 0 4.81185e-09 0 3.59813e-08
25 3 0.001 0.00827665 0 -0.0358396 2.57773e-09 0 -1.27926e-10 0 3.57632e-08
26 3 0.001 0.00844709 0 -0.0352332 -1.61915e-09 0 1.73386e-09 0 3.54791e-08
27 3 0.001 0.00859859 0 -0.0346217 -8.38266e-09 0 3.27896e-09 0 3.51375e-08
28 3 0.001 0.00873164 0 -0.034006 8.34127e-09 0 -1.80378e-10 0 3.47481e-08
29 3 0.001 0.00884687 0 -0.0333867 -1.44437e-08 0 3.96385e-09 0 3.43221e-08
30 3 0.001 0.00894505 0 -0.0327644 7.72354e-09 0 8.18512e-11 0 3.38712e-08
31 3 0.001 0.00902711 0 -0.0321398 -4.23511e-09 0 1.79682e-09 0 3.34021e-08
32 3 0.001 0.00909406 0 -0.0315133 -9.62396e-09 0 2.27559e-09 0 3.29051e-08
33 3 0.001 0.00914706 0 -0.0308855 9.3723e-09 0 1.00332e-09 0 3.23904e-08
34 3 0.001 0.0091873 0 -0.0302567 -8.56371e-09 0 2.37109e-09 0 3.18988e-08
35 3 0.001 0.009216 0 -0.0296272 -3.09763e-09 0 1.64449e-09 0 3.14655e-08
36 3 0.001 0.00923435 0 -0.0289974 5.41819e-09 0 1.29993e-09 0 3.11116e-08
37 3 0.001 0.00924345 0 -0.0283673 -1.15208e-08 0 1.54737e-09 0 3.08443e-08
38 3 0.001 0.00924431 0 -0.0277372 6.48638e-09 0 1.64729e-09 0 3.066e-08
39 3 0.001 0.00923782 0 -0.027107 -2.56288e-09 0 1.90859e-09 0 3.05482e-08
40 3 0.001 0.00922476 0 -0.026477 -1.06085e-08 0 1.53856e-09 0 3.04946e-08
41 3 0.001 0.00920577 0 -0.0258471 1.12132e-08 0 2.20228e-09 0 3.0483e-08
42 3 0.001 0.00918139 0 -0.0252174 -1.64324e-08 0 1.00632e-09 0 3.04977e-08
43 3 0.001 0.00915205 0 -0.024588 5.54491e-09 0 1.82571e-09 0 3.05237e-08
44 3 0.001 0.00911812 0 -0.0239587 -3.18924e-09 0 1.64378e-09 0 3.05483e-08
45 3 0.001 0.00907989 0 -0.0233297 -5.83487e-09 0 1.53499e-09 0 3.05611e-08
46 3 0.001 0.00903765 0 -0.022701 1.03608e-10 0 1.86916e-09 0 3.05563e-08
47 3 0.001 0.00899164 0 -0.0220725 -6.78982e-09 0 1.27869e-09 0 3.05362e-08
48 3 0.001 0.00894216 0 -0.0214443 -4.28186e-09 0 1.24119e-09 0 3.05108e-08
49 3 0.001 0.00888951 0 -0.0208163 -1.80158e-10 0 1.74542e-09 0 3.04862e-08
50 3 0.001 0.00883398 0 -0.0201886 -1.05209e-08 0 1.00849e-09 0 3.04632e-08
51 3 0.001 0.00877593 0 -0.0195611 -1.56436e-09 0 1.75994e-09 0 3.04421e-08
52 3 0.001 0.0087157 0 -0.0189339 -8.58278e-09 0 1.03659e-09 0 3.04235e-08
53 3 0.001 0.00865365 0 -0.0183068 -3.5478e-09 0 1.36938e-09 0 3.04079e-08
54 3 0.001 0.00859016 0 -0.0176798 -1.13004e-08 0 6.80208e-10 0 3.03956e-08
55 3 0.001 0.00852559 0 -0.0170529 -5.09487e-11 0 1.84826e-09 0 3.03869e-08
56 3 0.001 0.00846035 0 -0.0164262 -1.48751e-08 0 5.94377e-11 0 3.0382e-08
57 3 0.001 0.00839482 0 -0.0157994 -6.55891e-09 0 9.42749e-10 0 3.03811e-08
58 3 0.001 0.00832938 0 -0.0151727 -5.98992e-09 0 1.00479e-09 0 3.03841e-08
60 3 0.001 0.00820039 0 -0.0139189 -1.09988e-08 0 8.53062e-10 0 3.04015e-08
59 3 0.001 0.00826445 0 -0.0145458 -1.10381e-08 0 7.14196e-10 0 3.03909e-08
61 3 0.001 0.0081376 0 -0.0132919 -6.12432e-09 0 8.50415e-10 0 3.04156e-08
62 3 0.001 0.00807645 0 -0.0126647 -1.45336e-08 0 -7.97058e-11 0 3.04328e-08
63 3 0.001 0.00801731 0 -0.0120373 -1.24938e-08 0 3.65934e-10 0 3.04528e-08
64 3 0.001 0.00796054 0 -0.0114097 -5.37283e-09 0 1.0437e-09 0 3.04749e-08
65 3 0.001 0.00790647 0 -0.0107819 -1.82592e-08 0 -7.0922e-11 0 3.04988e-08
66 3 0.001 0.00785543 0 -0.0101538 -1.45294e-08 0 5.12616e-11 0 3.05239e-08
67 3 0.001 0.00780773 0 -0.00952545 -6.26557e-09 0 6.40734e-10 0 3.05495e-08
68 3 0.001 0.00776365 0 -0.00889684 -1.79172e-08 0 -2.56022e-10 0 3.0575e-08
69 3 0.001 0.00772346 0 -0.00826796 -1.23736e-08 0 4.48369e-12 0 3.05999e-08
70 3 0.001 0.00768741 0 -0.00763884 -1.94745e-08 0 -1.86567e-10 0 3.06235e-08
71 3 0.001 0.00765571 0 -0.00700948 -9.06605e-09 0 6.0026e-10 0 3.06452e-08
72 3 0.001 0.00762855 0 -0.00637992 -1.53126e-08 0 4.06343e-10 0 3.06646e-08
73 3 0.001 0.00760611 0 -0.00575016 -1.93462e-08 0 -1.2551e-10 0 3.06811e-08
74 3 0.001 0.0075885 0 -0.00512026 -1.31257e-08 0 -4.26774e-10 0 3.06944e-08
75 3 0.001 0.00757585 0 -0.00449023 -1.09491e-08 0 -1.78992e-10 0 3.07042e-08
76 3 0.001 0.00756823 0 -0.00386013 -2.09386e-08 0 1.23046e-10 0 3.07101e-08
77 3 0.001 0.00756569 0 -0.00322998 -1.37627e-08 0 3.68041e-10 0 3.07121e-08
78 3 0.001 0.00756823 0 -0.00259984 -1.4998e-08 0 2.13854e-10 0 3.07101e-08
79 3 0.001 0.00757585 0 -0.00196973 -1.70613e-08 0 -2.25954e-10 0 3.07042e-08
80 3 0.001 0.0075885 0 -0.00133971 -9.51275e-09 0 -4.32702e-10 0 3.06945e-08
81 3 0.001 0.0076061 0 -0.000709804 -2.54129e-08 0 3.46952e-10 0 3.06812e-08
82 3 0.001 0.00762855 0 -8.00519e-05 -6.59037e-09 0 -1.19105e-10 0 3.06647e-08
83 3 0.001 0.0076557 0 0.000549516 -1.66306e-08 0 2.54672e-10 0 3.06453e-08
84 3 0.001 0.0076874 0 0.00117887 -1.47235e-08 0 -5.95214e-11 0 3.06236e-08
85 3 0.001 0.00772345 0 0.001808 -1.61615e-08 0 -2.92712e-11 0 3.06e-08
86 3 0.001 0.00776364 0 0.00243687 -1.01763e-08 0 -4.38221e-10 0 3.05752e-08
87 3 0.001 0.00780771 0 0.00306549 -1.50717e-08 0 -2.08464e-10 0 3.05496e-08
88 3 0.001 0.00785542 0 0.00369384 -1.7969e-08 0 1.72446e-10 0 3.0524e-08
89 3 0.001 0.00790646 0 0.00432193 -2.72879e-09 0 -9.2521e-10 0 3.0499e-08
90 3 0.001 0.00796052 0 0.00494977 -2.1097e-08 0 8.29048e-10 0 3.04751e-08
91 3 0.001 0.0080173 0 0.00557737 -3.71967e-09 0 -1.16931e-09 0 3.04529e-08
92 3 0.001 0.00807644 0 0.00620475 -1.57102e-08 0 -4.68295e-10 0 3.0433e-08
93 3 0.001 0.00813758 0 0.00683194 -8.96673e-09 0 -9.00509e-10 0 3.04158e-08
94 3 0.001 0.00820037 0 0.00745897 -1.09799e-08 0 -1.85026e-10 0 3.04018e-08
95 3 0.001 0.00826443 0 0.00808587 -4.2493e-09 0 -7.43536e-10 0 3.03912e-08
96 3 0.001 0.00832937 0 0.00871269 -1.9797e-08 0 3.09975e-10 0 3.03843e-08
97 3 0.001 0.0083948 0 0.00933945 7.48295e-09 0 -2.88579e-09 0 3.03813e-08
98 3 0.001 0.00846033 0 0.0099662 -2.30505e-08 0 4.10171e-10 0 3.03823e-08
99 3 0.001 0.00852558 0 0.010593 4.99806e-09 0 -2.28501e-09 0 3.03871e-08
100 3 0.001 0.00859014 0 0.0112198 -1.74546e-08 0 2.97639e-10 0 3.03959e-08
101 3 0.001 0.00865364 0 0.0118468 1.70593e-09 0 -1.80385e-09 0 3.04082e-08
102 3 0.001 0.00871569 0 0.0124739 -4.95308e-09 0 -1.38461e-09 0 3.04238e-08
103 3 0.001 0.00877592 0 0.0131012 -1.3446e-08 0 -7.20119e-10 0 3.04424e-08
104 3 0.001 0.00883397 0 0.0137287 -3.73271e-10 0 -1.92297e-09 0 3.04635e-08
105 3 0.001 0.00888949 0 0.0143564 -1.18079e-09 0 -1.49945e-09 0 3.04866e-08
106 3 0.001 0.00894215 0 0.0149843 -1.03066e-08 0 -7.85682e-10 0 3.05111e-08
107 3 0.001 0.00899163 0 0.0156125 1.32918e-09 0 -2.01093e-09 0 3.05365e-08
108 3 0.001 0.00903764 0 0.016241 -2.57247e-09 0 -1.75872e-09 0 3.05567e-08
109 3 0.001 0.00907988 0 0.0168698 -6.43017e-09 0 -1.40871e-09 0 3.05615e-08
110 3 0.001 0.00911811 0 0.0174988 -2.77687e-09 0 -1.61973e-09 0 3.05487e-08
111 3 0.001 0.00915205 0 0.018128 -6.58546e-10 0 -1.76155e-09 0 3.05242e-08
112 3 0.001 0.00918139 0 0.0187575 -5.91467e-10 0 -1.70659e-09 0 3.04981e-08
113 3 0.001 0.00920577 0 0.0193872 -6.25432e-09 0 -1.42989e-09 0 3.04834e-08
114 3 0.001 0.00922476 0 0.020017 2.5959e-09 0 -1.82651e-09 0 3.0495e-08
115 3 0.001 0.00923782 0 0.0206471 -7.84647e-09 0 -1.65879e-09 0 3.05487e-08
116 3 0.001 0.00924431 0 0.0212772 2.87673e-09 0 -1.6071e-09 0 3.06604e-08
117 3 0.001 0.00924345 0 0.0219073 -2.22983e-09 0 -1.72785e-09 0 3.08447e-08
118 3 0.001 0.00923436 0 0.0225374 -4.78288e-09 0 -1.84044e-09 0 3.11121e-08
119 3 0.001 0.00921601 0 0.0231673 3.39675e-09 0 -1.47349e-09 0 3.1466e-08
120 3 0.001 0.00918731 0 0.0237967 -9.21338e-09 0 -2.05211e-09 0 3.18992e-08
121 3 0.001 0.00914707 0 0.0244255 5.54957e-09 0 -1.03983e-09 0 3.23909e-08
122 3 0.001 0.00909408 0 0.0250533 -6.40055e-09 0 -2.29496e-09 0 3.29056e-08
123 3 0.001 0.00902712 0 0.0256798 -3.87277e-09 0 -2.02607e-09 0 3.34026e-08
124 3 0.001 0.00894508 0 0.0263044 5.26004e-09 0 -3.09196e-10 0 3.38718e-08
127 3 0.001 0.00859862 0 0.0281618 -1.01935e-08 0 -3.90076e-09 0 3.51382e-08
126 3 0.001 0.00873167 0 0.027546 7.22652e-09 0 4.80253e-11 0 3.47488e-08
125 3 0.001 0.00884689 0 0.0269267 -1.24175e-08 0 -3.32853e-09 0 3.43227e-08
128 3 0.001 0.00844712 0 0.0287732 3.90255e-09 0 -1.2084e-10 0 3.54799e-08
129 3 0.001 0.00827669 0 0.0293796 -6.90151e-09 0 -2.78314e-09 0 3.5764e-08
130 3 0.001 0.00808698 0 0.0299803 8.50338e-10 0 -6.6535e-10 0 3.59822e-08
131 3 0.001 0.00787784 0 0.0305744 -5.99456e-09 0 -3.14433e-09 0 3.61278e-08
132 3 0.001 0.00764925 0 0.0311613 -1.14122e-09 0 -1.47545e-09 0 3.61967e-08
135 3 0.001 0.00684884 0 0.0328723 -2.79648e-09 0 -1.85021e-09 0 3.5933e-08
133 3 0.001 0.00740133 0 0.0317404 -1.58991e-09 0 -1.22865e-09 0 3.61865e-08
134 3 0.001 0.00713439 0 0.0323109 -1.68278e-09 0 -8.55415e-10 0 3.60977e-08
136 3 0.001 0.00654524 0 0.0334242 -8.28519e-10 0 -1.15999e-09 0 3.56972e-08
137 3 0.001 0.00622428 0 0.0339662 -4.97223e-09 0 -3.88847e-09 0 3.53975e-08
140 3 0.001 0.00516553 0 0.035531 4.17151e-09 0 3.04827e-09 0 3.42091e-08
139 3 0.001 0.00553351 0 0.0350197 -6.60035e-09 0 -4.25352e-09 0 3.46427e-08
138 3 0.001 0.00588674 0 0.0344981 4.39382e-09 0 2.83626e-09 0 3.50426e-08
142 3 0.001 0.00438949 0 0.0365235 1.15257e-09 0 2.29536e-10 0 3.3289e-08
141 3 0.001 0.00478383 0 0.0360322 -4.48213e-09 0 -4.00096e-09 0 3.37538e-08
143 3 0.001 0.00398362 0 0.0370054 -7.92122e-10 0 -6.64469e-10 0 3.28266e-08
147 3 0.001 0.00226777 0 0.0388508 -2.1593e-10 0 -5.46264e-10 0 3.12237e-08
144 3 0.001 0.00356735 0 0.0374784 4.35103e-11 0 5.11715e-10 0 3.23784e-08
145 3 0.001 0.00314184 0 0.037943 -1.642e-09 0 -1.23718e-09 0 3.19554e-08
146 3 0.001 0.00270826 0 0.0384002 -1.95882e-10 0 -9.65707e-11 0 3.15675e-08
148 3 0.001 0.00182153 0 0.0392957 2.37538e-09 0 1.89797e-09 0 3.09316e-08
149 3 0.001 0.0013707 0 0.039736 -4.86601e-09 0 -5.21549e-09 0 3.03449e-08
150 3 0.001 0.000916408 0 0.0401727 4.6663e-09 0 5.18632e-09 0 2.4232e-08
151 3 0.001 0.00045935 0 0.0406076 -2.99073e-09 0 -2.60342e-09 0 1.85189e-08
2 2 0.001 0 0 0.04104 -0.0081658 0 0.0192988 0 9.2321e-09
