ITEM: TIMESTEP
6900000
ITEM: NUMBER OF ATOMS
151
ITEM: BOX BOUNDS ff ff ff
-1.0000000000000000e-02 1.0000000000000000e-02
-6.0000000000000001e-03 6.0000000000000001e-03
-5.2499999999999998e-02 5.2499999999999998e-02
ITEM: ATOMS id type radius x y z fx fy fz c_bendingE c_stretchingE
1 1 0.001 0 0 -0.0475 -0.00364973 0 -0.0152245 0 2.6354e-09
3 3 0.001 0.000500922 0 -0.0471146 1.49764e-10 0 -1.87215e-10 0 5.31068e-09
4 3 0.001 0.000999459 0 -0.0467262 -3.596e-10 0 4.4915e-10 0 8.69539e-09
5 3 0.001 0.00149508 0 -0.0463351 5.70916e-10 0 -7.16064e-10 0 1.2344e-08
6 3 0.001 0.00198707 0 -0.0459395 -6.94369e-10 0 8.64007e-10 0 1.27662e-08
7 3 0.001 0.00247419 0 -0.045538 5.79174e-10 0 -6.92032e-10 0 1.30307e-08
8 3 0.001 0.00295518 0 -0.0451292 -1.65711e-10 0 2.00941e-10 0 1.33488e-08
9 3 0.001 0.00342872 0 -0.0447118 -3.31098e-10 0 3.53504e-10 0 1.37172e-08
10 3 0.001 0.00389346 0 -0.0442847 7.73647e-10 0 -8.12181e-10 0 1.41315e-08
11 3 0.001 0.004348 0 -0.0438468 -9.81136e-10 0 9.88642e-10 0 1.45865e-08
12 3 0.001 0.00479091 0 -0.0433972 7.18438e-10 0 -7.28926e-10 0 1.50758e-08
13 3 0.001 0.00522071 0 -0.0429351 -2.47003e-10 0 2.53591e-10 0 1.55919e-08
14 3 0.001 0.00563592 0 -0.0424599 -2.09432e-10 0 1.77885e-10 0 1.61264e-08
15 3 0.001 0.00603502 0 -0.0419711 6.35787e-10 0 -4.71326e-10 0 1.66696e-08
16 3 0.001 0.00641651 0 -0.0414685 -7.36424e-10 0 5.24844e-10 0 1.7211e-08
17 3 0.001 0.00677889 0 -0.0409521 4.64379e-10 0 -3.61021e-10 0 1.77396e-08
18 3 0.001 0.0071207 0 -0.0404218 -1.24902e-10 0 7.38709e-11 0 1.82438e-08
19 3 0.001 0.00744054 0 -0.039878 -1.28292e-10 0 9.30073e-11 0 1.87118e-08
20 3 0.001 0.0077371 0 -0.0393212 7.14979e-11 0 2.50903e-12 0 1.91325e-08
21 3 0.001 0.00800913 0 -0.0387521 2.26072e-10 0 -7.86634e-11 0 1.94951e-08
22 3 0.001 0.00825554 0 -0.0381714 -3.70283e-10 0 1.03205e-10 0 1.97902e-08
23 3 0.001 0.00847536 0 -0.0375802 3.09679e-10 0 -1.59872e-10 0 2.001e-08
24 3 0.001 0.00866779 0 -0.0369795 -3.41829e-10 0 1.0489e-10 0 2.01483e-08
25 3 0.001 0.0088322 0 -0.0363706 6.25673e-10 0 -8.81415e-11 0 2.02013e-08
26 3 0.001 0.00896815 0 -0.0357546 -5.76625e-10 0 1.43051e-10 0 2.01676e-08
27 3 0.001 0.00907542 0 -0.0351331 -2.67186e-11 0 -6.85691e-11 0 2.00246e-08
28 3 0.001 0.00915396 0 -0.0345072 5.9131e-10 0 -8.8501e-11 0 1.97643e-08
29 3 0.001 0.00920393 0 -0.0338784 -7.78599e-10 0 5.06946e-11 0 1.94545e-08
30 3 0.001 0.00922557 0 -0.033248 1.05163e-09 0 3.06963e-11 0 1.91855e-08
31 3 0.001 0.00921921 0 -0.0326172 -1.19756e-09 0 -3.5951e-11 0 1.90022e-08
32 3 0.001 0.00918524 0 -0.0319872 7.3389e-10 0 1.59917e-12 0 1.88907e-08
33 3 0.001 0.00912404 0 -0.0313594 -1.30314e-10 0 -2.70882e-11 0 1.87867e-08
34 3 0.001 0.0090361 0 -0.0307347 3.67426e-10 0 8.95331e-11 0 1.86075e-08
35 3 0.001 0.00892199 0 -0.0301142 -9.33453e-10 0 -1.92816e-10 0 1.8334e-08
36 3 0.001 0.00878244 0 -0.029499 1.12084e-09 0 2.56816e-10 0 1.80001e-08
37 3 0.001 0.00861833 0 -0.0288898 -6.61876e-10 0 -2.1761e-10 0 1.76221e-08
39 3 0.001 0.00822055 0 -0.0276925 1.60825e-10 0 6.05243e-11 0 1.67702e-08
40 3 0.001 0.00798923 0 -0.0271054 -8.77588e-11 0 -3.23334e-11 0 1.63151e-08
38 3 0.001 0.00843066 0 -0.0282874 1.28419e-10 0 2.09112e-11 0 1.7209e-08
42 3 0.001 0.00746823 0 -0.025956 -3.7145e-10 0 -2.31008e-10 0 1.53928e-08
41 3 0.001 0.007738 0 -0.0265265 1.87664e-10 0 6.3433e-11 0 1.58529e-08
45 3 0.001 0.00656204 0 -0.0242941 7.52317e-10 0 4.3964e-10 0 1.41042e-08
44 3 0.001 0.00687878 0 -0.02484 -5.49585e-10 0 -3.22786e-10 0 1.45112e-08
43 3 0.001 0.00718134 0 -0.0253939 5.48083e-10 0 2.71983e-10 0 1.4943e-08
47 3 0.001 0.005892 0 -0.0232243 7.82326e-10 0 4.69457e-10 0 1.33881e-08
46 3 0.001 0.00623262 0 -0.0237557 -9.22583e-10 0 -6.12313e-10 0 1.37282e-08
48 3 0.001 0.00554169 0 -0.0226991 3.5797e-11 0 3.39461e-12 0 1.30884e-08
50 3 0.001 0.00481793 0 -0.0216647 1.10377e-09 0 7.73162e-10 0 1.26233e-08
49 3 0.001 0.00518317 0 -0.0221796 -7.70607e-10 0 -5.7659e-10 0 1.28325e-08
51 3 0.001 0.00444742 0 -0.0211535 -9.57048e-10 0 -7.24179e-10 0 1.24629e-08
54 3 0.001 0.0033189 0 -0.0196325 7.18221e-11 0 3.37153e-11 0 1.22876e-08
52 3 0.001 0.00407312 0 -0.0206451 7.23612e-10 0 4.79799e-10 0 1.23529e-08
53 3 0.001 0.00369646 0 -0.0201385 -2.30109e-10 0 -2.24784e-10 0 1.22943e-08
56 3 0.001 0.00256684 0 -0.0186183 -1.37699e-10 0 -1.45846e-10 0 1.24299e-08
55 3 0.001 0.00294188 0 -0.0191261 4.63419e-11 0 8.51086e-12 0 1.2333e-08
59 3 0.001 0.00146812 0 -0.0170758 4.09767e-10 0 2.46093e-10 0 1.30186e-08
58 3 0.001 0.0018285 0 -0.0175941 -1.52639e-10 0 -1.61887e-10 0 1.27745e-08
57 3 0.001 0.00219522 0 -0.018108 3.4791e-10 0 1.89967e-10 0 1.25775e-08
62 3 0.001 0.000439901 0 -0.0154859 -1.39591e-09 0 -9.23684e-10 0 1.40049e-08
61 3 0.001 0.00077233 0 -0.0160224 1.71694e-09 0 1.05125e-09 0 1.36376e-08
60 3 0.001 0.00111557 0 -0.0165522 -1.03112e-09 0 -7.00553e-10 0 1.33075e-08
63 3 0.001 0.000119777 0 -0.0149419 8.87354e-10 0 4.79922e-10 0 1.44045e-08
64 3 0.001 -0.000186545 0 -0.0143901 -4.1808e-10 0 -2.42558e-10 0 1.48306e-08
65 3 0.001 -0.000477582 0 -0.0138301 4.91809e-10 0 2.09471e-10 0 1.52765e-08
66 3 0.001 -0.000751868 0 -0.0132618 -2.06323e-10 0 -1.50509e-10 0 1.57348e-08
67 3 0.001 -0.00100797 0 -0.012685 2.33677e-10 0 6.27152e-11 0 1.61972e-08
68 3 0.001 -0.00124451 0 -0.0121 -2.40055e-10 0 -9.2593e-11 0 1.6655e-08
69 3 0.001 -0.00146016 0 -0.0115071 5.24148e-10 0 1.69505e-10 0 1.7099e-08
70 3 0.001 -0.00165368 0 -0.0109065 -1.70055e-10 0 -1.08978e-10 0 1.75195e-08
72 3 0.001 -0.00196983 0 -0.00968522 1.00947e-09 0 1.86038e-10 0 1.82534e-08
71 3 0.001 -0.00182391 0 -0.010299 -2.23162e-10 0 -9.0521e-11 0 1.79073e-08
73 3 0.001 -0.00209052 0 -0.009066 -1.12698e-09 0 -1.70288e-10 0 1.85493e-08
74 3 0.001 -0.00218521 0 -0.0084423 8.86044e-10 0 1.5218e-10 0 1.87877e-08
75 3 0.001 -0.00225329 0 -0.00781515 -4.96989e-10 0 -8.84237e-11 0 1.89626e-08
76 3 0.001 -0.00229432 0 -0.00718566 1.26925e-09 0 -2.00188e-11 0 1.90695e-08
77 3 0.001 -0.00230803 0 -0.00655498 -1.76912e-09 0 8.29635e-12 0 1.91054e-08
78 3 0.001 -0.00229433 0 -0.00592431 1.74092e-09 0 4.55261e-12 0 1.90695e-08
79 3 0.001 -0.0022533 0 -0.00529482 -9.46601e-10 0 1.1271e-10 0 1.89627e-08
80 3 0.001 -0.00218522 0 -0.00466766 4.72507e-10 0 -8.5469e-11 0 1.87878e-08
81 3 0.001 -0.00209053 0 -0.00404396 4.09137e-10 0 -1.37192e-10 0 1.85494e-08
82 3 0.001 -0.00196985 0 -0.00342474 -7.94011e-10 0 2.00603e-10 0 1.82535e-08
83 3 0.001 -0.00182393 0 -0.00281096 7.84153e-10 0 -1.04753e-10 0 1.79075e-08
84 3 0.001 -0.0016537 0 -0.00220344 -1.73313e-10 0 9.71555e-11 0 1.75197e-08
85 3 0.001 -0.00146019 0 -0.00160291 1.92431e-10 0 -9.11997e-11 0 1.70991e-08
86 3 0.001 -0.00124454 0 -0.00100993 -8.92424e-11 0 1.61067e-11 0 1.66552e-08
87 3 0.001 -0.00100801 0 -0.000424933 -5.93824e-11 0 6.7523e-11 0 1.61974e-08
88 3 0.001 -0.000751904 0 0.000151801 7.83264e-10 0 -2.98777e-10 0 1.5735e-08
89 3 0.001 -0.00047762 0 0.000720149 -9.52055e-10 0 5.51653e-10 0 1.52767e-08
90 3 0.001 -0.000186586 0 0.00128014 9.95789e-10 0 -5.13459e-10 0 1.48308e-08
91 3 0.001 0.000119735 0 0.00183196 -7.39576e-10 0 4.21024e-10 0 1.44047e-08
92 3 0.001 0.000439857 0 0.00237592 9.5069e-10 0 -5.45143e-10 0 1.40051e-08
93 3 0.001 0.000772286 0 0.00291249 -1.12996e-09 0 7.90066e-10 0 1.36378e-08
94 3 0.001 0.00111552 0 0.00344224 1.28778e-09 0 -7.70865e-10 0 1.33077e-08
95 3 0.001 0.00146807 0 0.00396587 -8.29738e-10 0 5.75663e-10 0 1.30188e-08
96 3 0.001 0.00182845 0 0.00448416 7.86089e-10 0 -5.42783e-10 0 1.27746e-08
97 3 0.001 0.00219518 0 0.00499801 -9.45385e-10 0 7.40708e-10 0 1.25777e-08
98 3 0.001 0.00256679 0 0.00550835 9.65264e-10 0 -6.49133e-10 0 1.24301e-08
99 3 0.001 0.00294183 0 0.00601619 -3.43153e-10 0 3.01391e-10 0 1.23331e-08
100 3 0.001 0.00331886 0 0.00652256 2.33072e-12 0 1.67216e-11 0 1.22878e-08
101 3 0.001 0.00369642 0 0.00702854 5.6751e-11 0 -1.26352e-11 0 1.22944e-08
102 3 0.001 0.00407307 0 0.00753519 2.67178e-10 0 -1.60692e-10 0 1.2353e-08
103 3 0.001 0.00444738 0 0.00804357 -5.36901e-10 0 4.27354e-10 0 1.2463e-08
104 3 0.001 0.00481788 0 0.00855471 1.02e-09 0 -6.86624e-10 0 1.26234e-08
105 3 0.001 0.00518313 0 0.00906961 -1.47662e-09 0 1.07187e-09 0 1.28327e-08
106 3 0.001 0.00554165 0 0.00958919 1.96111e-09 0 -1.31619e-09 0 1.30885e-08
107 3 0.001 0.00589196 0 0.0101143 -1.92551e-09 0 1.28843e-09 0 1.33883e-08
108 3 0.001 0.00623258 0 0.0106457 1.52787e-09 0 -9.51922e-10 0 1.37284e-08
109 3 0.001 0.00656201 0 0.0111841 -1.04938e-09 0 6.76117e-10 0 1.41044e-08
110 3 0.001 0.00687875 0 0.0117301 7.0084e-10 0 -3.79593e-10 0 1.45114e-08
111 3 0.001 0.00718131 0 0.012284 -6.52884e-11 0 5.37517e-11 0 1.49432e-08
112 3 0.001 0.0074682 0 0.0128461 -4.18377e-10 0 2.23574e-10 0 1.5393e-08
113 3 0.001 0.00773798 0 0.0134166 6.75571e-10 0 -2.96568e-10 0 1.58532e-08
114 3 0.001 0.00798921 0 0.0139954 -7.63016e-10 0 3.28928e-10 0 1.63153e-08
115 3 0.001 0.00822054 0 0.0145825 6.97766e-10 0 -2.52886e-10 0 1.67705e-08
116 3 0.001 0.00843064 0 0.0151774 -5.49886e-11 0 4.66577e-11 0 1.72093e-08
117 3 0.001 0.00861832 0 0.0157798 -4.68415e-10 0 1.43852e-10 0 1.76224e-08
118 3 0.001 0.00878243 0 0.016389 5.84781e-10 0 -1.46417e-10 0 1.80004e-08
119 3 0.001 0.00892198 0 0.0170043 -6.02149e-10 0 1.19318e-10 0 1.83344e-08
120 3 0.001 0.0090361 0 0.0176247 7.7168e-10 0 -1.07317e-10 0 1.86078e-08
121 3 0.001 0.00912404 0 0.0182494 -1.00574e-09 0 1.34805e-10 0 1.87871e-08
122 3 0.001 0.00918524 0 0.0188773 1.41391e-09 0 -8.38449e-11 0 1.88911e-08
123 3 0.001 0.00921922 0 0.0195072 -1.50528e-09 0 3.7831e-11 0 1.90026e-08
124 3 0.001 0.00922557 0 0.020138 1.02996e-09 0 -1.60247e-11 0 1.91859e-08
125 3 0.001 0.00920394 0 0.0207684 -3.15727e-10 0 8.47899e-12 0 1.94549e-08
126 3 0.001 0.00915398 0 0.0213972 9.02258e-11 0 2.18495e-11 0 1.97648e-08
127 3 0.001 0.00907544 0 0.0220231 -1.46842e-10 0 -1.61705e-11 0 2.00251e-08
128 3 0.001 0.00896817 0 0.0226447 1.38914e-10 0 1.71322e-11 0 2.01682e-08
129 3 0.001 0.00883222 0 0.0232606 -4.58643e-11 0 -2.33195e-11 0 2.02019e-08
131 3 0.001 0.00847538 0 0.0244702 9.34692e-10 0 3.38445e-10 0 2.00106e-08
132 3 0.001 0.00825556 0 0.0250615 -9.22039e-10 0 -3.51719e-10 0 1.97909e-08
130 3 0.001 0.00866781 0 0.0238695 -3.86768e-10 0 -1.07007e-10 0 2.01489e-08
133 3 0.001 0.00800916 0 0.0256421 5.46716e-10 0 2.32377e-10 0 1.94958e-08
134 3 0.001 0.00773712 0 0.0262113 -4.18978e-10 0 -2.1531e-10 0 1.91332e-08
137 3 0.001 0.00677891 0 0.0278421 -7.13975e-11 0 -4.14261e-11 0 1.77403e-08
135 3 0.001 0.00744057 0 0.026768 3.53013e-10 0 2.02605e-10 0 1.87125e-08
136 3 0.001 0.00712073 0 0.0273118 2.39122e-11 0 1.77702e-11 0 1.82445e-08
138 3 0.001 0.00641653 0 0.0283586 -5.60391e-10 0 -4.31763e-10 0 1.72117e-08
139 3 0.001 0.00603504 0 0.0288612 1.1095e-09 0 9.09464e-10 0 1.66702e-08
140 3 0.001 0.00563594 0 0.0293499 -1.0199e-09 0 -8.64705e-10 0 1.6127e-08
141 3 0.001 0.00522074 0 0.0298251 5.35419e-10 0 4.27532e-10 0 1.55925e-08
142 3 0.001 0.00479093 0 0.0302872 -2.44245e-10 0 -2.21749e-10 0 1.50764e-08
143 3 0.001 0.00434802 0 0.0307368 3.59418e-10 0 4.28733e-10 0 1.4587e-08
145 3 0.001 0.00342874 0 0.0316018 3.73949e-10 0 3.63855e-10 0 1.37177e-08
146 3 0.001 0.0029552 0 0.0320192 -4.93028e-11 0 -1.24558e-10 0 1.33493e-08
147 3 0.001 0.0024742 0 0.032428 -2.93893e-10 0 -3.2944e-10 0 1.30312e-08
144 3 0.001 0.00389348 0 0.0311747 -5.13553e-10 0 -5.36202e-10 0 1.4132e-08
151 3 0.001 0.000500925 0 0.0340046 -2.67959e-10 0 -4.46412e-10 0 5.311e-09
148 3 0.001 0.00198707 0 0.0328295 6.60369e-10 0 9.10922e-10 0 1.27667e-08
149 3 0.001 0.00149509 0 0.0332251 -9.30429e-10 0 -1.12851e-09 0 1.23445e-08
150 3 0.001 0.000999464 0 0.0336162 7.55652e-10 0 9.0231e-10 0 8.6958e-09
2 2 0.001 0 0 0.03439 -0.0036499 0 0.0152248 0 2.63556e-09
