ITEM: TIMESTEP
2100000
ITEM: NUMBER OF ATOMS
151
ITEM: BOX BOUNDS ff ff ff
-1.0000000000000000e-02 1.0000000000000000e-02
-6.0000000000000001e-03 6.0000000000000001e-03
-5.2499999999999998e-02 5.2499999999999998e-02
ITEM: ATOMS id type radius x y z fx fy fz c_bendingE c_stretchingE
1 1 0.001 0 0 -0.0475 -0.00281308 0 -0.0101607 0 1.47678e-09
3 3 0.001 0.000325852 0 -0.0469581 -1.32163e-08 0 -5.98265e-09 0 2.95602e-09
4 3 0.001 0.000650747 0 -0.0464156 -9.36925e-10 0 1.61825e-08 0 5.56765e-09
5 3 0.001 0.00097435 0 -0.0458731 3.75218e-10 0 9.05751e-09 0 8.35692e-09
6 3 0.001 0.0012965 0 -0.0453297 3.96475e-08 0 1.27996e-08 0 8.54504e-09
7 3 0.001 0.00161676 0 -0.0447853 -3.47049e-08 0 2.22773e-08 0 8.56296e-09
8 3 0.001 0.00193464 0 -0.0442395 2.30923e-09 0 3.22161e-09 0 8.58443e-09
9 3 0.001 0.00224968 0 -0.043692 -1.94826e-08 0 -1.27783e-08 0 8.6092e-09
10 3 0.001 0.00256142 0 -0.0431426 -2.71013e-08 0 2.30208e-09 0 8.63695e-09
11 3 0.001 0.00286942 0 -0.0425912 -4.74519e-09 0 -1.68897e-08 0 8.66733e-09
12 3 0.001 0.00317321 0 -0.0420374 -3.90954e-10 0 -1.21036e-08 0 8.69996e-09
13 3 0.001 0.00347237 0 -0.0414811 -2.66987e-08 0 2.23491e-08 0 8.73441e-09
14 3 0.001 0.00376647 0 -0.0409221 1.94701e-08 0 -9.71739e-09 0 8.77026e-09
15 3 0.001 0.00405508 0 -0.0403602 -2.55196e-08 0 4.47417e-08 0 8.80703e-09
16 3 0.001 0.00433781 0 -0.0397954 2.86417e-08 0 -5.26681e-09 0 8.84428e-09
17 3 0.001 0.00461425 0 -0.0392275 -1.5963e-08 0 6.63756e-09 0 8.88154e-09
18 3 0.001 0.00488404 0 -0.0386564 6.33466e-09 0 2.36819e-09 0 8.9183e-09
19 3 0.001 0.00514682 0 -0.0380821 1.0399e-10 0 -3.79501e-09 0 8.95408e-09
20 3 0.001 0.00540224 0 -0.0375044 -3.2094e-09 0 1.00075e-08 0 8.98839e-09
21 3 0.001 0.00564998 0 -0.0369234 1.82054e-08 0 -2.38322e-09 0 9.02076e-09
22 3 0.001 0.00588975 0 -0.0363391 2.84057e-08 0 -9.68322e-09 0 9.05077e-09
23 3 0.001 0.00612127 0 -0.0357514 -1.10598e-09 0 -1.262e-09 0 9.078e-09
24 3 0.001 0.0063443 0 -0.0351605 1.11244e-08 0 -2.56386e-08 0 9.1021e-09
25 3 0.001 0.00655859 0 -0.0345664 4.89229e-08 0 3.78084e-09 0 9.12269e-09
26 3 0.001 0.00676397 0 -0.0339691 1.55343e-08 0 9.1365e-09 0 9.13948e-09
27 3 0.001 0.00696027 0 -0.0333688 1.50355e-08 0 -1.29134e-09 0 9.15227e-09
28 3 0.001 0.00714734 0 -0.0327655 5.71387e-08 0 3.28321e-09 0 9.16086e-09
29 3 0.001 0.00732508 0 -0.0321595 3.09227e-08 0 -3.19385e-08 0 9.16516e-09
30 3 0.001 0.00749343 0 -0.0315507 2.84182e-08 0 -1.24849e-08 0 9.1651e-09
31 3 0.001 0.00765233 0 -0.0309394 4.8235e-08 0 3.25372e-09 0 9.16065e-09
32 3 0.001 0.00780179 0 -0.0303258 4.18396e-08 0 7.90685e-09 0 9.15186e-09
33 3 0.001 0.00794184 0 -0.0297099 6.11997e-08 0 3.26817e-09 0 9.13889e-09
34 3 0.001 0.00807252 0 -0.029092 4.36169e-08 0 -7.18392e-09 0 9.12193e-09
35 3 0.001 0.00819395 0 -0.0284722 3.34741e-08 0 -1.17004e-08 0 9.10122e-09
36 3 0.001 0.00830624 0 -0.0278506 5.42598e-08 0 -4.34678e-08 0 9.07707e-09
37 3 0.001 0.00840957 0 -0.0272275 1.31594e-08 0 -1.50626e-08 0 9.04977e-09
38 3 0.001 0.00850413 0 -0.026603 9.72749e-08 0 -1.76234e-08 0 9.01969e-09
39 3 0.001 0.00859014 0 -0.0259773 8.5427e-10 0 5.25865e-09 0 8.98723e-09
40 3 0.001 0.00866787 0 -0.0253505 8.31094e-08 0 -1.12362e-08 0 8.95287e-09
41 3 0.001 0.00873759 0 -0.0247227 1.31591e-08 0 8.97473e-09 0 8.91705e-09
42 3 0.001 0.00879964 0 -0.0240942 5.89919e-08 0 -1.73274e-08 0 8.88026e-09
43 3 0.001 0.00885436 0 -0.0234649 3.81843e-08 0 -1.77263e-08 0 8.84302e-09
44 3 0.001 0.00890211 0 -0.0228351 2.43673e-08 0 -1.36178e-09 0 8.80577e-09
45 3 0.001 0.00894329 0 -0.0222048 4.2921e-08 0 -8.15127e-09 0 8.76901e-09
46 3 0.001 0.00897832 0 -0.0215742 1.39881e-08 0 -2.04461e-08 0 8.73322e-09
47 3 0.001 0.00900763 0 -0.0209432 4.40399e-08 0 -2.46222e-09 0 8.6987e-09
48 3 0.001 0.0090317 0 -0.020312 1.49744e-08 0 -4.27886e-09 0 8.66502e-09
49 3 0.001 0.00905098 0 -0.0196807 3.42348e-08 0 -2.24762e-08 0 8.63236e-09
50 3 0.001 0.00906597 0 -0.0190492 1.89555e-09 0 1.08299e-08 0 8.60206e-09
51 3 0.001 0.00907715 0 -0.0184177 2.05343e-08 0 -3.94577e-08 0 8.57539e-09
52 3 0.001 0.00908499 0 -0.017786 2.55067e-08 0 -2.59435e-08 0 8.55308e-09
53 3 0.001 0.00908993 0 -0.0171544 5.37424e-09 0 6.12175e-09 0 8.53531e-09
54 3 0.001 0.00909241 0 -0.0165228 -1.68363e-09 0 -2.87067e-08 0 8.52191e-09
55 3 0.001 0.00909282 0 -0.0158911 1.47177e-08 0 9.2723e-09 0 8.51242e-09
56 3 0.001 0.00909152 0 -0.0152594 7.2292e-09 0 1.97559e-08 0 8.50618e-09
57 3 0.001 0.00908884 0 -0.0146278 -4.82249e-09 0 -2.83102e-08 0 8.50262e-09
58 3 0.001 0.00908508 0 -0.0139961 4.31069e-09 0 1.38497e-08 0 8.50104e-09
59 3 0.001 0.00908049 0 -0.0133645 8.33608e-09 0 -3.99403e-09 0 8.50086e-09
60 3 0.001 0.00907531 0 -0.0127329 4.96918e-09 0 -1.48797e-08 0 8.50163e-09
61 3 0.001 0.00906973 0 -0.0121012 -1.35109e-08 0 1.24428e-08 0 8.50294e-09
62 3 0.001 0.00906392 0 -0.0114696 8.83239e-09 0 1.07373e-08 0 8.50449e-09
63 3 0.001 0.00905802 0 -0.010838 -1.15329e-08 0 3.04044e-09 0 8.5061e-09
64 3 0.001 0.00905217 0 -0.0102063 2.73757e-09 0 4.77544e-09 0 8.50764e-09
65 3 0.001 0.00904646 0 -0.00957471 -1.04388e-08 0 -5.19038e-09 0 8.50903e-09
66 3 0.001 0.00904098 0 -0.00894308 1.13935e-08 0 -4.19531e-09 0 8.51024e-09
67 3 0.001 0.0090358 0 -0.00831144 -1.71816e-08 0 -1.90714e-08 0 8.51126e-09
68 3 0.001 0.00903097 0 -0.0076798 1.10856e-08 0 -6.7099e-09 0 8.51209e-09
69 3 0.001 0.00902656 0 -0.00704816 -1.4827e-08 0 6.12661e-09 0 8.51272e-09
70 3 0.001 0.00902258 0 -0.00641651 5.20091e-09 0 -1.60345e-08 0 8.51322e-09
71 3 0.001 0.00901908 0 -0.00578486 8.21153e-09 0 -6.14779e-10 0 8.5136e-09
72 3 0.001 0.00901608 0 -0.00515321 -3.31799e-08 0 -2.02466e-08 0 8.51389e-09
73 3 0.001 0.00901361 0 -0.00452156 2.26807e-08 0 -6.62048e-09 0 8.51411e-09
74 3 0.001 0.00901166 0 -0.00388991 -2.4851e-08 0 -6.74289e-09 0 8.51426e-09
75 3 0.001 0.00901027 0 -0.00325825 1.74286e-08 0 -2.16174e-08 0 8.51438e-09
76 3 0.001 0.00900943 0 -0.00262659 -2.17996e-08 0 1.82569e-08 0 8.51443e-09
77 3 0.001 0.00900915 0 -0.00199494 1.12853e-08 0 -1.50845e-09 0 8.51444e-09
78 3 0.001 0.00900943 0 -0.00136328 -1.08548e-08 0 -2.24797e-08 0 8.51445e-09
79 3 0.001 0.00901027 0 -0.000731622 1.56736e-08 0 1.56992e-08 0 8.5144e-09
80 3 0.001 0.00901166 0 -9.99662e-05 -4.08779e-08 0 6.37276e-10 0 8.51431e-09
81 3 0.001 0.0090136 0 0.000531688 2.92075e-08 0 1.64347e-09 0 8.51417e-09
82 3 0.001 0.00901608 0 0.00116334 -2.11816e-08 0 1.66042e-08 0 8.51396e-09
83 3 0.001 0.00901908 0 0.00179499 -3.21411e-09 0 -2.46287e-09 0 8.51369e-09
84 3 0.001 0.00902257 0 0.00242664 2.14766e-09 0 1.13417e-08 0 8.51332e-09
85 3 0.001 0.00902655 0 0.00305828 -2.66613e-08 0 -1.21131e-08 0 8.51284e-09
86 3 0.001 0.00903096 0 0.00368993 2.72038e-08 0 7.72911e-10 0 8.51222e-09
87 3 0.001 0.00903579 0 0.00432157 -2.24211e-08 0 1.46236e-08 0 8.51141e-09
88 3 0.001 0.00904097 0 0.0049532 4.95963e-09 0 5.74778e-10 0 8.5104e-09
89 3 0.001 0.00904645 0 0.00558484 -1.28463e-08 0 9.67526e-10 0 8.50921e-09
90 3 0.001 0.00905216 0 0.00621647 -1.16271e-08 0 -1.03004e-08 0 8.50783e-09
91 3 0.001 0.00905801 0 0.0068481 8.79478e-09 0 -9.5516e-09 0 8.50631e-09
92 3 0.001 0.00906391 0 0.00747973 -8.53836e-09 0 -1.60985e-08 0 8.50471e-09
93 3 0.001 0.00906972 0 0.00811136 -2.06248e-09 0 -1.68654e-08 0 8.50318e-09
94 3 0.001 0.0090753 0 0.008743 -1.37738e-08 0 1.16907e-08 0 8.50188e-09
95 3 0.001 0.00908049 0 0.00937463 6.05254e-09 0 -1.89905e-10 0 8.50111e-09
96 3 0.001 0.00908508 0 0.0100063 9.16859e-09 0 -1.93072e-08 0 8.50131e-09
97 3 0.001 0.00908884 0 0.0106379 -1.54404e-08 0 2.28799e-08 0 8.50289e-09
98 3 0.001 0.00909152 0 0.0112696 2.15471e-08 0 -2.46024e-08 0 8.50647e-09
99 3 0.001 0.00909283 0 0.0119012 -6.64956e-09 0 -1.36397e-08 0 8.51271e-09
100 3 0.001 0.00909243 0 0.0125329 -5.82801e-09 0 2.43149e-08 0 8.52221e-09
101 3 0.001 0.00908995 0 0.0131645 1.82253e-08 0 -1.11422e-08 0 8.53561e-09
102 3 0.001 0.00908502 0 0.0137962 4.26932e-09 0 2.0573e-08 0 8.5534e-09
103 3 0.001 0.00907719 0 0.0144278 1.83292e-08 0 3.44335e-08 0 8.57571e-09
104 3 0.001 0.00906602 0 0.0150593 -2.26993e-09 0 -1.58042e-08 0 8.60239e-09
105 3 0.001 0.00905104 0 0.0156908 5.67406e-08 0 1.88506e-08 0 8.63271e-09
106 3 0.001 0.00903176 0 0.0163222 -4.03228e-08 0 -2.03406e-09 0 8.66539e-09
107 3 0.001 0.00900771 0 0.0169533 7.52977e-08 0 -1.44679e-09 0 8.6991e-09
108 3 0.001 0.00897841 0 0.0175843 -5.2979e-09 0 1.42295e-08 0 8.73364e-09
110 3 0.001 0.00890222 0 0.0188452 3.36746e-08 0 -1.3297e-09 0 8.80624e-09
109 3 0.001 0.00894339 0 0.018215 3.47397e-08 0 3.11911e-09 0 8.76945e-09
111 3 0.001 0.00885449 0 0.0194751 8.82508e-09 0 1.16135e-08 0 8.84351e-09
112 3 0.001 0.00879979 0 0.0201043 6.09325e-08 0 1.26185e-08 0 8.88078e-09
113 3 0.001 0.00873775 0 0.0207329 1.7374e-10 0 -1.53639e-08 0 8.91759e-09
114 3 0.001 0.00866803 0 0.0213606 9.38419e-08 0 8.65471e-09 0 8.95344e-09
115 3 0.001 0.00859032 0 0.0219875 -1.20839e-08 0 -9.47013e-09 0 8.98783e-09
117 3 0.001 0.00840978 0 0.0232377 3.16391e-08 0 1.37942e-08 0 9.05043e-09
116 3 0.001 0.00850432 0 0.0226132 6.06e-08 0 8.84922e-09 0 9.02031e-09
119 3 0.001 0.00819418 0 0.0244823 1.67063e-08 0 4.89683e-09 0 9.10193e-09
118 3 0.001 0.00830646 0 0.0238608 4.19965e-08 0 3.74185e-08 0 9.07775e-09
120 3 0.001 0.00807276 0 0.0251021 5.4967e-08 0 6.82493e-09 0 9.12267e-09
121 3 0.001 0.00794208 0 0.0257201 3.62458e-08 0 -1.06106e-08 0 9.13965e-09
122 3 0.001 0.00780205 0 0.0263359 1.26574e-08 0 -1.80451e-08 0 9.15265e-09
124 3 0.001 0.0074937 0 0.0275609 1.15781e-08 0 4.39326e-09 0 9.16593e-09
123 3 0.001 0.0076526 0 0.0269496 7.38294e-08 0 -9.64953e-10 0 9.16146e-09
125 3 0.001 0.00732536 0 0.0281696 3.01098e-08 0 2.93314e-08 0 9.166e-09
127 3 0.001 0.00696055 0 0.0293789 1.80148e-08 0 9.33742e-10 0 9.15314e-09
126 3 0.001 0.00714762 0 0.0287757 1.91873e-08 0 -1.63974e-08 0 9.16172e-09
129 3 0.001 0.00655888 0 0.0305765 7.68643e-09 0 -2.16335e-08 0 9.12359e-09
128 3 0.001 0.00676425 0 0.0299793 3.14496e-08 0 -5.01972e-09 0 9.14036e-09
130 3 0.001 0.00634458 0 0.0311707 2.03544e-08 0 2.5388e-08 0 9.10301e-09
131 3 0.001 0.00612155 0 0.0317616 -3.57177e-09 0 -4.23287e-10 0 9.07892e-09
132 3 0.001 0.00589003 0 0.0323492 1.51397e-08 0 5.57635e-09 0 9.05168e-09
133 3 0.001 0.00565025 0 0.0329335 -2.74613e-09 0 -6.05652e-09 0 9.02167e-09
134 3 0.001 0.0054025 0 0.0335145 -1.02065e-08 0 -1.55991e-08 0 8.9893e-09
135 3 0.001 0.00514707 0 0.0340922 2.39193e-08 0 1.13353e-08 0 8.95499e-09
137 3 0.001 0.00461449 0 0.0352377 8.18403e-09 0 5.97491e-09 0 8.88244e-09
136 3 0.001 0.00488429 0 0.0346666 -3.9026e-08 0 -2.52902e-08 0 8.91921e-09
138 3 0.001 0.00433803 0 0.0358056 -6.82355e-09 0 -1.02707e-08 0 8.84517e-09
139 3 0.001 0.0040553 0 0.0363704 -1.08579e-08 0 -3.79596e-08 0 8.80792e-09
140 3 0.001 0.00376667 0 0.0369322 -1.42585e-09 0 -4.1162e-09 0 8.77114e-09
142 3 0.001 0.00317339 0 0.0380475 -2.3403e-08 0 7.20702e-10 0 8.70083e-09
141 3 0.001 0.00347256 0 0.0374912 -9.73414e-09 0 -1.53095e-08 0 8.73528e-09
143 3 0.001 0.00286958 0 0.0386013 -1.09868e-08 0 1.57913e-08 0 8.66819e-09
145 3 0.001 0.0022498 0 0.0397021 -3.30982e-08 0 2.56201e-09 0 8.61005e-09
146 3 0.001 0.00193474 0 0.0402495 -6.5571e-10 0 -6.97212e-09 0 8.58528e-09
144 3 0.001 0.00256157 0 0.0391527 -2.44778e-08 0 -6.4404e-10 0 8.6378e-09
147 3 0.001 0.00161685 0 0.0407953 -4.09454e-09 0 -3.82861e-09 0 8.5638e-09
148 3 0.001 0.00129658 0 0.0413398 -5.78592e-09 0 -3.7406e-08 0 8.54588e-09
150 3 0.001 0.000650784 0 0.0424256 -4.21603e-09 0 -1.90077e-08 0 5.56831e-09
151 3 0.001 0.000325871 0 0.0429681 -1.27346e-09 0 1.16404e-08 0 2.95651e-09
149 3 0.001 0.000974405 0 0.0418831 9.72325e-09 0 -2.44512e-09 0 8.35774e-09
2 2 0.001 0 0 0.04351 -0.00281324 0 0.0101613 0 1.47703e-09
