ITEM: TIMESTEP
2000000
ITEM: NUMBER OF ATOMS
151
ITEM: BOX BOUNDS ff ff ff
-1.0000000000000000e-02 1.0000000000000000e-02
-6.0000000000000001e-03 6.0000000000000001e-03
-5.2499999999999998e-02 5.2499999999999998e-02
ITEM: ATOMS id type radius x y z fx fy fz c_bendingE c_stretchingE
1 1 0.001 0 0 -0.0475 -0.0024793 0 -0.00938452 0 1.12011e-09
3 3 0.001 0.000313028 0 -0.0469504 1.36451e-08 0 1.29712e-08 0 2.24188e-09
4 3 0.001 0.0006252 0 -0.0464004 -1.29112e-08 0 -3.47647e-08 0 4.59718e-09
5 3 0.001 0.000936195 0 -0.0458504 6.09666e-10 0 -2.77794e-08 0 7.11489e-09
6 3 0.001 0.00124589 0 -0.0452997 -1.09679e-08 0 -2.27081e-08 0 7.28477e-09
7 3 0.001 0.00155389 0 -0.0447481 3.77827e-08 0 -3.82277e-08 0 7.29773e-09
8 3 0.001 0.00185977 0 -0.0441953 4.82954e-09 0 2.45533e-08 0 7.31322e-09
9 3 0.001 0.00216311 0 -0.0436411 6.78834e-08 0 -1.37338e-09 0 7.33107e-09
10 3 0.001 0.0024635 0 -0.0430853 2.37333e-08 0 1.42388e-08 0 7.35111e-09
11 3 0.001 0.00276054 0 -0.0425277 2.62655e-08 0 -5.21894e-09 0 7.37314e-09
12 3 0.001 0.00305382 0 -0.0419681 9.44236e-09 0 -7.11948e-08 0 7.39694e-09
13 3 0.001 0.00334296 0 -0.0414064 1.90069e-09 0 -4.135e-08 0 7.42222e-09
14 3 0.001 0.00362756 0 -0.0408424 3.1007e-08 0 -3.84428e-08 0 7.4486e-09
15 3 0.001 0.00390726 0 -0.0402759 -7.89135e-09 0 -3.99486e-08 0 7.47583e-09
16 3 0.001 0.00418169 0 -0.0397069 5.37035e-08 0 2.05003e-08 0 7.50352e-09
17 3 0.001 0.00445049 0 -0.0391351 1.11106e-08 0 -1.49709e-08 0 7.53136e-09
18 3 0.001 0.00471333 0 -0.0385607 4.0666e-08 0 -2.67697e-08 0 7.55909e-09
19 3 0.001 0.00496988 0 -0.0379833 8.19895e-10 0 2.12447e-08 0 7.58631e-09
20 3 0.001 0.00521983 0 -0.0374031 3.58966e-08 0 -3.97833e-08 0 7.61272e-09
21 3 0.001 0.00546288 0 -0.03682 -3.88192e-08 0 1.82948e-09 0 7.638e-09
22 3 0.001 0.00569876 0 -0.036234 2.82945e-08 0 -6.32024e-09 0 7.6618e-09
23 3 0.001 0.00592721 0 -0.035645 -1.88879e-08 0 -1.30424e-09 0 7.68384e-09
24 3 0.001 0.006148 0 -0.0350531 6.78177e-09 0 -1.21277e-08 0 7.70384e-09
25 3 0.001 0.00636091 0 -0.0344583 -1.12406e-08 0 4.11641e-08 0 7.72153e-09
26 3 0.001 0.00656574 0 -0.0338607 -1.79098e-08 0 9.46046e-09 0 7.73668e-09
27 3 0.001 0.00676233 0 -0.0332603 -5.17591e-08 0 9.48493e-10 0 7.74917e-09
28 3 0.001 0.00695054 0 -0.0326573 -4.96163e-09 0 -2.55976e-08 0 7.7588e-09
29 3 0.001 0.00713024 0 -0.0320516 -6.70597e-08 0 -2.17809e-08 0 7.76546e-09
30 3 0.001 0.00730135 0 -0.0314435 -3.60521e-08 0 -1.55366e-10 0 7.76903e-09
31 3 0.001 0.00746381 0 -0.030833 -5.04925e-08 0 -2.31149e-08 0 7.76947e-09
32 3 0.001 0.00761756 0 -0.0302203 -6.80963e-08 0 4.03602e-08 0 7.76675e-09
33 3 0.001 0.00776262 0 -0.0296054 -5.63263e-08 0 3.52324e-08 0 7.76089e-09
34 3 0.001 0.007899 0 -0.0289886 -4.33023e-08 0 -2.24859e-08 0 7.75205e-09
35 3 0.001 0.00802674 0 -0.0283699 -7.44004e-08 0 1.94049e-08 0 7.74031e-09
36 3 0.001 0.00814594 0 -0.0277495 -4.68296e-08 0 -1.02868e-08 0 7.72581e-09
37 3 0.001 0.00825668 0 -0.0271276 -1.05168e-07 0 -1.29311e-08 0 7.70877e-09
38 3 0.001 0.00835911 0 -0.0265042 -4.62554e-08 0 1.21543e-08 0 7.68936e-09
39 3 0.001 0.00845339 0 -0.0258795 -6.63294e-08 0 3.16446e-08 0 7.6678e-09
40 3 0.001 0.00853971 0 -0.0252537 -6.79112e-08 0 2.33254e-08 0 7.64439e-09
41 3 0.001 0.00861829 0 -0.0246269 -6.87806e-08 0 -1.9776e-09 0 7.61948e-09
42 3 0.001 0.00868936 0 -0.0239991 -6.13176e-08 0 2.29675e-08 0 7.59332e-09
43 3 0.001 0.0087532 0 -0.0233706 -7.31354e-08 0 -2.10827e-08 0 7.56628e-09
44 3 0.001 0.00881009 0 -0.0227414 -6.97194e-08 0 6.16341e-09 0 7.53867e-09
45 3 0.001 0.00886034 0 -0.0221117 -3.26263e-08 0 5.17704e-08 0 7.51076e-09
46 3 0.001 0.0089043 0 -0.0214814 -4.35511e-08 0 2.57297e-08 0 7.48293e-09
47 3 0.001 0.00894231 0 -0.0208508 -5.41826e-08 0 1.3937e-08 0 7.45556e-09
48 3 0.001 0.00897476 0 -0.0202199 -5.8068e-08 0 -5.46604e-09 0 7.42897e-09
49 3 0.001 0.00900202 0 -0.0195887 -4.69037e-08 0 -1.56825e-08 0 7.40345e-09
50 3 0.001 0.00902451 0 -0.0189573 -2.67287e-08 0 -3.47903e-08 0 7.3787e-09
51 3 0.001 0.00904265 0 -0.0183258 -1.90174e-08 0 8.90748e-09 0 7.35463e-09
52 3 0.001 0.00905686 0 -0.0176942 -3.66258e-08 0 9.05263e-10 0 7.33209e-09
53 3 0.001 0.00906759 0 -0.0170625 -1.77286e-08 0 -4.10527e-10 0 7.31203e-09
54 3 0.001 0.00907524 0 -0.0164308 -2.03265e-08 0 2.547e-08 0 7.29501e-09
55 3 0.001 0.00908023 0 -0.015799 -1.22996e-08 0 -8.51926e-09 0 7.28129e-09
56 3 0.001 0.00908294 0 -0.0151672 -4.28785e-09 0 1.26242e-08 0 7.27077e-09
57 3 0.001 0.00908373 0 -0.0145354 -2.44844e-09 0 -3.26606e-08 0 7.26319e-09
58 3 0.001 0.00908293 0 -0.0139037 7.60258e-09 0 -7.07756e-09 0 7.2581e-09
59 3 0.001 0.00908084 0 -0.0132719 -2.21661e-08 0 1.13368e-09 0 7.25502e-09
60 3 0.001 0.00907774 0 -0.0126401 -1.47602e-09 0 1.09284e-08 0 7.25347e-09
61 3 0.001 0.00907386 0 -0.0120083 7.82661e-09 0 1.15186e-08 0 7.25305e-09
62 3 0.001 0.00906943 0 -0.0113766 3.70702e-08 0 -3.56672e-08 0 7.25343e-09
63 3 0.001 0.00906462 0 -0.0107448 -2.37258e-08 0 8.32296e-09 0 7.2543e-09
64 3 0.001 0.00905962 0 -0.010113 4.85079e-08 0 2.27634e-08 0 7.25537e-09
65 3 0.001 0.00905454 0 -0.00948126 -1.80821e-08 0 2.71025e-08 0 7.25652e-09
66 3 0.001 0.00904953 0 -0.00884949 2.5329e-08 0 5.54689e-08 0 7.25763e-09
67 3 0.001 0.00904468 0 -0.00821772 2.13852e-09 0 1.67983e-08 0 7.25865e-09
68 3 0.001 0.00904007 0 -0.00758595 5.91222e-08 0 -3.83024e-08 0 7.25963e-09
69 3 0.001 0.00903578 0 -0.00695418 -3.14681e-08 0 2.63214e-08 0 7.26045e-09
70 3 0.001 0.00903187 0 -0.00632241 5.23898e-08 0 -2.61534e-08 0 7.26113e-09
71 3 0.001 0.0090284 0 -0.00569063 -1.13064e-08 0 1.79801e-09 0 7.2617e-09
72 3 0.001 0.00902539 0 -0.00505885 4.0705e-08 0 -6.92013e-09 0 7.26214e-09
73 3 0.001 0.00902289 0 -0.00442707 3.32286e-08 0 2.21967e-10 0 7.26248e-09
74 3 0.001 0.00902092 0 -0.00379529 8.38791e-09 0 4.3589e-10 0 7.26272e-09
75 3 0.001 0.0090195 0 -0.00316351 3.84099e-08 0 -2.2295e-08 0 7.26291e-09
76 3 0.001 0.00901864 0 -0.00253172 -1.02485e-08 0 8.73495e-09 0 7.26302e-09
77 3 0.001 0.00901836 0 -0.00189994 3.66242e-08 0 -1.88043e-09 0 7.26304e-09
78 3 0.001 0.00901864 0 -0.00126815 2.11487e-08 0 -1.25398e-08 0 7.26303e-09
79 3 0.001 0.0090195 0 -0.000636367 2.34469e-08 0 1.85704e-08 0 7.26293e-09
80 3 0.001 0.00902092 0 -4.5826e-06 2.58148e-08 0 -4.10663e-09 0 7.26276e-09
81 3 0.001 0.00902289 0 0.0006272 1.10947e-08 0 -3.61525e-09 0 7.26253e-09
82 3 0.001 0.00902539 0 0.00125898 1.54189e-08 0 3.29496e-09 0 7.2622e-09
83 3 0.001 0.00902839 0 0.00189076 4.04674e-08 0 -5.93371e-09 0 7.26177e-09
84 3 0.001 0.00903186 0 0.00252254 -4.8698e-09 0 2.25727e-08 0 7.26122e-09
85 3 0.001 0.00903577 0 0.00315431 4.5271e-08 0 -3.03183e-08 0 7.26055e-09
86 3 0.001 0.00904006 0 0.00378608 -1.24084e-08 0 3.43324e-08 0 7.25973e-09
87 3 0.001 0.00904467 0 0.00441785 1.49902e-08 0 -2.26296e-08 0 7.25877e-09
88 3 0.001 0.00904952 0 0.00504962 2.68647e-08 0 -5.98021e-08 0 7.25776e-09
89 3 0.001 0.00905454 0 0.00568138 6.08048e-09 0 -3.02104e-08 0 7.25666e-09
90 3 0.001 0.00905961 0 0.00631315 1.77903e-09 0 -2.47571e-08 0 7.25552e-09
91 3 0.001 0.00906462 0 0.00694492 2.86085e-08 0 -1.14137e-08 0 7.25446e-09
92 3 0.001 0.00906942 0 0.00757668 -1.64787e-08 0 3.16043e-08 0 7.2536e-09
93 3 0.001 0.00907386 0 0.00820845 2.99026e-08 0 -1.65951e-08 0 7.25323e-09
94 3 0.001 0.00907773 0 0.00884023 -2.39761e-08 0 -1.40621e-08 0 7.25366e-09
95 3 0.001 0.00908084 0 0.00947201 2.092e-08 0 -3.1616e-09 0 7.25521e-09
96 3 0.001 0.00908293 0 0.0101038 -2.38859e-08 0 4.77613e-09 0 7.25831e-09
97 3 0.001 0.00908374 0 0.0107356 -5.25956e-09 0 2.83909e-08 0 7.26339e-09
98 3 0.001 0.00908296 0 0.0113674 -1.07585e-08 0 -1.84002e-08 0 7.27099e-09
99 3 0.001 0.00908025 0 0.0119991 -1.19365e-08 0 3.70322e-09 0 7.28151e-09
100 3 0.001 0.00907527 0 0.0126309 -3.10471e-09 0 -2.76031e-08 0 7.29524e-09
101 3 0.001 0.00906763 0 0.0132626 -4.18701e-08 0 -1.53022e-09 0 7.31226e-09
102 3 0.001 0.00905691 0 0.0138943 -2.10925e-08 0 -4.30642e-09 0 7.33233e-09
103 3 0.001 0.0090427 0 0.0145259 -3.9521e-08 0 -1.48087e-08 0 7.35488e-09
104 3 0.001 0.00902457 0 0.0151575 -2.93776e-08 0 2.95804e-08 0 7.37897e-09
105 3 0.001 0.0090021 0 0.0157888 -4.88813e-08 0 1.28194e-08 0 7.40373e-09
106 3 0.001 0.00897485 0 0.01642 -3.62962e-08 0 5.0127e-09 0 7.42927e-09
107 3 0.001 0.00894242 0 0.0170509 -7.81013e-08 0 -1.74609e-08 0 7.45588e-09
108 3 0.001 0.00890442 0 0.0176816 -3.05586e-08 0 -2.9175e-08 0 7.48326e-09
110 3 0.001 0.00881023 0 0.0189416 -3.90534e-08 0 -8.17939e-09 0 7.53905e-09
109 3 0.001 0.00886047 0 0.0183118 -7.46303e-08 0 -6.07465e-08 0 7.51112e-09
111 3 0.001 0.00875335 0 0.0195707 -7.33984e-08 0 1.85228e-08 0 7.56668e-09
112 3 0.001 0.00868953 0 0.0201993 -6.97587e-08 0 -2.54368e-08 0 7.59374e-09
113 3 0.001 0.00861847 0 0.020827 -8.05215e-08 0 -2.28699e-09 0 7.61992e-09
114 3 0.001 0.00853991 0 0.0214538 -6.69274e-08 0 -2.80993e-08 0 7.64486e-09
115 3 0.001 0.0084536 0 0.0220797 -7.46678e-08 0 -3.80506e-08 0 7.66829e-09
117 3 0.001 0.00825691 0 0.0233277 -9.51908e-08 0 1.306e-08 0 7.70931e-09
116 3 0.001 0.00835933 0 0.0227043 -5.18466e-08 0 -1.65427e-08 0 7.68987e-09
119 3 0.001 0.00802699 0 0.0245701 -6.98845e-08 0 -2.13394e-08 0 7.74089e-09
118 3 0.001 0.00814617 0 0.0239497 -6.16266e-08 0 6.52853e-09 0 7.72637e-09
120 3 0.001 0.00789926 0 0.0251887 -7.48852e-08 0 1.02983e-08 0 7.75265e-09
121 3 0.001 0.00776289 0 0.0258056 -4.73596e-08 0 -3.93006e-08 0 7.76151e-09
122 3 0.001 0.00761784 0 0.0264204 -6.00668e-08 0 -4.14029e-08 0 7.76739e-09
124 3 0.001 0.00730164 0 0.0276437 -6.55669e-08 0 -8.16223e-09 0 7.7697e-09
123 3 0.001 0.00746409 0 0.0270332 -6.07044e-08 0 2.04012e-08 0 7.77013e-09
125 3 0.001 0.00713053 0 0.0282518 -4.94698e-08 0 2.3179e-08 0 7.76615e-09
127 3 0.001 0.00676263 0 0.0294605 -4.17096e-08 0 -2.78141e-09 0 7.74989e-09
126 3 0.001 0.00695083 0 0.0288574 -3.19149e-08 0 1.1162e-08 0 7.75951e-09
129 3 0.001 0.0063612 0 0.0306584 5.68564e-09 0 -3.36198e-08 0 7.72226e-09
128 3 0.001 0.00656604 0 0.0300608 -4.23748e-08 0 -1.8513e-08 0 7.73741e-09
130 3 0.001 0.0061483 0 0.0312532 -2.80732e-08 0 -9.7404e-10 0 7.70458e-09
131 3 0.001 0.00592751 0 0.0318451 -2.94243e-08 0 -6.35308e-09 0 7.68458e-09
132 3 0.001 0.00569905 0 0.0324341 3.61816e-08 0 4.99178e-09 0 7.66255e-09
133 3 0.001 0.00546316 0 0.0330202 -5.1312e-08 0 -8.87264e-09 0 7.63876e-09
134 3 0.001 0.0052201 0 0.0336033 1.78486e-08 0 3.33085e-08 0 7.61347e-09
135 3 0.001 0.00497015 0 0.0341835 -9.3469e-09 0 -2.42197e-08 0 7.58706e-09
137 3 0.001 0.00445074 0 0.0353353 2.19963e-08 0 1.55549e-08 0 7.53211e-09
136 3 0.001 0.00471359 0 0.0347608 2.22491e-08 0 1.65981e-08 0 7.55984e-09
138 3 0.001 0.00418193 0 0.035907 2.11803e-08 0 -3.87024e-08 0 7.50426e-09
139 3 0.001 0.00390748 0 0.036476 6.9185e-09 0 4.81701e-08 0 7.47657e-09
140 3 0.001 0.00362777 0 0.0370425 -5.37164e-11 0 2.59726e-08 0 7.44934e-09
142 3 0.001 0.003054 0 0.0381682 -9.19391e-10 0 6.2146e-08 0 7.39767e-09
141 3 0.001 0.00334315 0 0.0376065 -5.54404e-09 0 3.84034e-08 0 7.42294e-09
143 3 0.001 0.0027607 0 0.0387278 2.85971e-08 0 1.66208e-09 0 7.37386e-09
145 3 0.001 0.00216324 0 0.0398412 3.76367e-08 0 -1.17691e-08 0 7.33179e-09
146 3 0.001 0.00185988 0 0.0403954 1.76879e-08 0 -1.49065e-08 0 7.31393e-09
144 3 0.001 0.00246365 0 0.0392854 2.38765e-08 0 -1.52861e-08 0 7.35184e-09
147 3 0.001 0.00155399 0 0.0409481 8.96162e-09 0 2.0228e-08 0 7.29844e-09
148 3 0.001 0.00124597 0 0.0414998 1.25789e-08 0 3.06902e-08 0 7.28548e-09
150 3 0.001 0.000625239 0 0.0426004 8.78794e-09 0 5.03237e-08 0 4.59773e-09
151 3 0.001 0.000313048 0 0.0431504 -1.18236e-08 0 -2.32877e-08 0 2.24227e-09
149 3 0.001 0.000936254 0 0.0420504 -2.26811e-08 0 1.25993e-08 0 7.1156e-09
2 2 0.001 0 0 0.0437 -0.00247938 0 0.00938511 0 1.12031e-09
