ITEM: TIMESTEP
1700000
ITEM: NUMBER OF ATOMS
151
ITEM: BOX BOUNDS ff ff ff
-1.0000000000000000e-02 1.0000000000000000e-02
-6.0000000000000001e-03 6.0000000000000001e-03
-5.2499999999999998e-02 5.2499999999999998e-02
ITEM: ATOMS id type radius x y z fx fy fz c_bendingE c_stretchingE
1 1 0.001 0 0 -0.0475 -0.00163976 0 -0.00721806 0 3.85788e-10
3 3 0.001 0.000272953 0 -0.0469291 3.78807e-08 0 1.15002e-07 0 7.71965e-10
4 3 0.001 0.000545322 0 -0.0463578 -2.97042e-08 0 6.85564e-08 0 2.41656e-09
5 3 0.001 0.000816828 0 -0.0457869 -1.56527e-08 0 6.06546e-08 0 4.18273e-09
6 3 0.001 0.00108745 0 -0.0452157 -7.57348e-08 0 7.64945e-08 0 4.3066e-09
7 3 0.001 0.00135691 0 -0.0446438 -1.37822e-07 0 -9.96367e-08 0 4.31099e-09
8 3 0.001 0.00162492 0 -0.0440713 -1.30444e-07 0 -1.11391e-07 0 4.31638e-09
9 3 0.001 0.0018912 0 -0.043498 -1.34169e-07 0 1.32826e-08 0 4.32255e-09
10 3 0.001 0.00215546 0 -0.0429237 -1.22142e-07 0 -1.74728e-08 0 4.32944e-09
11 3 0.001 0.00241744 0 -0.0423484 -9.22207e-08 0 1.93893e-07 0 4.33695e-09
12 3 0.001 0.00267685 0 -0.041772 -8.76037e-08 0 1.22238e-07 0 4.34502e-09
13 3 0.001 0.00293343 0 -0.0411943 -1.30906e-07 0 5.04247e-08 0 4.35377e-09
14 3 0.001 0.0031869 0 -0.0406152 -1.34577e-07 0 1.12339e-07 0 4.36304e-09
15 3 0.001 0.00343702 0 -0.0400346 -1.70478e-07 0 -3.00405e-08 0 4.37278e-09
16 3 0.001 0.00368352 0 -0.0394525 -1.43993e-07 0 6.44989e-08 0 4.38287e-09
17 3 0.001 0.00392616 0 -0.0388688 -1.09107e-07 0 8.18442e-08 0 4.39314e-09
18 3 0.001 0.0041647 0 -0.0382834 -9.67549e-08 0 1.38906e-07 0 4.4035e-09
19 3 0.001 0.0043989 0 -0.0376963 -3.79692e-08 0 1.57164e-07 0 4.41385e-09
20 3 0.001 0.00462854 0 -0.0371074 -7.17082e-08 0 1.95719e-07 0 4.42411e-09
21 3 0.001 0.00485341 0 -0.0365166 -8.67569e-08 0 1.09517e-07 0 4.43427e-09
22 3 0.001 0.0050733 0 -0.0359239 -8.60315e-08 0 7.17454e-08 0 4.44427e-09
23 3 0.001 0.00528801 0 -0.0353294 -1.17196e-07 0 -3.78248e-09 0 4.454e-09
24 3 0.001 0.00549736 0 -0.0347329 -6.2807e-08 0 -4.04145e-08 0 4.46337e-09
25 3 0.001 0.00570117 0 -0.0341346 -5.918e-08 0 -1.15508e-08 0 4.47222e-09
26 3 0.001 0.00589928 0 -0.0335343 -3.22392e-08 0 -6.7501e-08 0 4.48049e-09
27 3 0.001 0.00609154 0 -0.0329321 -4.48237e-08 0 2.5655e-08 0 4.48807e-09
28 3 0.001 0.00627781 0 -0.0323281 -7.35691e-09 0 -1.26737e-07 0 4.49492e-09
29 3 0.001 0.00645797 0 -0.0317222 4.35531e-08 0 5.43516e-08 0 4.50094e-09
30 3 0.001 0.00663191 0 -0.0311145 3.56764e-08 0 -8.9844e-10 0 4.50602e-09
31 3 0.001 0.00679953 0 -0.030505 4.32302e-08 0 -7.64871e-08 0 4.51025e-09
32 3 0.001 0.00696075 0 -0.0298938 6.73806e-08 0 8.94353e-08 0 4.51348e-09
33 3 0.001 0.00711551 0 -0.0292809 9.26512e-08 0 8.0383e-09 0 4.51566e-09
34 3 0.001 0.00726375 0 -0.0286664 1.27284e-07 0 8.93611e-08 0 4.51682e-09
35 3 0.001 0.00740545 0 -0.0280504 1.26864e-07 0 1.79136e-08 0 4.51696e-09
36 3 0.001 0.00754057 0 -0.0274329 1.49118e-07 0 -4.18123e-08 0 4.51615e-09
37 3 0.001 0.00766911 0 -0.026814 9.60792e-08 0 -1.45189e-08 0 4.51435e-09
38 3 0.001 0.0077911 0 -0.0261938 1.11011e-07 0 -2.48647e-07 0 4.51169e-09
39 3 0.001 0.00790655 0 -0.0255723 1.30041e-07 0 -6.06826e-08 0 4.50808e-09
40 3 0.001 0.00801551 0 -0.0249496 1.6133e-07 0 1.13089e-08 0 4.50338e-09
41 3 0.001 0.00811805 0 -0.0243259 1.54019e-07 0 -1.0635e-07 0 4.49782e-09
42 3 0.001 0.00821423 0 -0.0237011 1.74272e-07 0 1.58575e-07 0 4.49134e-09
43 3 0.001 0.00830416 0 -0.0230755 1.4125e-07 0 4.10579e-08 0 4.484e-09
44 3 0.001 0.00838793 0 -0.0224489 1.45145e-07 0 -5.07743e-08 0 4.47609e-09
45 3 0.001 0.00846568 0 -0.0218216 1.91707e-07 0 8.03453e-08 0 4.46752e-09
46 3 0.001 0.00853754 0 -0.0211936 1.35625e-07 0 1.26073e-08 0 4.45837e-09
47 3 0.001 0.00860366 0 -0.0205649 1.94994e-07 0 9.96882e-08 0 4.44875e-09
48 3 0.001 0.00866422 0 -0.0199357 6.15789e-08 0 -5.26323e-08 0 4.43881e-09
49 3 0.001 0.00871938 0 -0.019306 1.46541e-07 0 -5.2465e-08 0 4.42867e-09
50 3 0.001 0.00876935 0 -0.0186758 5.38396e-08 0 -1.02579e-07 0 4.41839e-09
51 3 0.001 0.00881433 0 -0.0180453 1.46671e-07 0 -4.64702e-08 0 4.40801e-09
52 3 0.001 0.00885454 0 -0.0174145 8.63155e-08 0 5.78892e-08 0 4.39754e-09
53 3 0.001 0.0088902 0 -0.0167833 1.12337e-07 0 4.16553e-08 0 4.38713e-09
54 3 0.001 0.00892157 0 -0.016152 4.13376e-08 0 1.10643e-08 0 4.37694e-09
55 3 0.001 0.00894889 0 -0.0155205 6.96788e-08 0 -1.38923e-07 0 4.36715e-09
56 3 0.001 0.00897242 0 -0.0148888 6.34315e-08 0 -4.05195e-08 0 4.35777e-09
57 3 0.001 0.00899243 0 -0.0142569 4.42214e-08 0 -8.9951e-08 0 4.34882e-09
58 3 0.001 0.00900921 0 -0.013625 5.14369e-08 0 3.41725e-08 0 4.3403e-09
59 3 0.001 0.00902302 0 -0.012993 4.19751e-09 0 1.02232e-08 0 4.33208e-09
60 3 0.001 0.00903418 0 -0.012361 1.0276e-08 0 7.2219e-08 0 4.3243e-09
61 3 0.001 0.00904296 0 -0.0117289 1.40427e-09 0 -2.44806e-08 0 4.31726e-09
62 3 0.001 0.00904966 0 -0.0110968 2.20862e-08 0 -2.15619e-08 0 4.31119e-09
63 3 0.001 0.00905456 0 -0.0104647 2.64717e-08 0 -7.9252e-08 0 4.30618e-09
64 3 0.001 0.00905792 0 -0.00983256 -3.41937e-09 0 -2.78058e-09 0 4.30221e-09
65 3 0.001 0.00906001 0 -0.00920042 -6.16024e-09 0 -1.00085e-07 0 4.29922e-09
66 3 0.001 0.00906107 0 -0.00856828 -4.26009e-08 0 -3.96575e-08 0 4.29714e-09
67 3 0.001 0.0090613 0 -0.00793614 9.43884e-09 0 1.39361e-07 0 4.29564e-09
68 3 0.001 0.00906092 0 -0.00730399 -1.6277e-08 0 -1.12208e-07 0 4.29478e-09
69 3 0.001 0.00906011 0 -0.00667185 -1.09103e-08 0 1.21975e-07 0 4.29438e-09
70 3 0.001 0.00905902 0 -0.00603971 -3.57728e-08 0 -5.47771e-08 0 4.29426e-09
71 3 0.001 0.00905779 0 -0.00540757 -2.70986e-08 0 -5.01593e-08 0 4.29446e-09
72 3 0.001 0.00905655 0 -0.00477543 -1.96787e-08 0 2.05425e-07 0 4.29463e-09
73 3 0.001 0.0090554 0 -0.00414328 1.63434e-08 0 -1.87193e-07 0 4.29492e-09
74 3 0.001 0.00905443 0 -0.00351114 -5.88101e-10 0 -6.23693e-08 0 4.29535e-09
75 3 0.001 0.00905368 0 -0.002879 -3.36108e-08 0 -8.42286e-08 0 4.29568e-09
76 3 0.001 0.00905322 0 -0.00224686 -4.54678e-08 0 -2.82574e-07 0 4.29605e-09
77 3 0.001 0.00905306 0 -0.00161471 -3.77645e-08 0 -4.07057e-09 0 4.29627e-09
78 3 0.001 0.00905321 0 -0.000982571 -1.92314e-08 0 2.7047e-07 0 4.29606e-09
79 3 0.001 0.00905368 0 -0.000350428 2.70989e-08 0 6.53516e-08 0 4.29572e-09
80 3 0.001 0.00905442 0 0.000281715 -3.06469e-08 0 4.45703e-08 0 4.29542e-09
81 3 0.001 0.0090554 0 0.000913857 -1.02208e-08 0 1.7335e-07 0 4.29501e-09
82 3 0.001 0.00905655 0 0.001546 -5.9335e-08 0 -2.15421e-07 0 4.29474e-09
83 3 0.001 0.00905779 0 0.00217814 -6.14677e-09 0 3.98066e-08 0 4.29459e-09
84 3 0.001 0.00905902 0 0.00281028 2.73082e-08 0 4.09836e-08 0 4.2944e-09
85 3 0.001 0.00906012 0 0.00344242 -8.82412e-09 0 -1.38629e-07 0 4.29453e-09
86 3 0.001 0.00906094 0 0.00407457 -3.33797e-08 0 9.22132e-08 0 4.29495e-09
87 3 0.001 0.00906134 0 0.00470671 -3.36122e-08 0 -1.56984e-07 0 4.29583e-09
88 3 0.001 0.00906112 0 0.00533885 -3.91428e-08 0 2.79032e-08 0 4.29734e-09
89 3 0.001 0.00906008 0 0.00597099 3.19885e-08 0 9.3301e-08 0 4.29943e-09
90 3 0.001 0.00905801 0 0.00660313 3.70446e-08 0 -6.49411e-09 0 4.30241e-09
91 3 0.001 0.00905467 0 0.00723527 2.13497e-08 0 6.2502e-08 0 4.30639e-09
92 3 0.001 0.00904981 0 0.00786739 -2.00194e-08 0 2.74773e-10 0 4.31141e-09
93 3 0.001 0.00904314 0 0.00849949 -6.05868e-09 0 7.59254e-09 0 4.3175e-09
94 3 0.001 0.0090344 0 0.00913157 3.16335e-08 0 -7.93876e-08 0 4.32455e-09
95 3 0.001 0.00902329 0 0.00976361 5.06525e-08 0 -1.68797e-08 0 4.33235e-09
97 3 0.001 0.00899279 0 0.0110275 3.86217e-08 0 7.33743e-08 0 4.34914e-09
96 3 0.001 0.00900952 0 0.0103956 5.36508e-08 0 -4.69581e-08 0 4.34059e-09
98 3 0.001 0.00897284 0 0.0116593 9.46366e-09 0 2.09753e-08 0 4.35812e-09
99 3 0.001 0.00894936 0 0.012291 6.1989e-08 0 1.24998e-07 0 4.36753e-09
100 3 0.001 0.0089221 0 0.0129226 1.03388e-07 0 -1.45535e-08 0 4.37734e-09
102 3 0.001 0.00885519 0 0.0141851 9.33067e-08 0 -7.06325e-08 0 4.398e-09
101 3 0.001 0.00889079 0 0.0135539 1.19438e-07 0 -4.79344e-08 0 4.38755e-09
103 3 0.001 0.00881504 0 0.0148159 6.22388e-08 0 2.30862e-08 0 4.40851e-09
104 3 0.001 0.00877012 0 0.0154464 3.37213e-08 0 8.29095e-08 0 4.41893e-09
105 3 0.001 0.00872022 0 0.0160766 1.85033e-07 0 4.42392e-08 0 4.42926e-09
106 3 0.001 0.00866512 0 0.0167063 8.89767e-08 0 5.1054e-08 0 4.43942e-09
107 3 0.001 0.00860463 0 0.0173355 1.6494e-07 0 -1.08615e-07 0 4.4494e-09
108 3 0.001 0.00853857 0 0.0179642 1.04848e-07 0 -2.87398e-08 0 4.45906e-09
109 3 0.001 0.00846677 0 0.0185922 1.28794e-07 0 -1.08826e-07 0 4.46826e-09
110 3 0.001 0.00838908 0 0.0192195 1.05297e-07 0 2.45877e-08 0 4.47688e-09
111 3 0.001 0.00830537 0 0.0198461 2.1528e-07 0 -4.1172e-08 0 4.48484e-09
112 3 0.001 0.0082155 0 0.0204718 1.35655e-07 0 -1.66083e-07 0 4.49222e-09
114 3 0.001 0.00801688 0 0.0217203 7.95948e-08 0 -4.35487e-08 0 4.50434e-09
113 3 0.001 0.00811936 0 0.0210966 1.29844e-07 0 9.54478e-08 0 4.49873e-09
115 3 0.001 0.00790796 0 0.022343 8.02241e-08 0 3.20642e-08 0 4.50909e-09
117 3 0.001 0.00767061 0 0.0235847 1.25237e-07 0 1.59341e-08 0 4.51544e-09
116 3 0.001 0.00779255 0 0.0229645 1.06559e-07 0 2.3421e-07 0 4.51274e-09
119 3 0.001 0.007407 0 0.0248211 6.50258e-08 0 -4.07885e-08 0 4.51809e-09
118 3 0.001 0.00754209 0 0.0242036 8.10895e-08 0 2.81201e-08 0 4.51726e-09
121 3 0.001 0.00711712 0 0.0260516 4.77788e-08 0 -4.04943e-08 0 4.51686e-09
120 3 0.001 0.00726534 0 0.0254371 6.83445e-08 0 -1.23929e-07 0 4.51799e-09
122 3 0.001 0.00696238 0 0.0266645 8.40271e-08 0 -9.23384e-08 0 4.51471e-09
124 3 0.001 0.00663355 0 0.0278852 -1.12017e-08 0 -1.15295e-08 0 4.50727e-09
123 3 0.001 0.00680116 0 0.0272757 -1.16622e-08 0 6.63945e-08 0 4.5115e-09
127 3 0.001 0.00609316 0 0.0297029 -4.62556e-08 0 -3.57285e-08 0 4.48936e-09
125 3 0.001 0.00645961 0 0.0284929 -3.72087e-08 0 -8.7332e-08 0 4.50221e-09
126 3 0.001 0.00627944 0 0.0290988 -6.09736e-08 0 9.57931e-08 0 4.4962e-09
129 3 0.001 0.00570276 0 0.0309053 -1.0358e-07 0 6.51031e-09 0 4.47351e-09
128 3 0.001 0.00590089 0 0.030305 -7.50857e-08 0 5.72289e-08 0 4.48179e-09
131 3 0.001 0.00528954 0 0.0321001 -1.57735e-07 0 -2.30974e-08 0 4.45527e-09
130 3 0.001 0.00549892 0 0.0315036 -1.49101e-07 0 1.40245e-08 0 4.46464e-09
132 3 0.001 0.0050748 0 0.0326946 -1.11496e-07 0 -9.88647e-08 0 4.44554e-09
133 3 0.001 0.00485487 0 0.0332872 -1.10434e-07 0 -1.2555e-07 0 4.43554e-09
134 3 0.001 0.00462996 0 0.033878 -1.01827e-07 0 -2.01117e-07 0 4.42537e-09
137 3 0.001 0.00392741 0 0.0356394 -1.51121e-07 0 -1.14026e-07 0 4.39435e-09
135 3 0.001 0.00440026 0 0.0344669 -1.21681e-07 0 -1.81329e-07 0 4.41508e-09
136 3 0.001 0.00416601 0 0.035054 -1.27526e-07 0 -1.53901e-07 0 4.40471e-09
138 3 0.001 0.00368471 0 0.0362231 -1.56118e-07 0 -8.20333e-08 0 4.38408e-09
139 3 0.001 0.00343814 0 0.0368051 -1.97071e-07 0 2.25831e-08 0 4.37397e-09
142 3 0.001 0.00267775 0 0.0385424 -1.49134e-07 0 -1.61015e-07 0 4.34615e-09
141 3 0.001 0.0029344 0 0.0379647 -1.7303e-07 0 -6.54619e-08 0 4.35491e-09
140 3 0.001 0.00318795 0 0.0373857 -1.67079e-07 0 -1.13573e-07 0 4.3642e-09
143 3 0.001 0.00241825 0 0.0391188 -7.41471e-08 0 -2.01072e-07 0 4.33808e-09
144 3 0.001 0.00215619 0 0.0396941 -1.4396e-07 0 7.03178e-09 0 4.33056e-09
145 3 0.001 0.00189184 0 0.0402683 -1.45772e-07 0 -3.10069e-09 0 4.32365e-09
146 3 0.001 0.00162547 0 0.0408416 -1.69921e-07 0 1.04608e-07 0 4.31746e-09
147 3 0.001 0.00135737 0 0.041414 -1.69983e-07 0 7.72865e-08 0 4.31206e-09
149 3 0.001 0.000817111 0 0.0425571 -4.64267e-08 0 -8.29749e-08 0 4.1838e-09
150 3 0.001 0.000545511 0 0.0431279 -1.68271e-08 0 -4.95553e-08 0 2.41732e-09
148 3 0.001 0.00108782 0 0.0419858 -4.90604e-08 0 -8.15501e-08 0 4.30768e-09
151 3 0.001 0.000273048 0 0.0436991 1.40721e-08 0 -1.09373e-07 0 7.72415e-10
2 2 0.001 0 0 0.04427 -0.00163965 0 0.0072194 0 3.8601e-10
