ITEM: TIMESTEP
9100000
ITEM: NUMBER OF ATOMS
151
ITEM: BOX BOUNDS ff ff ff
-1.0000000000000000e-02 1.0000000000000000e-02
-6.0000000000000001e-03 6.0000000000000001e-03
-5.2499999999999998e-02 5.2499999999999998e-02
ITEM: ATOMS id type radius x y z fx fy fz c_bendingE c_stretchingE
1 1 0.001 0 0 -0.0475 -0.00199324 0 -0.014657 0 1.41781e-09
3 3 0.001 0.000518109 0 -0.0471374 2.32377e-10 0 -4.9231e-10 0 2.87141e-09
4 3 0.001 0.00103374 0 -0.0467714 -3.04088e-10 0 5.27994e-10 0 5.55492e-09
5 3 0.001 0.00154633 0 -0.0464022 2.27545e-10 0 -2.80389e-10 0 8.4682e-09
6 3 0.001 0.00205511 0 -0.0460279 -3.14018e-10 0 3.32327e-10 0 8.8551e-09
7 3 0.001 0.0025588 0 -0.0456468 6.09923e-10 0 -7.56695e-10 0 9.12735e-09
8 3 0.001 0.00305601 0 -0.0452574 -7.40609e-10 0 9.20439e-10 0 9.45805e-09
9 3 0.001 0.00354533 0 -0.0448581 3.15109e-10 0 -4.14495e-10 0 9.84541e-09
10 3 0.001 0.00402527 0 -0.0444476 7.93816e-10 0 -7.81973e-10 0 1.02869e-08
11 3 0.001 0.00449426 0 -0.0440248 -1.62972e-09 0 1.76993e-09 0 1.07788e-08
12 3 0.001 0.00495069 0 -0.0435885 2.24731e-09 0 -2.46715e-09 0 1.13165e-08
13 3 0.001 0.00539287 0 -0.0431378 -2.91097e-09 0 2.65846e-09 0 1.18937e-08
14 3 0.001 0.00581906 0 -0.042672 3.54997e-09 0 -2.97577e-09 0 1.25029e-08
15 3 0.001 0.00622748 0 -0.0421907 -3.49114e-09 0 2.92696e-09 0 1.3135e-08
16 3 0.001 0.00661633 0 -0.0416934 2.38099e-09 0 -1.82072e-09 0 1.37793e-08
17 3 0.001 0.00698378 0 -0.0411802 -4.00559e-10 0 2.85093e-10 0 1.44239e-08
18 3 0.001 0.00732806 0 -0.0406513 -1.10234e-09 0 4.36202e-10 0 1.50555e-08
19 3 0.001 0.0076474 0 -0.040107 1.86083e-09 0 -1.02955e-09 0 1.56602e-08
20 3 0.001 0.00794014 0 -0.0395479 -1.26583e-09 0 7.92239e-10 0 1.62237e-08
21 3 0.001 0.00820469 0 -0.0389751 -5.64195e-10 0 1.61735e-10 0 1.67319e-08
22 3 0.001 0.00843961 0 -0.0383895 1.86913e-09 0 -6.98287e-10 0 1.71712e-08
23 3 0.001 0.00864362 0 -0.0377924 -1.19855e-09 0 3.7906e-10 0 1.75297e-08
24 3 0.001 0.00881562 0 -0.0371854 -3.98923e-10 0 -4.99977e-11 0 1.77969e-08
25 3 0.001 0.00895475 0 -0.03657 1.3658e-09 0 -3.16791e-10 0 1.79652e-08
26 3 0.001 0.00906033 0 -0.035948 -7.55921e-10 0 2.16162e-10 0 1.80149e-08
27 3 0.001 0.00913198 0 -0.0353212 -4.94087e-11 0 -2.19171e-11 0 1.79409e-08
28 3 0.001 0.00916952 0 -0.0346914 2.59147e-10 0 -1.0278e-10 0 1.78025e-08
29 3 0.001 0.00917298 0 -0.0340605 1.3947e-11 0 7.06084e-12 0 1.76704e-08
30 3 0.001 0.00914252 0 -0.0334303 5.03986e-11 0 -6.86405e-11 0 1.75534e-08
31 3 0.001 0.00907849 0 -0.0328027 -3.5723e-10 0 -1.43893e-10 0 1.73956e-08
32 3 0.001 0.00898139 0 -0.0321792 5.91394e-10 0 1.48807e-10 0 1.7133e-08
33 3 0.001 0.00885191 0 -0.0315617 -3.64034e-10 0 -8.773e-11 0 1.67666e-08
34 3 0.001 0.00869098 0 -0.0309516 -2.74107e-11 0 -7.72522e-11 0 1.6326e-08
35 3 0.001 0.00849973 0 -0.0303502 4.68318e-10 0 1.7677e-10 0 1.58227e-08
37 3 0.001 0.00803156 0 -0.0291785 -1.60771e-09 0 -9.59942e-10 0 1.46811e-08
36 3 0.001 0.00827944 0 -0.0297588 3.42328e-10 0 5.36348e-11 0 1.527e-08
38 3 0.001 0.00775766 0 -0.0286098 2.18958e-09 0 1.08097e-09 0 1.40697e-08
39 3 0.001 0.00745939 0 -0.0280535 -1.21122e-09 0 -5.39828e-10 0 1.34489e-08
40 3 0.001 0.00713849 0 -0.0275099 -3.04494e-10 0 -2.39865e-10 0 1.28309e-08
43 3 0.001 0.00605784 0 -0.0259554 -3.47377e-11 0 -2.83271e-10 0 1.10984e-08
42 3 0.001 0.00643592 0 -0.0264611 -6.8239e-10 0 -6.14396e-10 0 1.16465e-08
41 3 0.001 0.00679674 0 -0.0269791 1.25207e-09 0 7.77903e-10 0 1.22268e-08
46 3 0.001 0.00483763 0 -0.0245068 8.47968e-10 0 6.59931e-10 0 9.71057e-09
45 3 0.001 0.00525696 0 -0.024979 -7.71493e-10 0 -6.0163e-10 0 1.01254e-08
47 3 0.001 0.00440795 0 -0.0240439 -5.71657e-10 0 -6.19942e-10 0 9.3482e-09
44 3 0.001 0.00566426 0 -0.0254616 7.14135e-10 0 6.0322e-10 0 1.05895e-08
49 3 0.001 0.00352402 0 -0.0231416 -4.0089e-10 0 -5.81063e-10 0 8.78977e-09
50 3 0.001 0.00307288 0 -0.0226995 6.16698e-10 0 6.12466e-10 0 8.59642e-09
48 3 0.001 0.00396956 0 -0.0235893 6.48687e-10 0 4.90355e-10 0 9.04072e-09
53 3 0.001 0.0017008 0 -0.0213924 2.80087e-10 0 1.97369e-10 0 8.36734e-09
52 3 0.001 0.0021598 0 -0.0218264 2.2782e-10 0 6.91056e-11 0 8.38493e-09
51 3 0.001 0.00261765 0 -0.0222616 -3.79209e-10 0 -4.43565e-10 0 8.46135e-09
56 3 0.001 0.000331348 0 -0.0200827 1.85999e-09 0 1.70656e-09 0 8.6673e-09
57 3 0.001 -0.000117716 0 -0.0196385 -1.42865e-09 0 -1.49726e-09 0 8.88394e-09
55 3 0.001 0.00078511 0 -0.0205221 -9.33187e-10 0 -1.08189e-09 0 8.5087e-09
54 3 0.001 0.00124208 0 -0.0209582 2.55858e-10 0 2.70515e-10 0 8.40863e-09
60 3 0.001 -0.00142135 0 -0.0182638 1.23515e-09 0 1.14831e-09 0 9.87148e-09
59 3 0.001 -0.000995643 0 -0.0187303 -4.00422e-10 0 -4.30571e-10 0 9.48764e-09
58 3 0.001 -0.000560565 0 -0.0191881 8.7322e-10 0 6.97457e-10 0 9.15782e-09
63 3 0.001 -0.00262557 0 -0.016802 6.00232e-10 0 3.39423e-10 0 1.13148e-08
61 3 0.001 -0.00183604 0 -0.0177875 -1.28165e-09 0 -1.22136e-09 0 1.03066e-08
62 3 0.001 -0.00223802 0 -0.0173005 7.95186e-10 0 5.26032e-10 0 1.07893e-08
65 3 0.001 -0.00335028 0 -0.0157682 1.495e-09 0 9.3396e-10 0 1.24677e-08
64 3 0.001 -0.00299692 0 -0.0162914 -1.25527e-09 0 -1.00719e-09 0 1.18768e-08
66 3 0.001 -0.00368385 0 -0.0152323 -1.80776e-10 0 -8.45338e-11 0 1.30787e-08
68 3 0.001 -0.0042845 0 -0.0141222 2.49404e-09 0 1.08057e-09 0 1.43178e-08
67 3 0.001 -0.00399584 0 -0.0146835 -1.19377e-09 0 -6.01654e-10 0 1.36992e-08
69 3 0.001 -0.00454812 0 -0.0135488 -1.97195e-09 0 -9.8492e-10 0 1.49217e-08
70 3 0.001 -0.00478507 0 -0.0129639 8.61645e-10 0 3.29911e-10 0 1.54977e-08
71 3 0.001 -0.00499383 0 -0.0123683 5.07473e-11 0 -3.49925e-11 0 1.60321e-08
72 3 0.001 -0.00517302 0 -0.0117633 9.4479e-11 0 1.05134e-10 0 1.65117e-08
73 3 0.001 -0.00532141 0 -0.01115 4.21429e-10 0 7.81438e-11 0 1.69238e-08
74 3 0.001 -0.00543794 0 -0.0105299 -3.70891e-10 0 -1.68512e-10 0 1.72572e-08
75 3 0.001 -0.0055218 0 -0.00990456 2.70369e-10 0 6.41426e-11 0 1.75025e-08
76 3 0.001 -0.00557236 0 -0.00927567 -9.05578e-11 0 8.03175e-12 0 1.76526e-08
77 3 0.001 -0.00558926 0 -0.00864498 2.24902e-10 0 -6.26265e-11 0 1.77032e-08
78 3 0.001 -0.00557237 0 -0.00801429 3.78101e-10 0 -9.6803e-14 0 1.76526e-08
79 3 0.001 -0.00552181 0 -0.00738539 -6.80835e-10 0 1.30146e-10 0 1.75026e-08
80 3 0.001 -0.00543796 0 -0.00676005 7.78171e-10 0 -1.2247e-10 0 1.72573e-08
81 3 0.001 -0.00532142 0 -0.00613995 -1.3639e-10 0 2.90422e-11 0 1.69239e-08
82 3 0.001 -0.00517304 0 -0.00552666 3.95261e-10 0 -9.42268e-11 0 1.65118e-08
83 3 0.001 -0.00499386 0 -0.00492162 -4.11668e-10 0 1.26061e-10 0 1.60323e-08
84 3 0.001 -0.0047851 0 -0.0043261 2.74634e-10 0 -2.51664e-11 0 1.54979e-08
85 3 0.001 -0.00454815 0 -0.00374118 2.32253e-10 0 2.97086e-11 0 1.49219e-08
86 3 0.001 -0.00428453 0 -0.00316773 8.35072e-11 0 -7.94312e-11 0 1.4318e-08
87 3 0.001 -0.00399588 0 -0.00260642 2.38458e-10 0 -1.38036e-10 0 1.36994e-08
88 3 0.001 -0.00368389 0 -0.00205768 -5.2442e-10 0 4.61711e-10 0 1.30789e-08
89 3 0.001 -0.00335032 0 -0.00152173 3.38036e-10 0 -1.88299e-10 0 1.24679e-08
90 3 0.001 -0.00299696 0 -0.000998545 1.46419e-09 0 -1.01683e-09 0 1.1877e-08
91 3 0.001 -0.00262562 0 -0.000487917 -2.15723e-09 0 1.77005e-09 0 1.1315e-08
92 3 0.001 -0.00223807 0 1.05848e-05 2.20589e-09 0 -1.70184e-09 0 1.07895e-08
93 3 0.001 -0.00183608 0 0.000497578 -1.96856e-09 0 1.74915e-09 0 1.03068e-08
94 3 0.001 -0.0014214 0 0.000973853 2.68835e-09 0 -2.32548e-09 0 9.87165e-09
95 3 0.001 -0.00099569 0 0.00144036 -2.54182e-09 0 2.43792e-09 0 9.4878e-09
96 3 0.001 -0.000560613 0 0.00189818 1.86977e-09 0 -1.71038e-09 0 9.15797e-09
97 3 0.001 -0.000117765 0 0.00234853 -3.34076e-10 0 4.71834e-10 0 8.88409e-09
98 3 0.001 0.0003313 0 0.00279272 -1.59707e-10 0 2.51179e-10 0 8.66744e-09
99 3 0.001 0.000785062 0 0.00323213 4.13698e-10 0 -3.89061e-10 0 8.50884e-09
100 3 0.001 0.00124203 0 0.00366823 -3.87006e-12 0 2.11694e-10 0 8.40876e-09
101 3 0.001 0.00170075 0 0.00410249 3.76987e-10 0 -2.88786e-10 0 8.36747e-09
102 3 0.001 0.00215976 0 0.00453645 -7.10733e-10 0 6.95817e-10 0 8.38505e-09
103 3 0.001 0.00261761 0 0.00497163 1.13881e-09 0 -1.03524e-09 0 8.46147e-09
104 3 0.001 0.00307284 0 0.00540953 -4.5962e-10 0 6.24092e-10 0 8.59654e-09
105 3 0.001 0.00352398 0 0.00585162 -1.19386e-10 0 1.84527e-10 0 8.78989e-09
106 3 0.001 0.00396952 0 0.00629932 9.19046e-10 0 -7.41249e-10 0 9.04085e-09
107 3 0.001 0.00440792 0 0.00675398 -1.19152e-09 0 1.15985e-09 0 9.34834e-09
108 3 0.001 0.00483759 0 0.00721685 1.56834e-09 0 -1.44034e-09 0 9.71071e-09
109 3 0.001 0.00525692 0 0.00768907 -1.52397e-09 0 1.45332e-09 0 1.01256e-08
110 3 0.001 0.00566423 0 0.00817164 1.76962e-09 0 -1.2837e-09 0 1.05897e-08
111 3 0.001 0.00605781 0 0.00866542 -1.34958e-09 0 1.07815e-09 0 1.10986e-08
112 3 0.001 0.00643589 0 0.0091711 3.66393e-10 0 -3.17496e-10 0 1.16467e-08
113 3 0.001 0.00679671 0 0.00968918 1.28446e-09 0 -7.31102e-10 0 1.2227e-08
114 3 0.001 0.00713847 0 0.01022 -2.42255e-09 0 1.52966e-09 0 1.28311e-08
115 3 0.001 0.00745937 0 0.0107636 2.84916e-09 0 -1.4618e-09 0 1.34491e-08
116 3 0.001 0.00775764 0 0.0113199 -2.29531e-09 0 1.30008e-09 0 1.407e-08
117 3 0.001 0.00803154 0 0.0118885 1.68108e-09 0 -8.88286e-10 0 1.46814e-08
118 3 0.001 0.00827943 0 0.0124689 -3.42246e-10 0 1.88307e-10 0 1.52703e-08
119 3 0.001 0.00849972 0 0.0130602 -1.28213e-09 0 5.01691e-10 0 1.58231e-08
120 3 0.001 0.00869098 0 0.0136616 2.16665e-09 0 -5.83214e-10 0 1.63263e-08
121 3 0.001 0.00885191 0 0.0142717 -1.70124e-09 0 5.18881e-10 0 1.6767e-08
122 3 0.001 0.00898139 0 0.0148893 7.24756e-10 0 -1.13978e-10 0 1.71334e-08
123 3 0.001 0.0090785 0 0.0155127 4.04174e-10 0 -5.64333e-11 0 1.73961e-08
124 3 0.001 0.00914253 0 0.0161404 -4.09418e-10 0 6.91133e-11 0 1.75539e-08
125 3 0.001 0.00917299 0 0.0167706 -3.4443e-10 0 4.16822e-11 0 1.76708e-08
126 3 0.001 0.00916953 0 0.0174015 1.14635e-09 0 4.59726e-11 0 1.78029e-08
127 3 0.001 0.009132 0 0.0180312 -1.21128e-09 0 -1.21186e-10 0 1.79414e-08
128 3 0.001 0.00906035 0 0.0186581 9.12548e-10 0 2.36647e-10 0 1.80154e-08
129 3 0.001 0.00895477 0 0.0192801 -9.57128e-10 0 -1.25342e-10 0 1.79657e-08
130 3 0.001 0.00881564 0 0.0198954 9.53216e-10 0 2.26042e-10 0 1.77975e-08
131 3 0.001 0.00864364 0 0.0205024 1.85796e-10 0 1.37273e-10 0 1.75303e-08
132 3 0.001 0.00843963 0 0.0210995 -1.2967e-09 0 -5.85581e-10 0 1.71719e-08
133 3 0.001 0.00820471 0 0.0216851 1.50198e-09 0 6.22349e-10 0 1.67325e-08
134 3 0.001 0.00794016 0 0.022258 -7.39804e-10 0 -1.62314e-10 0 1.62244e-08
135 3 0.001 0.00764743 0 0.022817 -2.11492e-10 0 -1.16988e-10 0 1.56608e-08
136 3 0.001 0.00732808 0 0.0233613 6.68595e-10 0 3.27987e-10 0 1.50561e-08
137 3 0.001 0.00698381 0 0.0238903 -1.09881e-11 0 1.26193e-11 0 1.44245e-08
138 3 0.001 0.00661635 0 0.0244035 -9.10587e-10 0 -6.54769e-10 0 1.37799e-08
139 3 0.001 0.0062275 0 0.0249007 1.10887e-09 0 9.63899e-10 0 1.31356e-08
140 3 0.001 0.00581908 0 0.0253821 -1.943e-10 0 -8.46934e-11 0 1.25035e-08
142 3 0.001 0.00495071 0 0.0262985 5.44833e-10 0 3.77426e-10 0 1.1317e-08
143 3 0.001 0.00449428 0 0.0267348 2.33766e-10 0 4.10724e-10 0 1.07793e-08
141 3 0.001 0.00539289 0 0.0258478 -6.59874e-10 0 -7.07973e-10 0 1.18942e-08
145 3 0.001 0.00354535 0 0.0275681 -4.5941e-10 0 -7.00394e-10 0 9.84585e-09
146 3 0.001 0.00305602 0 0.0279674 9.67358e-10 0 1.13848e-09 0 9.45847e-09
147 3 0.001 0.00255881 0 0.0283568 -8.0964e-10 0 -1.04787e-09 0 9.12777e-09
144 3 0.001 0.00402528 0 0.0271577 -2.25491e-10 0 -4.45413e-11 0 1.02873e-08
151 3 0.001 0.000518112 0 0.0298474 -8.47191e-11 0 -2.80624e-10 0 2.87164e-09
148 3 0.001 0.00205512 0 0.0287379 6.20654e-10 0 8.11783e-10 0 8.8555e-09
149 3 0.001 0.00154633 0 0.0291122 -5.68583e-10 0 -6.44281e-10 0 8.46859e-09
150 3 0.001 0.00103374 0 0.0294814 3.76478e-10 0 5.3836e-10 0 5.55522e-09
2 2 0.001 0 0 0.03021 -0.0019934 0 0.0146573 0 1.41792e-09
