ITEM: TIMESTEP
4500000
ITEM: NUMBER OF ATOMS
151
ITEM: BOX BOUNDS ff ff ff
-1.0000000000000000e-02 1.0000000000000000e-02
-6.0000000000000001e-03 6.0000000000000001e-03
-5.2499999999999998e-02 5.2499999999999998e-02
ITEM: ATOMS id type radius x y z fx fy fz c_bendingE c_stretchingE
1 1 0.001 0 0 -0.0475 -0.00610977 0 -0.0169212 0 5.49946e-09
3 3 0.001 0.000474991 0 -0.047084 -1.7931e-10 0 1.83426e-10 0 1.10438e-08
4 3 0.001 0.000947709 0 -0.0466654 1.40567e-10 0 -4.41824e-11 0 1.56049e-08
5 3 0.001 0.00141766 0 -0.0462446 -2.25017e-10 0 1.77887e-10 0 2.04936e-08
6 3 0.001 0.00188417 0 -0.0458202 2.03716e-10 0 -2.03927e-10 0 2.09832e-08
7 3 0.001 0.00234609 0 -0.0453908 -6.77411e-10 0 8.09106e-10 0 2.1243e-08
8 3 0.001 0.00280227 0 -0.0449553 6.03015e-10 0 -7.3524e-10 0 2.15516e-08
9 3 0.001 0.00325151 0 -0.0445126 -7.15494e-10 0 7.76577e-10 0 2.19038e-08
10 3 0.001 0.0036926 0 -0.0440619 1.5295e-10 0 -1.12964e-10 0 2.22932e-08
11 3 0.001 0.00412434 0 -0.0436023 -4.89904e-10 0 4.97699e-10 0 2.27125e-08
12 3 0.001 0.00454549 0 -0.043133 1.51936e-10 0 3.96875e-11 0 2.31535e-08
13 3 0.001 0.00495483 0 -0.0426533 -2.47613e-10 0 1.86207e-10 0 2.36072e-08
14 3 0.001 0.00535113 0 -0.0421629 -4.45963e-10 0 3.62625e-10 0 2.40637e-08
15 3 0.001 0.0057332 0 -0.0416614 2.78159e-11 0 6.50516e-11 0 2.45129e-08
16 3 0.001 0.00609985 0 -0.0411485 -3.53471e-10 0 3.23163e-10 0 2.49444e-08
17 3 0.001 0.00644996 0 -0.0406242 1.60209e-11 0 2.26339e-10 0 2.53477e-08
18 3 0.001 0.00678244 0 -0.0400885 -5.79193e-10 0 4.66962e-10 0 2.57128e-08
19 3 0.001 0.00709631 0 -0.0395418 2.65158e-10 0 -1.40551e-10 0 2.60302e-08
20 3 0.001 0.00739064 0 -0.0389844 -3.49769e-10 0 3.3865e-10 0 2.62917e-08
21 3 0.001 0.00766463 0 -0.0384166 -3.06613e-10 0 2.53735e-10 0 2.64901e-08
22 3 0.001 0.00791759 0 -0.0378392 -3.67952e-10 0 3.68005e-10 0 2.66201e-08
23 3 0.001 0.00814896 0 -0.0372529 7.18544e-10 0 -4.96676e-11 0 2.6678e-08
24 3 0.001 0.00835833 0 -0.0366583 -6.51117e-10 0 3.04218e-10 0 2.66623e-08
25 3 0.001 0.00854544 0 -0.0360563 -3.63386e-10 0 2.96963e-10 0 2.65734e-08
26 3 0.001 0.00871017 0 -0.0354479 3.63305e-11 0 1.2215e-10 0 2.64137e-08
27 3 0.001 0.00885259 0 -0.0348338 3.63613e-10 0 1.1199e-10 0 2.61877e-08
28 3 0.001 0.00897293 0 -0.034215 -3.54591e-10 0 3.43286e-10 0 2.59015e-08
29 3 0.001 0.00907155 0 -0.0335923 1.54242e-11 0 1.29721e-10 0 2.55385e-08
30 3 0.001 0.00914902 0 -0.0329666 -4.56676e-10 0 2.32959e-10 0 2.50851e-08
31 3 0.001 0.00920597 0 -0.0323387 5.56936e-10 0 1.49003e-10 0 2.45896e-08
32 3 0.001 0.00924316 0 -0.0317093 -2.17548e-10 0 1.50259e-10 0 2.413e-08
33 3 0.001 0.00926129 0 -0.0310791 -2.18057e-10 0 2.67904e-10 0 2.37635e-08
34 3 0.001 0.00926105 0 -0.0304485 1.78403e-11 0 1.90102e-10 0 2.35154e-08
35 3 0.001 0.00924306 0 -0.0298182 -4.21195e-10 0 1.41141e-10 0 2.33795e-08
36 3 0.001 0.00920784 0 -0.0291887 6.74396e-10 0 3.13624e-10 0 2.33229e-08
37 3 0.001 0.00915586 0 -0.0285602 -1.11003e-09 0 5.46447e-11 0 2.3294e-08
38 3 0.001 0.00908755 0 -0.0279334 8.43542e-10 0 3.19391e-10 0 2.32348e-08
39 3 0.001 0.00900336 0 -0.0273085 -4.38395e-10 0 1.50206e-10 0 2.31068e-08
40 3 0.001 0.00890376 0 -0.0266858 -4.97331e-10 0 5.42009e-11 0 2.29288e-08
41 3 0.001 0.00878934 0 -0.0260657 -3.20164e-10 0 2.36342e-10 0 2.27325e-08
44 3 0.001 0.00836408 0 -0.0242226 -1.24287e-09 0 -7.29075e-11 0 2.20795e-08
42 3 0.001 0.00866076 0 -0.0254483 2.7624e-10 0 2.73521e-10 0 2.25224e-08
43 3 0.001 0.00851874 0 -0.0248339 -4.33711e-11 0 1.92687e-10 0 2.23032e-08
46 3 0.001 0.00802029 0 -0.0230091 -9.236e-10 0 -5.62855e-12 0 2.16376e-08
45 3 0.001 0.00819763 0 -0.0236143 7.13365e-10 0 3.59768e-10 0 2.18561e-08
47 3 0.001 0.00783302 0 -0.0224068 3.95507e-10 0 4.01184e-10 0 2.14284e-08
48 3 0.001 0.00763681 0 -0.0218075 -1.36724e-09 0 -2.74565e-10 0 2.12325e-08
49 3 0.001 0.00743267 0 -0.0212107 4.53658e-10 0 4.16354e-10 0 2.10539e-08
51 3 0.001 0.00700487 0 -0.0200241 -3.28814e-10 0 1.50089e-10 0 2.07611e-08
50 3 0.001 0.00722167 0 -0.0206164 -6.75606e-10 0 -4.07536e-11 0 2.08958e-08
53 3 0.001 0.00655827 0 -0.0188443 -7.29161e-10 0 -1.366e-10 0 2.05714e-08
54 3 0.001 0.0063307 0 -0.0182561 1.75323e-10 0 2.58581e-10 0 2.05198e-08
52 3 0.001 0.00678337 0 -0.0194335 -4.12017e-10 0 1.91783e-10 0 2.06523e-08
56 3 0.001 0.00587261 0 -0.0170807 -5.0569e-11 0 2.44323e-10 0 2.05076e-08
55 3 0.001 0.00610177 0 -0.0176684 -8.85893e-10 0 -9.21984e-11 0 2.04984e-08
59 3 0.001 0.00519505 0 -0.015314 -3.68335e-10 0 1.42788e-12 0 2.07142e-08
58 3 0.001 0.00541813 0 -0.015904 8.05738e-11 0 1.79086e-10 0 2.06164e-08
57 3 0.001 0.00564436 0 -0.0164928 -1.33859e-09 0 -1.54238e-10 0 2.05471e-08
61 3 0.001 0.00476277 0 -0.014129 -7.3783e-10 0 -7.44515e-11 0 2.09878e-08
60 3 0.001 0.00497623 0 -0.0147225 -5.05595e-10 0 7.17708e-11 0 2.08387e-08
63 3 0.001 0.00435623 0 -0.012935 -4.73203e-11 0 1.93542e-10 0 2.13479e-08
64 3 0.001 0.00416525 0 -0.0123339 -1.15845e-09 0 -2.55374e-10 0 2.15523e-08
62 3 0.001 0.00455575 0 -0.0135333 -5.73166e-10 0 9.8452e-11 0 2.11586e-08
66 3 0.001 0.00381288 0 -0.0111229 -7.80712e-10 0 -6.68686e-11 0 2.19896e-08
65 3 0.001 0.00398381 0 -0.0117299 -6.42757e-11 0 1.88568e-10 0 2.17676e-08
68 3 0.001 0.00350619 0 -0.00989954 -1.16068e-09 0 -7.85998e-11 0 2.24353e-08
69 3 0.001 0.00337212 0 -0.00928335 1.28247e-10 0 5.77868e-11 0 2.26496e-08
67 3 0.001 0.00365338 0 -0.0105127 -4.0429e-10 0 7.41634e-11 0 2.22137e-08
71 3 0.001 0.00314632 0 -0.00804264 -5.97282e-10 0 5.37111e-11 0 2.3038e-08
70 3 0.001 0.00325194 0 -0.00866432 -9.13142e-10 0 -1.65937e-11 0 2.2852e-08
72 3 0.001 0.00305588 0 -0.00741859 -9.20824e-10 0 -5.26771e-11 0 2.32033e-08
73 3 0.001 0.00298114 0 -0.00679247 -4.16249e-10 0 6.69011e-11 0 2.33443e-08
74 3 0.001 0.00292254 0 -0.00616465 -5.39686e-10 0 -1.03017e-10 0 2.34575e-08
75 3 0.001 0.00288044 0 -0.00553551 -9.12096e-10 0 -3.10003e-11 0 2.35403e-08
76 3 0.001 0.00285507 0 -0.00490547 -4.2406e-10 0 1.12481e-10 0 2.35909e-08
77 3 0.001 0.0028466 0 -0.00427498 -8.09233e-10 0 3.93862e-12 0 2.36078e-08
78 3 0.001 0.00285507 0 -0.0036445 -9.13808e-10 0 5.79553e-11 0 2.35909e-08
79 3 0.001 0.00288043 0 -0.00301446 2.61361e-11 0 -1.08307e-10 0 2.35404e-08
80 3 0.001 0.00292253 0 -0.00238532 -1.52008e-09 0 -5.43159e-12 0 2.34575e-08
81 3 0.001 0.00298113 0 -0.0017575 1.55499e-10 0 1.08256e-11 0 2.33443e-08
82 3 0.001 0.00305586 0 -0.00113138 -1.48264e-09 0 1.39039e-10 0 2.32034e-08
83 3 0.001 0.0031463 0 -0.000507327 5.02042e-11 0 -8.79197e-11 0 2.30381e-08
84 3 0.001 0.00325192 0 0.000114347 -9.05712e-10 0 5.20688e-11 0 2.28521e-08
85 3 0.001 0.0033721 0 0.000733382 -6.42482e-10 0 -8.54737e-11 0 2.26497e-08
86 3 0.001 0.00350616 0 0.00134957 -8.64986e-10 0 1.49587e-10 0 2.24354e-08
87 3 0.001 0.00365335 0 0.00196278 9.21756e-11 0 -1.56022e-10 0 2.22138e-08
88 3 0.001 0.00381285 0 0.00257291 -1.24914e-09 0 1.06593e-10 0 2.19897e-08
89 3 0.001 0.00398378 0 0.00317995 -9.53246e-11 0 -9.0502e-11 0 2.17677e-08
90 3 0.001 0.00416522 0 0.00378394 -8.32331e-10 0 7.22646e-11 0 2.15524e-08
91 3 0.001 0.0043562 0 0.00438501 -7.92778e-10 0 1.11637e-10 0 2.13481e-08
92 3 0.001 0.00455572 0 0.0049833 1.07186e-10 0 -2.6249e-10 0 2.11587e-08
93 3 0.001 0.00476274 0 0.00557905 -9.04383e-10 0 -2.71301e-11 0 2.09879e-08
94 3 0.001 0.0049762 0 0.00617254 -4.10593e-10 0 3.39234e-11 0 2.08389e-08
95 3 0.001 0.00519501 0 0.00676408 -3.27551e-10 0 -8.46082e-12 0 2.07144e-08
96 3 0.001 0.00541809 0 0.00735404 -8.92683e-10 0 9.07485e-11 0 2.06166e-08
97 3 0.001 0.00564432 0 0.0079428 4.38211e-10 0 -4.29578e-10 0 2.05473e-08
98 3 0.001 0.00587257 0 0.00853078 -1.89987e-09 0 4.04987e-10 0 2.05078e-08
99 3 0.001 0.00610173 0 0.00911841 6.22853e-10 0 -4.28701e-10 0 2.04986e-08
100 3 0.001 0.00633066 0 0.00970613 -6.28264e-10 0 9.79577e-11 0 2.052e-08
101 3 0.001 0.00655824 0 0.0102944 -4.18643e-10 0 -1.09118e-10 0 2.05716e-08
102 3 0.001 0.00678333 0 0.0108836 -5.23085e-10 0 -7.18837e-12 0 2.06526e-08
103 3 0.001 0.00700484 0 0.0114741 -8.81361e-10 0 1.07969e-11 0 2.07613e-08
104 3 0.001 0.00722164 0 0.0120664 5.65411e-10 0 -4.90099e-10 0 2.0896e-08
105 3 0.001 0.00743264 0 0.0126608 -5.86461e-10 0 1.12243e-10 0 2.10541e-08
106 3 0.001 0.00763678 0 0.0132575 -6.96066e-10 0 -3.32446e-11 0 2.12328e-08
107 3 0.001 0.007833 0 0.0138569 -3.16806e-10 0 -1.71402e-10 0 2.14286e-08
108 3 0.001 0.00802027 0 0.0144591 -1.56392e-10 0 -1.82982e-10 0 2.16379e-08
109 3 0.001 0.00819761 0 0.0150643 9.12721e-11 0 -2.48326e-10 0 2.18564e-08
110 3 0.001 0.00836406 0 0.0156726 -6.78042e-10 0 6.00523e-11 0 2.20798e-08
111 3 0.001 0.00851872 0 0.016284 -2.15481e-10 0 -2.03031e-10 0 2.23035e-08
112 3 0.001 0.00866074 0 0.0168984 -3.15622e-10 0 -2.40093e-10 0 2.25228e-08
113 3 0.001 0.00878933 0 0.0175157 6.91752e-10 0 -3.11039e-10 0 2.27329e-08
114 3 0.001 0.00890375 0 0.0181358 -1.41262e-09 0 3.39298e-11 0 2.29292e-08
115 3 0.001 0.00900335 0 0.0187585 1.01789e-09 0 -2.70513e-10 0 2.31071e-08
116 3 0.001 0.00908755 0 0.0193834 -1.36074e-09 0 6.16957e-12 0 2.32352e-08
117 3 0.001 0.00915586 0 0.0200103 1.07294e-09 0 -4.35456e-10 0 2.32944e-08
118 3 0.001 0.00920784 0 0.0206387 -8.4827e-10 0 -1.48022e-10 0 2.33233e-08
119 3 0.001 0.00924306 0 0.0212683 2.96322e-10 0 -2.05759e-10 0 2.33799e-08
120 3 0.001 0.00926106 0 0.0218986 -2.6174e-10 0 -1.07478e-10 0 2.35158e-08
121 3 0.001 0.00926129 0 0.0225291 -1.20212e-12 0 -1.07302e-10 0 2.37639e-08
122 3 0.001 0.00924316 0 0.0231594 -2.55098e-11 0 -3.34621e-10 0 2.41304e-08
123 3 0.001 0.00920598 0 0.0237888 -1.1669e-10 0 -2.27129e-10 0 2.459e-08
124 3 0.001 0.00914903 0 0.0244167 4.04355e-10 0 -6.51838e-11 0 2.50856e-08
125 3 0.001 0.00907157 0 0.0250423 -9.51486e-10 0 -3.1633e-10 0 2.5539e-08
126 3 0.001 0.00897295 0 0.025665 6.14837e-10 0 -3.39268e-11 0 2.5902e-08
127 3 0.001 0.00885262 0 0.0262838 -2.95203e-10 0 -3.2116e-10 0 2.61883e-08
130 3 0.001 0.00835836 0 0.0281083 3.14802e-10 0 -8.35306e-11 0 2.6663e-08
129 3 0.001 0.00854546 0 0.0275064 -5.8667e-10 0 -2.52066e-10 0 2.65741e-08
128 3 0.001 0.00871019 0 0.0268979 1.68025e-10 0 -1.43162e-10 0 2.64144e-08
131 3 0.001 0.00814899 0 0.0287029 -3.13066e-11 0 -1.4461e-10 0 2.66788e-08
132 3 0.001 0.00791762 0 0.0292893 -8.92836e-10 0 -5.73244e-10 0 2.66209e-08
133 3 0.001 0.00766466 0 0.0298667 3.23916e-10 0 -9.2212e-11 0 2.64909e-08
134 3 0.001 0.00739067 0 0.0304344 3.80605e-10 0 2.13136e-10 0 2.62925e-08
135 3 0.001 0.00709634 0 0.0309918 -8.94752e-10 0 -6.05373e-10 0 2.6031e-08
136 3 0.001 0.00678248 0 0.0315386 -1.74559e-10 0 -2.72424e-10 0 2.57136e-08
137 3 0.001 0.00644999 0 0.0320742 -2.34933e-10 0 -2.61515e-10 0 2.53485e-08
138 3 0.001 0.00609988 0 0.0325985 4.93692e-10 0 1.5866e-10 0 2.49452e-08
140 3 0.001 0.00535116 0 0.033613 -3.36282e-10 0 -2.96717e-10 0 2.40645e-08
141 3 0.001 0.00495485 0 0.0341034 -2.39289e-10 0 -2.96589e-10 0 2.36079e-08
139 3 0.001 0.00573323 0 0.0331114 -7.61182e-10 0 -5.63202e-10 0 2.45137e-08
144 3 0.001 0.00369262 0 0.035512 -6.94422e-10 0 -7.89561e-10 0 2.22939e-08
142 3 0.001 0.00454551 0 0.034583 1.79812e-10 0 1.7461e-10 0 2.31543e-08
143 3 0.001 0.00412436 0 0.0350523 -1.30277e-11 0 -1.34601e-10 0 2.27133e-08
148 3 0.001 0.00188418 0 0.0372702 -8.7647e-10 0 -1.10649e-09 0 2.09839e-08
145 3 0.001 0.00325153 0 0.0359627 1.48856e-10 0 1.99289e-10 0 2.19045e-08
146 3 0.001 0.00280229 0 0.0364053 -4.79764e-10 0 -4.67788e-10 0 2.15523e-08
147 3 0.001 0.00234611 0 0.0368408 4.97079e-10 0 6.44919e-10 0 2.12436e-08
151 3 0.001 0.000474994 0 0.038534 -2.11488e-11 0 1.00245e-10 0 1.10443e-08
149 3 0.001 0.00141767 0 0.0376947 8.18262e-10 0 6.61685e-10 0 2.04943e-08
150 3 0.001 0.000947715 0 0.0381154 -5.54203e-10 0 -4.15509e-10 0 1.56055e-08
2 2 0.001 0 0 0.03895 -0.00610995 0 0.0169215 0 5.49971e-09
