ITEM: TIMESTEP
5700000
ITEM: NUMBER OF ATOMS
151
ITEM: BOX BOUNDS ff ff ff
-1.0000000000000000e-02 1.0000000000000000e-02
-6.0000000000000001e-03 6.0000000000000001e-03
-5.2499999999999998e-02 5.2499999999999998e-02
ITEM: ATOMS id type radius x y z fx fy fz c_bendingE c_stretchingE
1 1 0.001 0 0 -0.0475 -0.00472512 0 -0.01582 0 3.70828e-09
3 3 0.001 0.000489129 0 -0.0471001 3.39392e-11 0 -3.66963e-11 0 7.45834e-09
4 3 0.001 0.000975932 0 -0.0466975 -6.33814e-11 0 7.78943e-11 0 1.13338e-08
5 3 0.001 0.0014599 0 -0.0462924 5.90154e-11 0 -8.89391e-11 0 1.54985e-08
6 3 0.001 0.00194032 0 -0.0458833 -5.04852e-11 0 7.0443e-11 0 1.5946e-08
7 3 0.001 0.00241604 0 -0.0454687 4.95378e-11 0 -4.73696e-11 0 1.62053e-08
8 3 0.001 0.00288582 0 -0.0450474 -6.48176e-11 0 7.22715e-11 0 1.65154e-08
9 3 0.001 0.00334841 0 -0.0446182 4.27874e-11 0 -5.33122e-11 0 1.6872e-08
10 3 0.001 0.00380254 0 -0.0441802 -1.04313e-12 0 1.05199e-12 0 1.72701e-08
11 3 0.001 0.0042469 0 -0.0437323 -2.14031e-11 0 1.55611e-11 0 1.77035e-08
12 3 0.001 0.00468017 0 -0.0432737 8.01265e-12 0 3.69961e-12 0 1.8165e-08
13 3 0.001 0.00510099 0 -0.0428037 -6.89759e-12 0 1.41e-11 0 1.86465e-08
14 3 0.001 0.005508 0 -0.0423217 -3.95051e-12 0 1.39841e-12 0 1.9139e-08
15 3 0.001 0.00589986 0 -0.0418274 3.53909e-11 0 -2.65954e-11 0 1.96328e-08
16 3 0.001 0.00627521 0 -0.0413205 -1.43514e-10 0 9.58659e-11 0 2.01175e-08
17 3 0.001 0.00663274 0 -0.0408008 2.07671e-10 0 -1.26914e-10 0 2.05826e-08
18 3 0.001 0.00697118 0 -0.0402686 -2.20945e-10 0 1.38713e-10 0 2.10172e-08
19 3 0.001 0.00728932 0 -0.039724 1.44088e-10 0 -7.15971e-11 0 2.14109e-08
20 3 0.001 0.00758604 0 -0.0391675 -9.45117e-11 0 5.21995e-11 0 2.1754e-08
21 3 0.001 0.00786031 0 -0.0385997 3.32967e-11 0 -1.77216e-11 0 2.20376e-08
22 3 0.001 0.00811122 0 -0.0380211 -6.1441e-11 0 3.17957e-11 0 2.22542e-08
23 3 0.001 0.00833801 0 -0.0374327 3.40696e-11 0 -9.50662e-13 0 2.2398e-08
24 3 0.001 0.00854003 0 -0.0368353 -5.14336e-11 0 3.01087e-11 0 2.24652e-08
25 3 0.001 0.00871684 0 -0.03623 -4.94172e-12 0 4.63892e-12 0 2.24538e-08
26 3 0.001 0.00886815 0 -0.0356178 5.1118e-11 0 2.08723e-14 0 2.23643e-08
27 3 0.001 0.00899383 0 -0.0349998 -1.0725e-10 0 2.93961e-11 0 2.21989e-08
28 3 0.001 0.00909397 0 -0.0343772 -2.78771e-13 0 2.71227e-12 0 2.19297e-08
29 3 0.001 0.00916881 0 -0.033751 5.02531e-11 0 1.04631e-11 0 2.15544e-08
30 3 0.001 0.00921873 0 -0.0331223 -2.65773e-11 0 2.30232e-11 0 2.11507e-08
31 3 0.001 0.00924421 0 -0.0324921 -1.10526e-10 0 1.30516e-11 0 2.08041e-08
32 3 0.001 0.00924573 0 -0.0318614 5.01514e-11 0 9.18417e-12 0 2.05625e-08
33 3 0.001 0.00922375 0 -0.031231 1.13633e-10 0 1.97955e-11 0 2.04261e-08
34 3 0.001 0.00917872 0 -0.0306019 -2.77286e-10 0 -1.53762e-11 0 2.03517e-08
35 3 0.001 0.00911109 0 -0.0299748 2.16187e-10 0 4.01098e-11 0 2.02676e-08
36 3 0.001 0.00902133 0 -0.0293505 -1.50257e-10 0 -6.12539e-12 0 2.01043e-08
37 3 0.001 0.00890998 0 -0.0287296 3.40713e-11 0 2.6962e-11 0 1.98638e-08
38 3 0.001 0.00877773 0 -0.0281128 -5.85921e-11 0 -8.04024e-12 0 1.95831e-08
39 3 0.001 0.00862535 0 -0.0275007 -2.07605e-11 0 5.75663e-12 0 1.9273e-08
42 3 0.001 0.00805675 0 -0.0256962 1.09888e-10 0 5.51322e-11 0 1.82357e-08
41 3 0.001 0.00826384 0 -0.0262921 -1.44819e-10 0 -3.0251e-11 0 1.8592e-08
40 3 0.001 0.00845373 0 -0.0268937 1.12835e-11 0 1.51696e-11 0 1.89402e-08
44 3 0.001 0.0075955 0 -0.0245218 -7.46726e-11 0 -2.52909e-11 0 1.75269e-08
43 3 0.001 0.00783357 0 -0.0251061 -1.27239e-10 0 -2.87468e-11 0 1.78783e-08
46 3 0.001 0.00707963 0 -0.0233702 -5.2391e-11 0 -5.42821e-12 0 1.6867e-08
45 3 0.001 0.00734376 0 -0.0239433 1.52952e-11 0 9.15749e-12 0 1.71878e-08
47 3 0.001 0.00680438 0 -0.0228025 -3.82759e-11 0 3.80287e-12 0 1.65698e-08
49 3 0.001 0.00622587 0 -0.0216809 1.61051e-10 0 9.55159e-11 0 1.60651e-08
48 3 0.001 0.00651935 0 -0.0222395 -1.76537e-10 0 -8.23931e-11 0 1.63012e-08
50 3 0.001 0.00592527 0 -0.021126 -1.7387e-10 0 -9.3738e-11 0 1.5865e-08
51 3 0.001 0.00561889 0 -0.0205743 2.87382e-11 0 2.78496e-11 0 1.57038e-08
52 3 0.001 0.00530811 0 -0.0200251 -1.18266e-10 0 -6.13603e-11 0 1.55837e-08
55 3 0.001 0.00436277 0 -0.0183848 1.35286e-10 0 8.17605e-11 0 1.54829e-08
54 3 0.001 0.00467869 0 -0.0189311 -1.74217e-10 0 -9.9484e-11 0 1.54725e-08
53 3 0.001 0.00499425 0 -0.0194776 7.03011e-11 0 5.57818e-11 0 1.55063e-08
58 3 0.001 0.00342637 0 -0.0167394 1.80035e-11 0 1.17862e-11 0 1.57745e-08
57 3 0.001 0.00373525 0 -0.0172897 -2.00336e-11 0 -1.47586e-11 0 1.56349e-08
56 3 0.001 0.00404784 0 -0.0178379 -1.1703e-10 0 -7.1272e-11 0 1.55372e-08
60 3 0.001 0.00282511 0 -0.0156298 -7.89431e-11 0 -4.34647e-11 0 1.61716e-08
59 3 0.001 0.00312254 0 -0.0161863 2.24334e-11 0 1.25777e-11 0 1.59542e-08
63 3 0.001 0.00198464 0 -0.0139338 3.87125e-11 0 1.78468e-12 0 1.70149e-08
62 3 0.001 0.00225483 0 -0.014504 4.28391e-12 0 -7.61354e-12 0 1.6706e-08
61 3 0.001 0.00253543 0 -0.0150692 2.98036e-11 0 7.80846e-12 0 1.64235e-08
65 3 0.001 0.00148068 0 -0.012777 1.09477e-10 0 4.09723e-11 0 1.76907e-08
64 3 0.001 0.00172616 0 -0.0133583 -7.47822e-11 0 -3.80693e-11 0 1.7345e-08
66 3 0.001 0.00124945 0 -0.01219 -2.0705e-11 0 -1.45462e-11 0 1.80458e-08
67 3 0.001 0.00103368 0 -0.0115972 -1.55641e-11 0 -1.09337e-11 0 1.84035e-08
68 3 0.001 0.000834533 0 -0.0109986 5.79073e-11 0 5.74819e-12 0 1.87569e-08
71 3 0.001 0.000347352 0 -0.00917059 1.74182e-10 0 3.56278e-11 0 1.9719e-08
69 3 0.001 0.000653094 0 -0.0103944 3.45662e-11 0 -1.46462e-12 0 1.90988e-08
70 3 0.001 0.000490388 0 -0.00978495 -9.45144e-11 0 -3.49645e-11 0 1.94219e-08
72 3 0.001 0.000224825 0 -0.00855183 -9.51765e-11 0 -2.24417e-11 0 1.99835e-08
73 3 0.001 0.000123538 0 -0.00792926 1.66355e-10 0 1.73252e-11 0 2.02092e-08
74 3 0.001 4.41038e-05 0 -0.00730354 -1.98924e-10 0 -2.27302e-11 0 2.03908e-08
75 3 0.001 -1.29893e-05 0 -0.00667539 3.31272e-10 0 2.14336e-11 0 2.05238e-08
76 3 0.001 -4.73887e-05 0 -0.0060456 -2.58379e-10 0 -2.09318e-11 0 2.06049e-08
77 3 0.001 -5.88803e-05 0 -0.00541498 2.28941e-10 0 8.44198e-12 0 2.06322e-08
78 3 0.001 -4.73923e-05 0 -0.00478436 -2.4345e-11 0 -2.31221e-12 0 2.06049e-08
79 3 0.001 -1.29964e-05 0 -0.00415457 -1.71096e-13 0 5.69738e-12 0 2.05238e-08
80 3 0.001 4.40932e-05 0 -0.00352643 8.25487e-13 0 6.62091e-12 0 2.03909e-08
81 3 0.001 0.000123523 0 -0.00290071 1.32305e-10 0 -1.99236e-11 0 2.02093e-08
82 3 0.001 0.000224807 0 -0.00227813 -8.02338e-11 0 2.1263e-11 0 1.99836e-08
83 3 0.001 0.000347331 0 -0.00165937 5.78241e-11 0 -1.3017e-11 0 1.97191e-08
84 3 0.001 0.000490364 0 -0.00104501 4.9454e-11 0 7.24858e-12 0 1.9422e-08
85 3 0.001 0.000653067 0 -0.000435542 -8.58138e-12 0 3.25363e-12 0 1.90989e-08
86 3 0.001 0.000834504 0 0.000168637 4.38192e-11 0 -1.63594e-12 0 1.87571e-08
87 3 0.001 0.00103365 0 0.000767236 -7.69233e-12 0 5.84602e-12 0 1.84037e-08
88 3 0.001 0.00124942 0 0.00136007 3.41096e-11 0 4.93899e-13 0 1.80459e-08
89 3 0.001 0.00148065 0 0.00194708 -5.08906e-11 0 2.34213e-11 0 1.76909e-08
90 3 0.001 0.00172612 0 0.0025283 1.17565e-10 0 -4.39194e-11 0 1.73452e-08
91 3 0.001 0.0019846 0 0.00310388 -2.57085e-11 0 2.18851e-11 0 1.70151e-08
92 3 0.001 0.00225479 0 0.00367408 -7.72228e-11 0 4.53252e-11 0 1.67062e-08
93 3 0.001 0.00253539 0 0.00423925 9.04272e-11 0 -3.63571e-11 0 1.64237e-08
94 3 0.001 0.00282507 0 0.00479984 -1.08681e-11 0 6.92347e-12 0 1.61718e-08
95 3 0.001 0.0031225 0 0.00535638 -6.78726e-11 0 4.08084e-11 0 1.59544e-08
96 3 0.001 0.00342633 0 0.00590947 4.37265e-11 0 -1.72737e-11 0 1.57747e-08
97 3 0.001 0.00373521 0 0.00645977 -3.86945e-11 0 1.96277e-11 0 1.5635e-08
98 3 0.001 0.00404779 0 0.00700798 -7.5117e-12 0 2.98851e-12 0 1.55374e-08
99 3 0.001 0.00436272 0 0.00755486 -2.04323e-11 0 7.45048e-12 0 1.5483e-08
100 3 0.001 0.00467865 0 0.00810116 -6.52967e-11 0 3.957e-11 0 1.54727e-08
101 3 0.001 0.00499421 0 0.00864767 -1.2597e-11 0 -6.19793e-13 0 1.55064e-08
102 3 0.001 0.00530807 0 0.00919516 -1.15681e-11 0 7.53134e-12 0 1.55839e-08
103 3 0.001 0.00561885 0 0.00974438 -6.58895e-11 0 1.96804e-11 0 1.5704e-08
104 3 0.001 0.00592523 0 0.0102961 -4.2371e-11 0 1.67458e-11 0 1.58652e-08
105 3 0.001 0.00622583 0 0.0108509 -3.59399e-11 0 5.81846e-12 0 1.60653e-08
106 3 0.001 0.00651932 0 0.0114095 -9.46133e-12 0 -2.83796e-12 0 1.63014e-08
107 3 0.001 0.00680435 0 0.0119725 -1.42592e-10 0 6.56761e-11 0 1.657e-08
108 3 0.001 0.00707959 0 0.0125403 8.00193e-11 0 -4.77748e-11 0 1.68672e-08
109 3 0.001 0.00734373 0 0.0131133 -1.02206e-10 0 2.62446e-11 0 1.7188e-08
110 3 0.001 0.00759547 0 0.0136918 -4.02824e-11 0 1.42455e-12 0 1.75271e-08
111 3 0.001 0.00783355 0 0.0142761 -3.76163e-11 0 -2.48073e-13 0 1.78786e-08
112 3 0.001 0.00805672 0 0.0148662 6.76622e-11 0 -2.77306e-11 0 1.82359e-08
113 3 0.001 0.00826382 0 0.0154621 -2.44007e-10 0 6.91232e-11 0 1.85923e-08
114 3 0.001 0.00845371 0 0.0160637 1.41313e-10 0 -6.9449e-11 0 1.89405e-08
115 3 0.001 0.00862533 0 0.0166707 -1.53646e-11 0 6.61912e-12 0 1.92733e-08
116 3 0.001 0.00877772 0 0.0172829 -9.24745e-11 0 5.92665e-12 0 1.95835e-08
117 3 0.001 0.00890997 0 0.0178996 -5.6969e-11 0 -1.21246e-11 0 1.98641e-08
118 3 0.001 0.00902132 0 0.0185205 1.06067e-10 0 -2.95062e-11 0 2.01047e-08
119 3 0.001 0.00911109 0 0.0191448 -9.8495e-11 0 3.60704e-12 0 2.0268e-08
120 3 0.001 0.00917872 0 0.0197719 -4.56471e-11 0 -6.36738e-12 0 2.03522e-08
121 3 0.001 0.00922375 0 0.020401 8.71392e-11 0 -1.82429e-11 0 2.04265e-08
122 3 0.001 0.00924573 0 0.0210314 -9.55e-11 0 -1.14124e-11 0 2.05629e-08
123 3 0.001 0.00924422 0 0.0216621 3.56705e-11 0 -1.49878e-11 0 2.08046e-08
124 3 0.001 0.00921874 0 0.0222923 -1.32922e-11 0 -1.32295e-11 0 2.11511e-08
125 3 0.001 0.00916882 0 0.022921 -4.70662e-11 0 -1.84775e-11 0 2.15549e-08
126 3 0.001 0.00909398 0 0.0235472 9.4778e-12 0 -3.55893e-12 0 2.19302e-08
127 3 0.001 0.00899385 0 0.0241698 -7.71536e-12 0 -8.11703e-12 0 2.21995e-08
128 3 0.001 0.00886817 0 0.0247878 4.64755e-12 0 -1.18483e-11 0 2.23649e-08
131 3 0.001 0.00833803 0 0.0266027 3.18448e-11 0 9.60557e-12 0 2.23987e-08
129 3 0.001 0.00871687 0 0.0254 -4.44175e-11 0 -2.87353e-11 0 2.24545e-08
130 3 0.001 0.00854006 0 0.0260053 -1.64765e-11 0 -1.52453e-11 0 2.24659e-08
132 3 0.001 0.00811125 0 0.0271911 -1.0014e-10 0 -4.32685e-11 0 2.22549e-08
133 3 0.001 0.00786034 0 0.0277697 6.31779e-11 0 2.4994e-11 0 2.20383e-08
134 3 0.001 0.00758607 0 0.0283376 -2.89939e-11 0 -1.89825e-11 0 2.17547e-08
135 3 0.001 0.00728935 0 0.0288941 -7.80771e-12 0 -1.85824e-11 0 2.14117e-08
136 3 0.001 0.00697121 0 0.0294386 3.68111e-12 0 -5.95398e-12 0 2.10179e-08
137 3 0.001 0.00663276 0 0.0299709 -2.41056e-11 0 -1.69608e-11 0 2.05833e-08
138 3 0.001 0.00627523 0 0.0304905 -1.44588e-12 0 -2.74458e-12 0 2.01183e-08
139 3 0.001 0.00589988 0 0.0309974 -3.96658e-11 0 -2.43251e-11 0 1.96335e-08
141 3 0.001 0.00510101 0 0.0319737 -8.34951e-11 0 -7.56488e-11 0 1.86471e-08
142 3 0.001 0.00468019 0 0.0324437 4.27279e-11 0 2.17755e-11 0 1.81656e-08
140 3 0.001 0.00550803 0 0.0314918 7.83987e-11 0 6.21494e-11 0 1.91397e-08
144 3 0.001 0.00380256 0 0.0333502 -3.50786e-11 0 -2.87494e-11 0 1.72708e-08
145 3 0.001 0.00334843 0 0.0337883 5.98229e-11 0 6.21347e-11 0 1.68727e-08
143 3 0.001 0.00424692 0 0.0329023 1.06301e-12 0 6.50468e-12 0 1.77041e-08
148 3 0.001 0.00194033 0 0.0350533 -1.63153e-10 0 -1.99095e-10 0 1.59466e-08
149 3 0.001 0.0014599 0 0.0354624 1.08119e-10 0 1.25336e-10 0 1.54991e-08
146 3 0.001 0.00288583 0 0.0342174 -1.25108e-10 0 -1.41468e-10 0 1.6516e-08
147 3 0.001 0.00241605 0 0.0346387 1.64175e-10 0 1.88558e-10 0 1.62059e-08
151 3 0.001 0.000489132 0 0.0362701 8.36956e-12 0 1.65987e-11 0 7.45873e-09
2 2 0.001 0 0 0.03667 -0.00472529 0 0.0158203 0 3.70847e-09
150 3 0.001 0.000975937 0 0.0358675 -4.72196e-11 0 -4.98175e-11 0 1.13343e-08
