ITEM: TIMESTEP
2900000
ITEM: NUMBER OF ATOMS
151
ITEM: BOX BOUNDS ff ff ff
-1.0000000000000000e-02 1.0000000000000000e-02
-6.0000000000000001e-03 6.0000000000000001e-03
-5.2499999999999998e-02 5.2499999999999998e-02
ITEM: ATOMS id type radius x y z fx fy fz c_bendingE c_stretchingE
1 1 0.001 0 0 -0.0475 -0.00621806 0 -0.0165052 0 6.22707e-09
3 3 0.001 0.000417826 0 -0.0470267 2.17258e-09 0 -9.04857e-10 0 1.24788e-08
4 3 0.001 0.000833797 0 -0.0465519 -7.17895e-10 0 9.58668e-10 0 1.72303e-08
5 3 0.001 0.00124748 0 -0.0460759 -7.52186e-09 0 6.7408e-09 0 2.23024e-08
6 3 0.001 0.00165837 0 -0.0455975 1.87517e-08 0 -1.64256e-08 0 2.27105e-08
7 3 0.001 0.00206556 0 -0.045116 -2.91383e-08 0 2.4135e-08 0 2.28497e-08
8 3 0.001 0.00246814 0 -0.0446307 2.97602e-08 0 -2.36815e-08 0 2.30143e-08
9 3 0.001 0.00286519 0 -0.0441408 -1.78228e-08 0 1.35002e-08 0 2.32011e-08
10 3 0.001 0.0032558 0 -0.0436458 8.97745e-09 0 -7.25567e-09 0 2.34064e-08
11 3 0.001 0.00363906 0 -0.0431451 -5.35035e-09 0 4.04667e-09 0 2.36261e-08
12 3 0.001 0.00401409 0 -0.0426382 -1.78012e-08 0 1.27458e-08 0 2.38557e-08
13 3 0.001 0.00438003 0 -0.0421247 3.69409e-08 0 -2.37435e-08 0 2.40904e-08
14 3 0.001 0.00473601 0 -0.0416043 -2.64498e-08 0 1.78456e-08 0 2.4325e-08
15 3 0.001 0.00508122 0 -0.0410767 5.79877e-09 0 -5.84491e-09 0 2.45544e-08
16 3 0.001 0.00541487 0 -0.0405418 -7.41223e-09 0 2.75015e-09 0 2.47736e-08
17 3 0.001 0.00573623 0 -0.0399994 9.9807e-09 0 -5.09704e-09 0 2.49774e-08
18 3 0.001 0.0060446 0 -0.0394495 1.09208e-08 0 -3.30934e-09 0 2.51611e-08
19 3 0.001 0.00633934 0 -0.0388922 -4.11782e-08 0 2.13696e-08 0 2.53204e-08
20 3 0.001 0.0066199 0 -0.0383276 4.7255e-08 0 -2.4074e-08 0 2.54515e-08
21 3 0.001 0.00688577 0 -0.037756 -3.22046e-08 0 1.29515e-08 0 2.55511e-08
22 3 0.001 0.00713654 0 -0.0371776 8.88662e-10 0 -2.2086e-10 0 2.56169e-08
23 3 0.001 0.00737187 0 -0.0365927 2.28732e-08 0 -6.86646e-09 0 2.56471e-08
24 3 0.001 0.00759154 0 -0.0360018 -2.71312e-08 0 9.53914e-09 0 2.56412e-08
25 3 0.001 0.0077954 0 -0.0354052 3.40523e-08 0 -1.17985e-08 0 2.55991e-08
26 3 0.001 0.00798342 0 -0.0348035 -4.21225e-08 0 1.11846e-08 0 2.55221e-08
27 3 0.001 0.00815564 0 -0.034197 2.92075e-08 0 -9.51132e-09 0 2.54118e-08
28 3 0.001 0.00831223 0 -0.0335864 -1.82347e-08 0 5.59982e-09 0 2.52711e-08
29 3 0.001 0.00845347 0 -0.0329719 1.22121e-08 0 -1.48363e-09 0 2.51033e-08
30 3 0.001 0.00857971 0 -0.0323542 -5.23075e-09 0 2.05737e-09 0 2.49125e-08
31 3 0.001 0.00869142 0 -0.0317337 -5.9743e-09 0 1.41514e-09 0 2.47032e-08
32 3 0.001 0.00878916 0 -0.0311109 2.97408e-08 0 -5.18099e-09 0 2.44801e-08
33 3 0.001 0.00887358 0 -0.0304861 -5.57534e-08 0 6.66852e-09 0 2.42484e-08
34 3 0.001 0.00894541 0 -0.0298596 5.1065e-08 0 -5.97216e-09 0 2.40132e-08
35 3 0.001 0.00900547 0 -0.029232 -1.02628e-08 0 2.42038e-09 0 2.37794e-08
36 3 0.001 0.00905463 0 -0.0286034 -4.34323e-08 0 3.79996e-09 0 2.35444e-08
37 3 0.001 0.00909386 0 -0.027974 7.86506e-08 0 -5.43957e-09 0 2.33092e-08
38 3 0.001 0.00912412 0 -0.0273442 -8.67279e-08 0 3.37154e-09 0 2.30867e-08
39 3 0.001 0.00914644 0 -0.026714 7.00628e-08 0 -2.84954e-09 0 2.28895e-08
40 3 0.001 0.00916178 0 -0.0260836 -3.4669e-08 0 1.30565e-09 0 2.27252e-08
41 3 0.001 0.0091711 0 -0.0254531 -1.49827e-08 0 1.27346e-09 0 2.25965e-08
42 3 0.001 0.00917528 0 -0.0248225 4.69408e-08 0 -6.62561e-10 0 2.2502e-08
43 3 0.001 0.00917513 0 -0.0241919 -3.45846e-08 0 -6.14908e-10 0 2.2438e-08
44 3 0.001 0.00917138 0 -0.0235613 -1.37598e-09 0 -8.0762e-10 0 2.2399e-08
45 3 0.001 0.0091647 0 -0.0229307 1.75544e-08 0 -8.52126e-11 0 2.23795e-08
46 3 0.001 0.00915563 0 -0.0223001 -1.4279e-08 0 1.00725e-09 0 2.23741e-08
47 3 0.001 0.00914466 0 -0.0216696 1.02392e-08 0 1.14109e-10 0 2.2378e-08
48 3 0.001 0.00913221 0 -0.0210391 -1.15435e-09 0 1.04135e-09 0 2.23876e-08
49 3 0.001 0.0091186 0 -0.0204086 -1.06021e-08 0 -2.73208e-10 0 2.23997e-08
50 3 0.001 0.00910413 0 -0.0197782 3.95973e-09 0 -1.09743e-09 0 2.24123e-08
51 3 0.001 0.009089 0 -0.0191478 2.79268e-08 0 1.15371e-09 0 2.24239e-08
52 3 0.001 0.00907341 0 -0.0185173 -4.10588e-08 0 -1.96123e-09 0 2.24336e-08
53 3 0.001 0.00905749 0 -0.0178869 1.5254e-08 0 8.46598e-10 0 2.24411e-08
54 3 0.001 0.00904137 0 -0.0172565 9.78983e-09 0 5.79281e-10 0 2.24462e-08
55 3 0.001 0.00902515 0 -0.0166261 -1.25841e-08 0 -9.21439e-10 0 2.24492e-08
56 3 0.001 0.00900892 0 -0.0159957 1.47974e-08 0 1.24841e-09 0 2.24505e-08
57 3 0.001 0.00899276 0 -0.0153653 -3.79789e-09 0 2.55286e-10 0 2.24509e-08
58 3 0.001 0.00897676 0 -0.0147349 -2.57058e-08 0 -2.32379e-10 0 2.24512e-08
59 3 0.001 0.008961 0 -0.0141045 4.8214e-08 0 6.75499e-10 0 2.24517e-08
60 3 0.001 0.00894556 0 -0.0134741 -3.83054e-08 0 -1.90009e-09 0 2.24524e-08
61 3 0.001 0.00893052 0 -0.0128436 1.92427e-08 0 7.23283e-10 0 2.24531e-08
62 3 0.001 0.00891596 0 -0.0122132 -2.457e-09 0 -2.22534e-10 0 2.2454e-08
63 3 0.001 0.00890195 0 -0.0115827 -3.74342e-10 0 6.00039e-10 0 2.24549e-08
64 3 0.001 0.00888856 0 -0.0109523 -1.3147e-08 0 -3.3792e-10 0 2.24559e-08
65 3 0.001 0.00887587 0 -0.0103218 2.37463e-08 0 -2.02811e-10 0 2.2457e-08
66 3 0.001 0.00886394 0 -0.00969129 2.54385e-08 0 1.11854e-09 0 2.2458e-08
67 3 0.001 0.00885283 0 -0.00906077 -9.27554e-08 0 -1.16017e-09 0 2.24591e-08
68 3 0.001 0.00884259 0 -0.00843024 1.07479e-07 0 1.02324e-09 0 2.24601e-08
69 3 0.001 0.00883329 0 -0.0077997 -3.09552e-08 0 -7.90307e-10 0 2.24611e-08
70 3 0.001 0.00882496 0 -0.00716915 -6.38757e-08 0 -1.54708e-09 0 2.24621e-08
71 3 0.001 0.00881766 0 -0.00653858 1.1216e-07 0 2.29912e-09 0 2.2463e-08
72 3 0.001 0.00881141 0 -0.005908 -8.94856e-08 0 5.57341e-10 0 2.24637e-08
73 3 0.001 0.00880626 0 -0.00527741 4.5659e-08 0 1.37568e-11 0 2.24644e-08
74 3 0.001 0.00880222 0 -0.00464681 8.2262e-09 0 -1.85491e-10 0 2.24649e-08
75 3 0.001 0.00879932 0 -0.0040162 -3.74377e-08 0 -1.64706e-09 0 2.24653e-08
76 3 0.001 0.00879758 0 -0.00338559 4.38616e-08 0 6.29065e-10 0 2.24655e-08
77 3 0.001 0.00879699 0 -0.00275498 -2.66769e-08 0 8.81926e-10 0 2.24656e-08
78 3 0.001 0.00879757 0 -0.00212437 1.13153e-08 0 3.07726e-10 0 2.24655e-08
79 3 0.001 0.00879932 0 -0.00149376 1.86133e-08 0 2.20688e-10 0 2.24653e-08
80 3 0.001 0.00880222 0 -0.00086316 -3.82864e-08 0 -1.62366e-09 0 2.24649e-08
81 3 0.001 0.00880625 0 -0.000232562 4.5734e-08 0 -2.52927e-10 0 2.24644e-08
82 3 0.001 0.00881141 0 0.000398028 -2.72038e-08 0 2.34902e-10 0 2.24638e-08
83 3 0.001 0.00881765 0 0.00102861 9.99048e-09 0 -3.33203e-10 0 2.2463e-08
84 3 0.001 0.00882496 0 0.00165918 1.46944e-08 0 3.50119e-10 0 2.24622e-08
85 3 0.001 0.00883328 0 0.00228973 -2.77313e-08 0 2.52802e-10 0 2.24612e-08
86 3 0.001 0.00884259 0 0.00292028 1.99978e-08 0 -3.26321e-10 0 2.24602e-08
87 3 0.001 0.00885282 0 0.00355081 2.08237e-08 0 -1.14353e-09 0 2.24592e-08
88 3 0.001 0.00886393 0 0.00418132 -2.77632e-08 0 -5.04641e-10 0 2.24581e-08
89 3 0.001 0.00887587 0 0.00481182 -8.30544e-09 0 5.81708e-10 0 2.24571e-08
90 3 0.001 0.00888856 0 0.0054423 4.64776e-08 0 3.66024e-10 0 2.24561e-08
91 3 0.001 0.00890194 0 0.00607277 -3.91575e-08 0 1.79719e-09 0 2.24551e-08
92 3 0.001 0.00891595 0 0.00670323 1.34346e-08 0 -3.86579e-10 0 2.24541e-08
93 3 0.001 0.00893052 0 0.00733367 4.3051e-09 0 -2.4267e-09 0 2.24533e-08
94 3 0.001 0.00894556 0 0.0079641 -7.04147e-09 0 -7.56577e-10 0 2.24526e-08
95 3 0.001 0.008961 0 0.00859453 2.79192e-08 0 3.15085e-10 0 2.24519e-08
96 3 0.001 0.00897676 0 0.00922494 -5.16178e-08 0 2.83238e-09 0 2.24514e-08
97 3 0.001 0.00899276 0 0.00985535 5.10034e-08 0 -9.02559e-10 0 2.24511e-08
98 3 0.001 0.00900891 0 0.0104858 -2.29436e-08 0 -1.4205e-09 0 2.24507e-08
99 3 0.001 0.00902515 0 0.0111162 -2.82696e-09 0 -5.17663e-10 0 2.24494e-08
100 3 0.001 0.00904137 0 0.0117466 2.83118e-08 0 -3.63097e-10 0 2.24465e-08
101 3 0.001 0.00905749 0 0.012377 -4.25622e-08 0 1.75651e-09 0 2.24414e-08
102 3 0.001 0.0090734 0 0.0130074 3.58198e-08 0 -3.09943e-10 0 2.24339e-08
103 3 0.001 0.009089 0 0.0136378 -1.52085e-08 0 -1.22783e-09 0 2.24241e-08
104 3 0.001 0.00910412 0 0.0142682 -1.0298e-08 0 8.67152e-10 0 2.24125e-08
105 3 0.001 0.0091186 0 0.0148987 3.70337e-08 0 -7.48534e-10 0 2.24e-08
106 3 0.001 0.00913221 0 0.0155291 -3.8993e-08 0 5.29136e-11 0 2.23879e-08
107 3 0.001 0.00914466 0 0.0161596 1.44064e-08 0 -4.08466e-10 0 2.23784e-08
108 3 0.001 0.00915563 0 0.0167902 1.98795e-09 0 -9.1764e-10 0 2.23744e-08
109 3 0.001 0.0091647 0 0.0174207 1.68873e-08 0 1.75066e-09 0 2.23798e-08
110 3 0.001 0.00917139 0 0.0180513 -4.08864e-08 0 9.97594e-10 0 2.23993e-08
111 3 0.001 0.00917513 0 0.0186819 2.39842e-08 0 -1.71316e-09 0 2.24383e-08
112 3 0.001 0.00917528 0 0.0193125 1.94733e-08 0 -6.52626e-10 0 2.25024e-08
113 3 0.001 0.00917111 0 0.0199431 -5.52719e-08 0 -1.36361e-09 0 2.25968e-08
114 3 0.001 0.00916179 0 0.0205736 6.49585e-08 0 2.73953e-09 0 2.27255e-08
115 3 0.001 0.00914645 0 0.021204 -4.39625e-08 0 1.16158e-11 0 2.28898e-08
116 3 0.001 0.00912413 0 0.0218342 -3.00286e-10 0 -1.85548e-09 0 2.30871e-08
118 3 0.001 0.00905465 0 0.0230934 -3.1831e-08 0 -2.13855e-09 0 2.35448e-08
117 3 0.001 0.00909387 0 0.0224641 2.76786e-08 0 1.32361e-09 0 2.33096e-08
119 3 0.001 0.00900549 0 0.023722 2.71387e-08 0 3.76759e-09 0 2.37798e-08
121 3 0.001 0.00887361 0 0.0249761 -2.28619e-08 0 -5.6449e-09 0 2.42489e-08
120 3 0.001 0.00894544 0 0.0243497 -1.20679e-08 0 -1.00507e-09 0 2.40137e-08
122 3 0.001 0.00878919 0 0.0256009 4.76507e-08 0 7.08647e-09 0 2.44806e-08
123 3 0.001 0.00869145 0 0.0262238 -3.95021e-08 0 -6.30364e-09 0 2.47037e-08
124 3 0.001 0.00857974 0 0.0268443 -1.0765e-09 0 -3.09658e-10 0 2.49131e-08
125 3 0.001 0.0084535 0 0.027462 3.94778e-08 0 8.65985e-09 0 2.51039e-08
126 3 0.001 0.00831227 0 0.0280764 -5.73896e-08 0 -1.53568e-08 0 2.52717e-08
128 3 0.001 0.00798346 0 0.0292935 -1.70149e-08 0 -3.786e-09 0 2.55227e-08
127 3 0.001 0.00815568 0 0.0286871 5.19618e-08 0 1.46236e-08 0 2.54125e-08
130 3 0.001 0.00759159 0 0.0304918 8.29478e-08 0 3.00367e-08 0 2.56419e-08
129 3 0.001 0.00779545 0 0.0298953 -4.47019e-08 0 -1.60594e-08 0 2.55998e-08
131 3 0.001 0.00737192 0 0.0310827 -7.92315e-08 0 -3.00475e-08 0 2.56479e-08
132 3 0.001 0.00713658 0 0.0316676 4.03933e-08 0 1.71952e-08 0 2.56176e-08
133 3 0.001 0.00688581 0 0.032246 -2.45989e-09 0 8.91808e-10 0 2.55519e-08
136 3 0.001 0.00604464 0 0.0339395 -4.61413e-08 0 -2.64084e-08 0 2.51619e-08
135 3 0.001 0.00633939 0 0.0333822 3.22404e-08 0 1.49278e-08 0 2.53212e-08
134 3 0.001 0.00661995 0 0.0328176 -1.72551e-08 0 -9.50664e-09 0 2.54522e-08
138 3 0.001 0.00541491 0 0.0350318 -3.42719e-08 0 -1.88313e-08 0 2.47744e-08
139 3 0.001 0.00508126 0 0.0355668 1.74325e-08 0 1.18221e-08 0 2.45552e-08
137 3 0.001 0.00573627 0 0.0344894 4.20162e-08 0 2.48638e-08 0 2.49782e-08
142 3 0.001 0.00401413 0 0.0371282 3.87236e-08 0 2.71604e-08 0 2.38565e-08
141 3 0.001 0.00438006 0 0.0366148 -3.56033e-08 0 -2.68672e-08 0 2.40911e-08
140 3 0.001 0.00473604 0 0.0360944 1.16575e-08 0 8.28036e-09 0 2.43258e-08
143 3 0.001 0.00363909 0 0.0376351 -3.30967e-08 0 -2.41963e-08 0 2.36269e-08
144 3 0.001 0.00325582 0 0.0381358 1.34103e-08 0 1.19617e-08 0 2.34072e-08
145 3 0.001 0.00286521 0 0.0386308 6.98632e-09 0 7.46696e-09 0 2.32018e-08
147 3 0.001 0.00206558 0 0.039606 -1.20629e-08 0 -1.24882e-08 0 2.28504e-08
148 3 0.001 0.00165839 0 0.0400875 7.79612e-09 0 4.96381e-09 0 2.27112e-08
146 3 0.001 0.00246816 0 0.0391207 -5.56555e-09 0 -6.04035e-09 0 2.3015e-08
151 3 0.001 0.00041783 0 0.0415167 2.13898e-08 0 2.07051e-08 0 1.24794e-08
150 3 0.001 0.000833804 0 0.0410419 -3.82225e-08 0 -3.04665e-08 0 1.7231e-08
149 3 0.001 0.00124749 0 0.0405659 2.19471e-08 0 1.96332e-08 0 2.23031e-08
2 2 0.001 0 0 0.04199 -0.00621822 0 0.0165055 0 6.22734e-09
