ITEM: TIMESTEP
7800000
ITEM: NUMBER OF ATOMS
151
ITEM: BOX BOUNDS ff ff ff
-1.0000000000000000e-02 1.0000000000000000e-02
-6.0000000000000001e-03 6.0000000000000001e-03
-5.2499999999999998e-02 5.2499999999999998e-02
ITEM: ATOMS id type radius x y z fx fy fz c_bendingE c_stretchingE
1 1 0.001 0 0 -0.0475 -0.00293909 0 -0.0149357 0 2.05389e-09
3 3 0.001 0.00050859 0 -0.0471245 -5.94053e-12 0 8.93085e-14 0 4.14618e-09
4 3 0.001 0.00101475 0 -0.0467458 9.55719e-12 0 -6.35726e-12 0 7.22265e-09
5 3 0.001 0.00151795 0 -0.0463643 -1.42607e-11 0 1.83596e-11 0 1.05477e-08
6 3 0.001 0.00201743 0 -0.045978 3.74151e-13 0 -1.62396e-12 0 1.09547e-08
7 3 0.001 0.00251196 0 -0.0455854 -2.30806e-12 0 -4.14624e-12 0 1.12232e-08
8 3 0.001 0.00300021 0 -0.045185 -1.56372e-13 0 1.1331e-11 0 1.15473e-08
9 3 0.001 0.00348082 0 -0.0447756 -6.85283e-12 0 3.62009e-12 0 1.19244e-08
10 3 0.001 0.00395238 0 -0.0443558 -1.3822e-11 0 1.31516e-11 0 1.23509e-08
11 3 0.001 0.00441343 0 -0.0439246 7.63018e-12 0 -6.21067e-12 0 1.28221e-08
12 3 0.001 0.00486245 0 -0.0434809 -9.23411e-12 0 1.515e-11 0 1.33322e-08
13 3 0.001 0.00529789 0 -0.0430239 -1.78471e-11 0 1.17535e-11 0 1.38744e-08
14 3 0.001 0.00571816 0 -0.042553 1.56279e-11 0 -4.17482e-12 0 1.44403e-08
15 3 0.001 0.00612163 0 -0.0420677 -3.10396e-11 0 2.08451e-11 0 1.50206e-08
16 3 0.001 0.00650667 0 -0.0415677 7.42313e-12 0 -5.79815e-12 0 1.56047e-08
17 3 0.001 0.00687165 0 -0.0410529 -2.30265e-11 0 2.80392e-11 0 1.6181e-08
18 3 0.001 0.00721499 0 -0.0405234 2.4378e-11 0 -1.22212e-11 0 1.67374e-08
19 3 0.001 0.00753512 0 -0.0399797 -4.63898e-11 0 3.01135e-11 0 1.72612e-08
20 3 0.001 0.00783059 0 -0.0394223 8.73465e-12 0 -2.35089e-12 0 1.774e-08
21 3 0.001 0.00810003 0 -0.0388518 7.87188e-12 0 3.55252e-12 0 1.81616e-08
22 3 0.001 0.00834217 0 -0.0382692 -3.23797e-11 0 1.60532e-11 0 1.85152e-08
23 3 0.001 0.00855594 0 -0.0376757 4.21248e-12 0 7.84437e-12 0 1.8791e-08
24 3 0.001 0.00874039 0 -0.0370724 -1.60111e-11 0 1.09482e-11 0 1.89815e-08
25 3 0.001 0.0088948 0 -0.0364608 2.58312e-11 0 8.17659e-13 0 1.90813e-08
26 3 0.001 0.00901863 0 -0.0358423 -6.26662e-11 0 2.03904e-11 0 1.90842e-08
27 3 0.001 0.00911157 0 -0.0352183 4.07356e-11 0 -1.95813e-12 0 1.89619e-08
28 3 0.001 0.00917353 0 -0.0345905 -2.86556e-11 0 1.38118e-11 0 1.87376e-08
29 3 0.001 0.00920458 0 -0.0339604 -9.11007e-12 0 7.67077e-12 0 1.85047e-08
30 3 0.001 0.00920492 0 -0.0333296 -1.06363e-11 0 7.80451e-12 0 1.83277e-08
31 3 0.001 0.00917484 0 -0.0326994 2.22307e-12 0 1.26349e-11 0 1.82076e-08
32 3 0.001 0.00911472 0 -0.0320714 -2.52412e-11 0 4.48414e-12 0 1.8086e-08
33 3 0.001 0.00902503 0 -0.0314469 -1.26799e-11 0 2.23554e-12 0 1.78798e-08
34 3 0.001 0.00890637 0 -0.0308272 8.11433e-13 0 1.62657e-11 0 1.75725e-08
35 3 0.001 0.00875955 0 -0.0302136 -1.48549e-11 0 4.16539e-12 0 1.71981e-08
37 3 0.001 0.00838539 0 -0.0290087 3.36886e-12 0 1.31444e-11 0 1.63016e-08
36 3 0.001 0.00858552 0 -0.0296071 -2.93097e-11 0 -1.38783e-13 0 1.6771e-08
39 3 0.001 0.00791195 0 -0.0278391 -8.05457e-12 0 4.55696e-12 0 1.52801e-08
40 3 0.001 0.00764143 0 -0.0272689 -2.92277e-11 0 -4.19509e-12 0 1.47499e-08
38 3 0.001 0.00816042 0 -0.0284192 -1.79665e-11 0 3.57839e-12 0 1.5801e-08
43 3 0.001 0.00671293 0 -0.0256194 -3.58967e-11 0 -1.44348e-11 0 1.32031e-08
42 3 0.001 0.00704034 0 -0.026159 -1.18615e-11 0 8.89003e-12 0 1.37022e-08
41 3 0.001 0.00735038 0 -0.0267088 4.58799e-12 0 9.46726e-12 0 1.42207e-08
45 3 0.001 0.00601243 0 -0.0245691 -3.41777e-11 0 -1.30503e-11 0 1.22923e-08
44 3 0.001 0.00636976 0 -0.0250895 1.67181e-11 0 2.12392e-11 0 1.27309e-08
46 3 0.001 0.00564257 0 -0.0240574 8.27387e-12 0 3.99174e-12 0 1.18928e-08
48 3 0.001 0.00487156 0 -0.0230574 7.38512e-12 0 9.83698e-12 0 1.12286e-08
47 3 0.001 0.00526175 0 -0.0235538 -2.48211e-11 0 -8.17913e-12 0 1.15371e-08
49 3 0.001 0.00447354 0 -0.0225673 -2.93498e-11 0 -8.36092e-12 0 1.09702e-08
51 3 0.001 0.00366013 0 -0.0216012 -1.3425e-11 0 -1.53714e-11 0 1.06119e-08
52 3 0.001 0.00324772 0 -0.021123 -1.03451e-11 0 -4.05607e-12 0 1.05145e-08
50 3 0.001 0.00406923 0 -0.0220822 1.1855e-11 0 1.1977e-11 0 1.07642e-08
55 3 0.001 0.00200535 0 -0.0196929 7.95502e-12 0 3.90694e-12 0 1.05562e-08
54 3 0.001 0.00241886 0 -0.0201701 -1.35746e-11 0 -1.04704e-11 0 1.04866e-08
53 3 0.001 0.00283347 0 -0.0206464 1.10259e-11 0 1.28807e-11 0 1.04727e-08
57 3 0.001 0.0011875 0 -0.0187306 2.99306e-11 0 2.00745e-11 0 1.08602e-08
56 3 0.001 0.0015944 0 -0.0192134 -1.58405e-11 0 -1.28701e-11 0 1.0681e-08
58 3 0.001 0.000786135 0 -0.0182431 -2.14715e-11 0 -2.06246e-11 0 1.10926e-08
60 3 0.001 6.11504e-06 0 -0.0172501 2.81208e-12 0 3.6093e-12 0 1.17087e-08
59 3 0.001 0.000391828 0 -0.01775 1.52664e-11 0 6.26771e-12 0 1.13762e-08
61 3 0.001 -0.000369442 0 -0.0167426 -1.68262e-12 0 -1.00283e-11 0 1.20867e-08
63 3 0.001 -0.00108373 0 -0.0157016 2.45972e-11 0 5.17724e-12 0 1.29624e-08
64 3 0.001 -0.00141925 0 -0.0151669 -2.48144e-11 0 -1.5978e-11 0 1.34489e-08
62 3 0.001 -0.000733259 0 -0.0162266 1.1283e-11 0 6.78506e-12 0 1.25063e-08
65 3 0.001 -0.0017382 0 -0.0146222 4.32061e-11 0 1.63391e-11 0 1.39588e-08
66 3 0.001 -0.00203898 0 -0.0140673 -1.38635e-11 0 -1.40725e-11 0 1.44837e-08
69 3 0.001 -0.00281664 0 -0.0123421 -4.61617e-12 0 -1.61092e-12 0 1.60538e-08
68 3 0.001 -0.0025797 0 -0.012927 1.54645e-11 0 -2.01545e-12 0 1.55416e-08
67 3 0.001 -0.00231999 0 -0.0135022 2.31971e-11 0 7.04525e-12 0 1.50147e-08
71 3 0.001 -0.00321665 0 -0.0111455 2.90133e-12 0 -5.90508e-12 0 1.69899e-08
70 3 0.001 -0.00302939 0 -0.011748 3.36669e-11 0 7.71876e-12 0 1.65402e-08
72 3 0.001 -0.00337725 0 -0.0105353 1.36951e-11 0 7.03579e-13 0 1.7392e-08
73 3 0.001 -0.00351014 0 -0.00991856 2.94841e-11 0 6.02388e-12 0 1.77365e-08
74 3 0.001 -0.00361445 0 -0.00929634 -1.01661e-11 0 -6.12305e-12 0 1.80145e-08
75 3 0.001 -0.00368947 0 -0.00866992 6.00114e-11 0 7.60829e-12 0 1.82187e-08
76 3 0.001 -0.0037347 0 -0.00804067 -4.82607e-11 0 -3.13363e-12 0 1.83435e-08
77 3 0.001 -0.00374981 0 -0.00740998 7.23929e-11 0 -8.03175e-13 0 1.83855e-08
78 3 0.001 -0.0037347 0 -0.00677929 -1.27857e-11 0 3.19581e-12 0 1.83435e-08
79 3 0.001 -0.00368948 0 -0.00615004 3.24002e-11 0 3.21751e-12 0 1.82187e-08
80 3 0.001 -0.00361446 0 -0.00552363 -1.25947e-11 0 -3.13378e-13 0 1.80146e-08
81 3 0.001 -0.00351016 0 -0.0049014 4.59858e-11 0 -3.98461e-12 0 1.77366e-08
82 3 0.001 -0.00337727 0 -0.00428463 -1.62043e-11 0 9.29277e-12 0 1.73921e-08
83 3 0.001 -0.00321667 0 -0.00367446 5.08959e-11 0 -8.80196e-12 0 1.699e-08
84 3 0.001 -0.00302941 0 -0.00307191 -2.74049e-11 0 1.75952e-11 0 1.65404e-08
85 3 0.001 -0.00281667 0 -0.00247784 3.46029e-11 0 -9.15823e-12 0 1.60539e-08
86 3 0.001 -0.00257974 0 -0.00189296 -3.39525e-12 0 1.55321e-12 0 1.55417e-08
87 3 0.001 -0.00232002 0 -0.00131779 1.65969e-11 0 3.84013e-12 0 1.50148e-08
88 3 0.001 -0.00203901 0 -0.000752671 1.5427e-11 0 -1.23848e-12 0 1.44839e-08
89 3 0.001 -0.00173824 0 -0.000197774 -1.21329e-11 0 1.38493e-11 0 1.39589e-08
90 3 0.001 -0.0014193 0 0.000346923 3.25056e-11 0 -1.18895e-11 0 1.34491e-08
91 3 0.001 -0.00108378 0 0.00088162 -1.039e-11 0 1.25815e-11 0 1.29626e-08
92 3 0.001 -0.000733303 0 0.00140668 2.13058e-11 0 -1.43431e-11 0 1.25065e-08
93 3 0.001 -0.000369488 0 0.00192263 -2.24596e-11 0 3.00326e-11 0 1.20869e-08
94 3 0.001 6.06837e-06 0 0.00243014 4.40078e-11 0 -2.83592e-11 0 1.17088e-08
95 3 0.001 0.000391781 0 0.00293001 -1.8333e-11 0 2.19547e-11 0 1.13764e-08
96 3 0.001 0.000786088 0 0.00342316 1.92041e-11 0 -2.07384e-11 0 1.10927e-08
97 3 0.001 0.00118745 0 0.00391062 -2.30644e-11 0 3.10653e-11 0 1.08604e-08
98 3 0.001 0.00159435 0 0.00439348 2.80536e-11 0 -2.01221e-11 0 1.06812e-08
99 3 0.001 0.0020053 0 0.00487293 3.91165e-12 0 -2.07237e-12 0 1.05563e-08
100 3 0.001 0.00241882 0 0.00535017 -2.29008e-11 0 1.59282e-11 0 1.04867e-08
101 3 0.001 0.00283343 0 0.00582647 1.50768e-11 0 -9.90231e-12 0 1.04728e-08
102 3 0.001 0.00324767 0 0.00630308 5.67541e-12 0 -3.27394e-12 0 1.05147e-08
103 3 0.001 0.00366008 0 0.00678128 -3.40203e-11 0 2.48434e-11 0 1.06121e-08
104 3 0.001 0.00406919 0 0.00726228 2.77995e-11 0 -2.17244e-11 0 1.07643e-08
105 3 0.001 0.0044735 0 0.00774731 -1.57295e-11 0 1.67277e-12 0 1.09704e-08
106 3 0.001 0.00487152 0 0.00823749 -1.68832e-11 0 1.1762e-11 0 1.12287e-08
107 3 0.001 0.00526171 0 0.00873389 3.31166e-12 0 -8.33163e-12 0 1.15372e-08
108 3 0.001 0.00564253 0 0.00923748 -7.6263e-12 0 1.76629e-12 0 1.1893e-08
109 3 0.001 0.0060124 0 0.00974912 -2.44814e-11 0 8.84711e-12 0 1.22925e-08
110 3 0.001 0.00636973 0 0.0102696 1.24493e-11 0 -1.42619e-11 0 1.27311e-08
111 3 0.001 0.0067129 0 0.0107994 -3.69603e-11 0 1.27307e-11 0 1.32032e-08
112 3 0.001 0.00704032 0 0.0113391 1.48314e-11 0 -1.79435e-11 0 1.37024e-08
113 3 0.001 0.00735035 0 0.0118889 -3.90587e-11 0 2.00919e-11 0 1.4221e-08
114 3 0.001 0.00764141 0 0.0124489 8.79957e-12 0 -1.6885e-11 0 1.47501e-08
115 3 0.001 0.00791193 0 0.0130191 -2.5468e-11 0 7.84902e-13 0 1.52804e-08
116 3 0.001 0.0081604 0 0.0135992 -3.63856e-12 0 -9.61879e-12 0 1.58013e-08
117 3 0.001 0.00838538 0 0.0141887 -1.87525e-11 0 1.54108e-12 0 1.6302e-08
118 3 0.001 0.00858551 0 0.0147872 -1.11173e-11 0 -4.36185e-12 0 1.67713e-08
119 3 0.001 0.00875954 0 0.0153937 -7.21384e-12 0 -5.92601e-12 0 1.71985e-08
120 3 0.001 0.00890636 0 0.0160073 -2.83686e-11 0 -2.72587e-12 0 1.75729e-08
121 3 0.001 0.00902502 0 0.0166269 1.38901e-11 0 -1.4472e-11 0 1.78802e-08
122 3 0.001 0.00911472 0 0.0172514 -2.42265e-11 0 -6.59481e-12 0 1.80864e-08
123 3 0.001 0.00917485 0 0.0178794 3.15733e-12 0 5.30531e-12 0 1.8208e-08
124 3 0.001 0.00920493 0 0.0185096 -2.8675e-11 0 -1.68117e-11 0 1.83281e-08
125 3 0.001 0.00920459 0 0.0191405 2.79383e-11 0 -6.93575e-12 0 1.85052e-08
126 3 0.001 0.00917354 0 0.0197706 -4.90499e-11 0 -9.19025e-12 0 1.8738e-08
127 3 0.001 0.00911159 0 0.0203983 2.88709e-11 0 -2.8882e-12 0 1.89624e-08
128 3 0.001 0.00901865 0 0.0210223 -1.97759e-11 0 -8.76981e-12 0 1.90847e-08
129 3 0.001 0.00889482 0 0.0216408 6.86219e-12 0 -3.44969e-12 0 1.90819e-08
130 3 0.001 0.00874041 0 0.0222525 -2.11265e-11 0 -1.54138e-11 0 1.89821e-08
132 3 0.001 0.0083422 0 0.0234493 -1.08116e-11 0 -1.05248e-11 0 1.85158e-08
131 3 0.001 0.00855596 0 0.0228557 1.00453e-11 0 2.83219e-13 0 1.87916e-08
133 3 0.001 0.00810005 0 0.0240318 7.52769e-12 0 7.8799e-13 0 1.81623e-08
134 3 0.001 0.00783062 0 0.0246023 -1.46929e-11 0 -1.45946e-11 0 1.77406e-08
135 3 0.001 0.00753515 0 0.0251598 -1.42265e-11 0 -1.55482e-11 0 1.72619e-08
137 3 0.001 0.00687168 0 0.0262329 -3.66647e-11 0 -3.26117e-11 0 1.61816e-08
138 3 0.001 0.00650669 0 0.0267477 2.72239e-12 0 -1.83675e-12 0 1.56053e-08
136 3 0.001 0.00721501 0 0.0257035 2.76248e-11 0 1.9837e-11 0 1.6738e-08
141 3 0.001 0.00529792 0 0.0282039 2.00497e-11 0 1.81918e-11 0 1.38749e-08
139 3 0.001 0.00612165 0 0.0272477 1.71456e-11 0 1.29621e-11 0 1.50212e-08
140 3 0.001 0.00571818 0 0.027733 -3.75677e-11 0 -3.86422e-11 0 1.44409e-08
142 3 0.001 0.00486247 0 0.0286609 -2.58197e-11 0 -3.52983e-11 0 1.33328e-08
143 3 0.001 0.00441344 0 0.0291046 3.09741e-11 0 4.49204e-11 0 1.28226e-08
144 3 0.001 0.00395239 0 0.0295358 -5.79535e-11 0 -6.43421e-11 0 1.23514e-08
148 3 0.001 0.00201744 0 0.031158 -4.48329e-12 0 -6.54532e-12 0 1.09552e-08
145 3 0.001 0.00348083 0 0.0299556 3.63548e-11 0 3.2863e-11 0 1.19249e-08
146 3 0.001 0.00300022 0 0.030365 -1.16423e-11 0 -1.76211e-11 0 1.15478e-08
147 3 0.001 0.00251197 0 0.0307654 -5.48081e-12 0 -1.42305e-12 0 1.12236e-08
151 3 0.001 0.000508593 0 0.0323045 5.53541e-12 0 -6.99872e-12 0 4.14646e-09
2 2 0.001 0 0 0.03268 -0.00293926 0 0.014936 0 2.05403e-09
149 3 0.001 0.00151796 0 0.0315443 3.83051e-13 0 1.24071e-13 0 1.05482e-08
150 3 0.001 0.00101476 0 0.0319258 -4.42609e-12 0 1.14824e-12 0 7.22301e-09
