ITEM: TIMESTEP
2800000
ITEM: NUMBER OF ATOMS
151
ITEM: BOX BOUNDS ff ff ff
-1.0000000000000000e-02 1.0000000000000000e-02
-6.0000000000000001e-03 6.0000000000000001e-03
-5.2499999999999998e-02 5.2499999999999998e-02
ITEM: ATOMS id type radius x y z fx fy fz c_bendingE c_stretchingE
1 1 0.001 0 0 -0.0475 -0.00573117 0 -0.0157253 0 5.46808e-09
3 3 0.001 0.000407421 0 -0.0470176 -2.03747e-10 0 -1.27449e-09 0 1.09558e-08
4 3 0.001 0.000813102 0 -0.0465337 8.12229e-09 0 -7.72284e-09 0 1.54384e-08
5 3 0.001 0.00121662 0 -0.0460489 -1.73285e-08 0 1.53272e-08 0 2.02218e-08
6 3 0.001 0.00161752 0 -0.045562 2.18194e-08 0 -1.48365e-08 0 2.05931e-08
7 3 0.001 0.00201494 0 -0.0450722 -1.22881e-08 0 9.97178e-09 0 2.07059e-08
8 3 0.001 0.00240805 0 -0.044579 2.37522e-09 0 -4.40376e-09 0 2.08396e-08
9 3 0.001 0.00279596 0 -0.0440817 2.66197e-09 0 -3.65819e-09 0 2.09916e-08
10 3 0.001 0.00317785 0 -0.0435798 -1.03582e-08 0 6.16603e-09 0 2.11591e-08
11 3 0.001 0.00355286 0 -0.0430727 2.1558e-08 0 -1.38912e-08 0 2.13388e-08
12 3 0.001 0.00392018 0 -0.04256 -1.037e-08 0 1.01428e-08 0 2.15273e-08
13 3 0.001 0.00427898 0 -0.0420413 2.82706e-09 0 -2.96436e-09 0 2.17207e-08
14 3 0.001 0.00462847 0 -0.0415164 1.26903e-09 0 -2.1937e-09 0 2.19152e-08
15 3 0.001 0.0049679 0 -0.0409849 -2.6137e-09 0 1.78847e-10 0 2.21068e-08
16 3 0.001 0.00529653 0 -0.0404467 2.34023e-09 0 -1.31394e-09 0 2.22913e-08
17 3 0.001 0.00561366 0 -0.0399016 1.09282e-08 0 -4.66371e-09 0 2.24648e-08
18 3 0.001 0.00591865 0 -0.0393496 -2.07435e-08 0 9.70392e-09 0 2.26234e-08
19 3 0.001 0.0062109 0 -0.0387909 1.92125e-08 0 -1.12417e-08 0 2.27638e-08
20 3 0.001 0.00648985 0 -0.0382253 1.18441e-08 0 -4.93423e-09 0 2.28827e-08
21 3 0.001 0.00675504 0 -0.0376532 -3.65738e-08 0 1.50536e-08 0 2.29773e-08
22 3 0.001 0.00700604 0 -0.0370747 4.15857e-08 0 -1.7811e-08 0 2.30456e-08
23 3 0.001 0.00724254 0 -0.0364902 -1.23467e-08 0 5.62715e-09 0 2.30859e-08
24 3 0.001 0.00746427 0 -0.0358999 -2.35421e-08 0 9.52605e-09 0 2.30973e-08
25 3 0.001 0.00767107 0 -0.0353042 2.07542e-08 0 -6.65502e-09 0 2.30795e-08
26 3 0.001 0.00786285 0 -0.0347035 1.29675e-08 0 -5.23819e-09 0 2.3033e-08
27 3 0.001 0.00803961 0 -0.0340982 -5.15794e-09 0 -2.92857e-10 0 2.29587e-08
28 3 0.001 0.00820147 0 -0.0334887 -2.43257e-08 0 3.88937e-09 0 2.28586e-08
29 3 0.001 0.0083486 0 -0.0328756 2.97279e-08 0 -5.64724e-09 0 2.27347e-08
30 3 0.001 0.00848129 0 -0.0322591 -1.3073e-08 0 3.17333e-09 0 2.25901e-08
31 3 0.001 0.00859991 0 -0.0316397 5.57539e-09 0 -1.55896e-09 0 2.24278e-08
32 3 0.001 0.00870492 0 -0.0310179 -2.13737e-08 0 5.63284e-10 0 2.22516e-08
33 3 0.001 0.00879685 0 -0.030394 3.48488e-08 0 -6.8741e-09 0 2.20652e-08
34 3 0.001 0.00887632 0 -0.0297684 -1.39507e-08 0 4.31063e-09 0 2.18727e-08
35 3 0.001 0.00894404 0 -0.0291414 -1.18379e-08 0 2.31007e-09 0 2.16781e-08
36 3 0.001 0.00900075 0 -0.0285133 4.1095e-09 0 -2.44303e-09 0 2.14854e-08
37 3 0.001 0.00904728 0 -0.0278843 1.01927e-08 0 -2.78748e-09 0 2.12928e-08
38 3 0.001 0.00908452 0 -0.0272547 -1.72224e-08 0 -2.38797e-10 0 2.11004e-08
39 3 0.001 0.00911338 0 -0.0266247 2.32973e-08 0 1.09078e-09 0 2.09178e-08
40 3 0.001 0.0091348 0 -0.0259943 -1.48176e-08 0 1.96007e-09 0 2.07551e-08
41 3 0.001 0.00914969 0 -0.0253638 -1.79822e-08 0 -1.7607e-09 0 2.06187e-08
42 3 0.001 0.00915894 0 -0.0247331 3.20564e-08 0 -1.56439e-09 0 2.05111e-08
43 3 0.001 0.00916337 0 -0.0241024 -2.71115e-08 0 -1.02755e-09 0 2.04313e-08
44 3 0.001 0.00916374 0 -0.0234717 2.44313e-08 0 2.12735e-09 0 2.03764e-08
45 3 0.001 0.00916076 0 -0.0228409 -1.96909e-08 0 1.13823e-09 0 2.03422e-08
46 3 0.001 0.00915503 0 -0.0222102 -3.66295e-09 0 -1.55894e-09 0 2.03244e-08
47 3 0.001 0.0091471 0 -0.0215795 1.67398e-08 0 -1.95919e-10 0 2.03184e-08
48 3 0.001 0.00913743 0 -0.0209489 -4.75995e-09 0 -1.92286e-09 0 2.03204e-08
49 3 0.001 0.00912642 0 -0.0203182 -2.33386e-08 0 -4.0771e-10 0 2.03274e-08
50 3 0.001 0.00911439 0 -0.0196876 3.99255e-08 0 2.35784e-09 0 2.03369e-08
51 3 0.001 0.00910162 0 -0.019057 -3.7667e-08 0 -1.12642e-09 0 2.03471e-08
52 3 0.001 0.00908833 0 -0.0184264 1.78537e-08 0 -1.42985e-09 0 2.03568e-08
53 3 0.001 0.00907469 0 -0.0177958 1.6944e-08 0 -1.02396e-09 0 2.03652e-08
54 3 0.001 0.00906085 0 -0.0171652 -5.35128e-08 0 -2.00468e-09 0 2.0372e-08
55 3 0.001 0.00904693 0 -0.0165346 6.68381e-08 0 2.13651e-09 0 2.0377e-08
56 3 0.001 0.00903302 0 -0.015904 -4.53925e-08 0 -6.76e-10 0 2.03804e-08
57 3 0.001 0.0090192 0 -0.0152734 7.80536e-09 0 -4.10344e-12 0 2.03823e-08
58 3 0.001 0.00900555 0 -0.0146428 2.4668e-08 0 1.26404e-09 0 2.03832e-08
59 3 0.001 0.00899213 0 -0.0140122 -3.45101e-08 0 -1.73099e-09 0 2.03837e-08
60 3 0.001 0.008979 0 -0.0133816 2.67157e-08 0 -2.07022e-10 0 2.03841e-08
61 3 0.001 0.00896624 0 -0.012751 -6.90095e-09 0 -1.10511e-09 0 2.03846e-08
62 3 0.001 0.0089539 0 -0.0121204 -6.20187e-09 0 5.96894e-10 0 2.03852e-08
63 3 0.001 0.00894205 0 -0.0114898 1.10312e-08 0 1.65723e-09 0 2.03858e-08
64 3 0.001 0.00893074 0 -0.0108591 2.09695e-10 0 -4.70854e-10 0 2.03865e-08
65 3 0.001 0.00892003 0 -0.0102285 -8.67269e-09 0 1.60521e-10 0 2.03872e-08
66 3 0.001 0.00890997 0 -0.00959782 3.34252e-09 0 -1.68359e-09 0 2.03879e-08
67 3 0.001 0.00890061 0 -0.00896715 1.18674e-08 0 -5.4927e-10 0 2.03886e-08
68 3 0.001 0.008892 0 -0.00833647 5.19153e-09 0 5.50614e-10 0 2.03893e-08
69 3 0.001 0.00888417 0 -0.00770578 -1.35984e-08 0 3.82639e-10 0 2.03899e-08
70 3 0.001 0.00887718 0 -0.00707508 1.4639e-09 0 6.60919e-10 0 2.03905e-08
71 3 0.001 0.00887104 0 -0.00644437 1.4025e-08 0 -1.4731e-09 0 2.03911e-08
72 3 0.001 0.0088658 0 -0.00581365 -1.45824e-08 0 1.10976e-10 0 2.03916e-08
73 3 0.001 0.00886148 0 -0.00518293 1.89857e-08 0 7.04983e-10 0 2.0392e-08
74 3 0.001 0.00885809 0 -0.0045522 -1.21389e-08 0 6.93222e-10 0 2.03923e-08
75 3 0.001 0.00885566 0 -0.00392146 1.38955e-08 0 -2.42099e-10 0 2.03926e-08
76 3 0.001 0.0088542 0 -0.00329072 -3.39622e-09 0 -1.46262e-09 0 2.03927e-08
77 3 0.001 0.00885371 0 -0.00265998 -2.31191e-08 0 -7.4014e-10 0 2.03928e-08
78 3 0.001 0.00885419 0 -0.00202924 4.58198e-08 0 1.41555e-10 0 2.03927e-08
79 3 0.001 0.00885566 0 -0.00139851 -1.59192e-08 0 4.4987e-10 0 2.03926e-08
80 3 0.001 0.00885809 0 -0.000767771 -2.87189e-08 0 1.17154e-09 0 2.03924e-08
81 3 0.001 0.00886147 0 -0.00013704 5.87294e-08 0 3.22954e-10 0 2.0392e-08
82 3 0.001 0.0088658 0 0.000493685 -4.73104e-08 0 -9.06405e-10 0 2.03916e-08
83 3 0.001 0.00887104 0 0.0011244 1.35591e-08 0 -4.62286e-10 0 2.03912e-08
84 3 0.001 0.00887717 0 0.00175511 9.45799e-09 0 -6.90603e-10 0 2.03906e-08
85 3 0.001 0.00888417 0 0.00238581 5.37268e-09 0 1.19401e-09 0 2.039e-08
86 3 0.001 0.00889199 0 0.00301651 -5.92351e-10 0 -3.99516e-11 0 2.03894e-08
87 3 0.001 0.0089006 0 0.00364719 -1.47758e-08 0 -6.21321e-10 0 2.03887e-08
88 3 0.001 0.00890996 0 0.00427786 1.36751e-08 0 -3.20273e-11 0 2.0388e-08
89 3 0.001 0.00892002 0 0.00490852 1.58919e-09 0 -6.59499e-10 0 2.03873e-08
90 3 0.001 0.00893073 0 0.00553917 1.83296e-09 0 1.29524e-09 0 2.03866e-08
91 3 0.001 0.00894204 0 0.0061698 4.57962e-09 0 -4.49839e-10 0 2.0386e-08
92 3 0.001 0.0089539 0 0.00680043 -2.5835e-08 0 7.30332e-11 0 2.03854e-08
93 3 0.001 0.00896623 0 0.00743105 4.41777e-08 0 -6.29716e-10 0 2.03848e-08
94 3 0.001 0.008979 0 0.00806166 -3.27328e-08 0 7.85209e-10 0 2.03843e-08
95 3 0.001 0.00899212 0 0.00869227 2.06038e-08 0 7.14833e-10 0 2.03838e-08
96 3 0.001 0.00900554 0 0.00932287 -1.97659e-08 0 -5.22706e-10 0 2.03834e-08
97 3 0.001 0.0090192 0 0.00995346 1.84538e-08 0 -1.4975e-09 0 2.03825e-08
98 3 0.001 0.00903302 0 0.010584 -2.2233e-08 0 -3.40083e-10 0 2.03806e-08
99 3 0.001 0.00904693 0 0.0112146 3.72605e-08 0 3.38116e-11 0 2.03772e-08
100 3 0.001 0.00906085 0 0.0118452 -4.17574e-08 0 3.32737e-09 0 2.03722e-08
101 3 0.001 0.00907469 0 0.0124758 2.87775e-08 0 -1.95343e-10 0 2.03654e-08
102 3 0.001 0.00908832 0 0.0131064 -5.25132e-09 0 -7.54869e-10 0 2.0357e-08
103 3 0.001 0.00910162 0 0.013737 -4.25918e-09 0 -4.19519e-10 0 2.03474e-08
104 3 0.001 0.00911439 0 0.0143676 -1.41668e-08 0 4.20782e-10 0 2.03372e-08
105 3 0.001 0.00912642 0 0.0149982 2.31504e-08 0 1.33643e-09 0 2.03277e-08
106 3 0.001 0.00913743 0 0.0156289 -1.04543e-08 0 2.09699e-09 0 2.03207e-08
107 3 0.001 0.0091471 0 0.0162596 5.18558e-10 0 -1.15297e-09 0 2.03187e-08
108 3 0.001 0.00915503 0 0.0168903 -1.16477e-08 0 -4.16334e-10 0 2.03247e-08
109 3 0.001 0.00916076 0 0.017521 3.04228e-08 0 -1.81911e-09 0 2.03426e-08
110 3 0.001 0.00916375 0 0.0181517 -3.94758e-08 0 -3.61074e-10 0 2.03767e-08
111 3 0.001 0.00916337 0 0.0187825 2.44294e-08 0 2.87405e-09 0 2.04316e-08
112 3 0.001 0.00915894 0 0.0194132 -6.50005e-09 0 5.31599e-10 0 2.05114e-08
113 3 0.001 0.0091497 0 0.0200438 -8.1522e-09 0 -6.78013e-10 0 2.06191e-08
114 3 0.001 0.00913481 0 0.0206744 1.13442e-08 0 -2.10206e-09 0 2.07555e-08
115 3 0.001 0.00911339 0 0.0213047 -4.95906e-09 0 -9.65092e-10 0 2.09182e-08
116 3 0.001 0.00908453 0 0.0219348 -5.80693e-09 0 1.94413e-09 0 2.11008e-08
118 3 0.001 0.00900077 0 0.0231933 -3.50892e-08 0 -1.16935e-09 0 2.14858e-08
117 3 0.001 0.0090473 0 0.0225644 2.12844e-08 0 3.87662e-09 0 2.12932e-08
119 3 0.001 0.00894406 0 0.0238214 1.48373e-08 0 -2.28895e-10 0 2.16785e-08
121 3 0.001 0.00879688 0 0.025074 -9.32967e-09 0 -1.34654e-09 0 2.20657e-08
120 3 0.001 0.00887635 0 0.0244484 1.00239e-08 0 -2.16346e-09 0 2.18731e-08
122 3 0.001 0.00870495 0 0.0256979 1.1202e-08 0 3.61117e-09 0 2.22521e-08
123 3 0.001 0.00859995 0 0.0263198 -1.98489e-08 0 -1.07228e-09 0 2.24284e-08
124 3 0.001 0.00848133 0 0.0269391 7.11122e-09 0 3.69474e-09 0 2.25906e-08
125 3 0.001 0.00834864 0 0.0275556 2.74878e-08 0 6.08264e-09 0 2.27353e-08
126 3 0.001 0.00820151 0 0.0281688 -5.64874e-08 0 -1.52831e-08 0 2.28592e-08
128 3 0.001 0.00786289 0 0.0293835 -7.92023e-09 0 -1.80652e-10 0 2.30336e-08
127 3 0.001 0.00803966 0 0.0287782 4.99449e-08 0 1.26332e-08 0 2.29594e-08
130 3 0.001 0.00746432 0 0.0305799 2.26063e-08 0 8.19063e-09 0 2.3098e-08
129 3 0.001 0.00767112 0 0.0299842 -2.78098e-08 0 -7.87829e-09 0 2.30802e-08
131 3 0.001 0.00724259 0 0.0311702 4.96278e-09 0 9.2535e-10 0 2.30866e-08
132 3 0.001 0.00700609 0 0.0317548 1.09747e-10 0 -2.36867e-09 0 2.30463e-08
133 3 0.001 0.00675509 0 0.0323333 -9.24278e-09 0 -3.97453e-09 0 2.29781e-08
136 3 0.001 0.0059187 0 0.0340297 -1.87533e-08 0 -8.59407e-09 0 2.26242e-08
135 3 0.001 0.00621095 0 0.0334709 1.88606e-08 0 1.2891e-08 0 2.27645e-08
134 3 0.001 0.0064899 0 0.0329054 -1.78876e-09 0 5.62011e-10 0 2.28834e-08
138 3 0.001 0.00529658 0 0.0351267 1.55109e-08 0 8.33705e-09 0 2.2292e-08
139 3 0.001 0.00496795 0 0.0356649 -6.82098e-09 0 -4.3065e-09 0 2.21075e-08
137 3 0.001 0.00561371 0 0.0345816 3.86053e-09 0 -3.57618e-10 0 2.24655e-08
142 3 0.001 0.00392021 0 0.03724 1.9269e-08 0 1.3849e-08 0 2.1528e-08
141 3 0.001 0.00427901 0 0.0367214 -7.03048e-09 0 -2.57522e-09 0 2.17215e-08
140 3 0.001 0.00462851 0 0.0361964 -3.04211e-09 0 -1.90432e-09 0 2.1916e-08
143 3 0.001 0.0035529 0 0.0377527 -7.88519e-09 0 -6.56913e-09 0 2.13395e-08
144 3 0.001 0.00317788 0 0.0382598 3.82269e-09 0 2.55064e-09 0 2.11598e-08
145 3 0.001 0.00279599 0 0.0387617 -1.15397e-08 0 -9.37132e-09 0 2.09923e-08
147 3 0.001 0.00201496 0 0.0397522 9.82674e-09 0 8.99436e-09 0 2.07066e-08
148 3 0.001 0.00161753 0 0.040242 -3.0891e-08 0 -2.68415e-08 0 2.05938e-08
146 3 0.001 0.00240807 0 0.039259 1.05913e-08 0 1.04672e-08 0 2.08403e-08
151 3 0.001 0.000407425 0 0.0416976 1.69139e-08 0 1.35872e-08 0 1.09563e-08
150 3 0.001 0.00081311 0 0.0412137 -3.27375e-08 0 -2.76445e-08 0 1.5439e-08
149 3 0.001 0.00121663 0 0.0407289 4.08035e-08 0 3.36077e-08 0 2.02225e-08
2 2 0.001 0 0 0.04218 -0.00573132 0 0.0157256 0 5.46834e-09
