ITEM: TIMESTEP
8300000
ITEM: NUMBER OF ATOMS
151
ITEM: BOX BOUNDS ff ff ff
-1.0000000000000000e-02 1.0000000000000000e-02
-6.0000000000000001e-03 6.0000000000000001e-03
-5.2499999999999998e-02 5.2499999999999998e-02
ITEM: ATOMS id type radius x y z fx fy fz c_bendingE c_stretchingE
1 1 0.001 0 0 -0.0475 -0.00256491 0 -0.0148119 0 1.78485e-09
3 3 0.001 0.000512435 0 -0.0471297 -7.66554e-12 0 1.10783e-11 0 3.60716e-09
4 3 0.001 0.00102242 0 -0.046756 9.28604e-12 0 -1.93866e-11 0 6.5262e-09
5 3 0.001 0.00152941 0 -0.0463794 -2.42389e-11 0 3.8186e-11 0 9.68622e-09
6 3 0.001 0.00203265 0 -0.0459978 8.06077e-12 0 -1.09533e-11 0 1.00853e-08
7 3 0.001 0.00253088 0 -0.0456098 6.92552e-12 0 -1.47857e-11 0 1.03555e-08
8 3 0.001 0.00302275 0 -0.0452138 -5.44025e-11 0 6.18355e-11 0 1.06824e-08
9 3 0.001 0.00350689 0 -0.0448084 5.9927e-11 0 -6.351e-11 0 1.10638e-08
10 3 0.001 0.00398184 0 -0.0443924 -7.05548e-11 0 7.91043e-11 0 1.14964e-08
11 3 0.001 0.00444611 0 -0.0439645 1.65087e-11 0 -2.84591e-11 0 1.1976e-08
12 3 0.001 0.00489815 0 -0.0435238 -3.86696e-11 0 4.14106e-11 0 1.2497e-08
13 3 0.001 0.00533635 0 -0.0430694 1.9693e-11 0 -1.14438e-11 0 1.3053e-08
14 3 0.001 0.00575905 0 -0.0426006 -1.40213e-11 0 1.94681e-11 0 1.36359e-08
15 3 0.001 0.00616458 0 -0.0421169 -5.45722e-11 0 3.78248e-11 0 1.42363e-08
16 3 0.001 0.00655123 0 -0.041618 1.84015e-11 0 -1.65267e-11 0 1.48437e-08
17 3 0.001 0.00691731 0 -0.041104 -2.57271e-11 0 2.88461e-11 0 1.54464e-08
18 3 0.001 0.00726115 0 -0.0405748 -3.63391e-13 0 9.82613e-12 0 1.60317e-08
19 3 0.001 0.00758112 0 -0.0400309 -6.4226e-11 0 3.98241e-11 0 1.65865e-08
20 3 0.001 0.00787567 0 -0.0394729 5.37983e-11 0 -2.24744e-11 0 1.70977e-08
21 3 0.001 0.00814334 0 -0.0389016 -2.98471e-11 0 2.13164e-11 0 1.75524e-08
22 3 0.001 0.00838283 0 -0.0383179 -7.45605e-11 0 3.31618e-11 0 1.79387e-08
23 3 0.001 0.00859295 0 -0.037723 9.87358e-11 0 -2.42075e-11 0 1.8246e-08
24 3 0.001 0.00877271 0 -0.0371183 -1.22819e-10 0 5.11733e-11 0 1.84658e-08
25 3 0.001 0.00892133 0 -0.0365052 6.30232e-11 0 -7.06357e-12 0 1.85918e-08
26 3 0.001 0.00903822 0 -0.0358853 -4.15086e-11 0 1.78038e-11 0 1.86114e-08
27 3 0.001 0.00912302 0 -0.0352601 2.74441e-11 0 6.42194e-12 0 1.85045e-08
28 3 0.001 0.00917562 0 -0.0346315 -8.7373e-11 0 1.1642e-11 0 1.83117e-08
29 3 0.001 0.00919607 0 -0.0340009 9.95998e-11 0 1.40721e-11 0 1.81227e-08
30 3 0.001 0.00918453 0 -0.0333701 -9.69647e-11 0 1.7164e-11 0 1.79813e-08
31 3 0.001 0.00914131 0 -0.0327407 -1.54674e-11 0 2.52257e-12 0 1.78644e-08
32 3 0.001 0.00906681 0 -0.0321142 3.11543e-11 0 1.74088e-11 0 1.76969e-08
33 3 0.001 0.00896158 0 -0.0314921 -6.29673e-11 0 -4.04683e-13 0 1.74251e-08
34 3 0.001 0.00882635 0 -0.0308758 6.2931e-12 0 1.94873e-11 0 1.70632e-08
35 3 0.001 0.00866202 0 -0.0302666 -6.19188e-12 0 1.98343e-11 0 1.66385e-08
37 3 0.001 0.00825063 0 -0.0290739 -2.11703e-12 0 9.85771e-12 0 1.56447e-08
36 3 0.001 0.0084697 0 -0.0296657 -4.50652e-11 0 -6.82496e-12 0 1.61617e-08
39 3 0.001 0.0077378 0 -0.0279208 2.24233e-13 0 1.98984e-11 0 1.45375e-08
40 3 0.001 0.00744709 0 -0.0273606 -1.20582e-11 0 8.34521e-12 0 1.39709e-08
38 3 0.001 0.00800617 0 -0.0284921 -3.03337e-11 0 5.34183e-12 0 1.50993e-08
43 3 0.001 0.00645722 0 -0.025747 -6.14989e-11 0 -2.31485e-11 0 1.23443e-08
42 3 0.001 0.00680513 0 -0.0262738 3.85374e-11 0 3.39001e-11 0 1.2865e-08
41 3 0.001 0.00713564 0 -0.0268116 -5.39614e-11 0 -1.35555e-11 0 1.34101e-08
46 3 0.001 0.00532595 0 -0.0242283 4.92659e-11 0 5.16429e-11 0 1.0997e-08
45 3 0.001 0.00571597 0 -0.0247249 -6.57112e-11 0 -3.51575e-11 0 1.14045e-08
44 3 0.001 0.00609361 0 -0.0252309 3.35445e-11 0 4.44458e-11 0 1.18553e-08
48 3 0.001 0.00451529 0 -0.02326 1.34332e-11 0 2.59654e-11 0 1.03272e-08
47 3 0.001 0.00492519 0 -0.0237404 -6.48646e-11 0 -4.26334e-11 0 1.06368e-08
49 3 0.001 0.00409781 0 -0.0227862 1.74299e-11 0 2.36848e-11 0 1.00705e-08
51 3 0.001 0.00324626 0 -0.0218534 2.33345e-11 0 2.84023e-11 0 9.72236e-09
52 3 0.001 0.00281519 0 -0.0213918 -5.85081e-12 0 1.55263e-12 0 9.63288e-09
50 3 0.001 0.0036743 0 -0.0223177 -4.77213e-11 0 -2.30733e-11 0 9.86849e-09
55 3 0.001 0.00151848 0 -0.0200104 1.39519e-11 0 2.19873e-11 0 9.70739e-09
54 3 0.001 0.00194984 0 -0.0204717 -5.26122e-12 0 -3.01945e-12 0 9.62538e-09
56 3 0.001 0.00108996 0 -0.0195465 -1.2914e-11 0 -2.49965e-12 0 9.84613e-09
53 3 0.001 0.00238256 0 -0.0209317 -3.19183e-12 0 3.99932e-12 0 9.60051e-09
58 3 0.001 0.000247418 0 -0.0186056 4.11598e-11 0 3.11472e-11 0 1.02905e-08
57 3 0.001 0.000665773 0 -0.0190787 1.76251e-12 0 8.59685e-12 0 1.00409e-08
59 3 0.001 -0.000163567 0 -0.0181262 -4.53104e-11 0 -3.44992e-11 0 1.05933e-08
61 3 0.001 -0.000957135 0 -0.0171439 -1.3288e-11 0 -9.21196e-12 0 1.13486e-08
62 3 0.001 -0.00133649 0 -0.0166392 3.34027e-11 0 2.21328e-11 0 1.1794e-08
60 3 0.001 -0.000565617 0 -0.0176393 3.9601e-11 0 3.47204e-11 0 1.0947e-08
65 3 0.001 -0.00238499 0 -0.0150627 -1.18549e-12 0 2.44551e-12 0 1.33376e-08
63 3 0.001 -0.00170204 0 -0.0161244 -3.48603e-11 0 -1.61965e-11 0 1.22782e-08
64 3 0.001 -0.0020521 0 -0.0155991 3.33386e-11 0 1.77823e-11 0 1.27952e-08
66 3 0.001 -0.00269903 0 -0.0145152 9.33349e-12 0 -3.92698e-14 0 1.38968e-08
67 3 0.001 -0.00299255 0 -0.0139564 -2.16407e-11 0 -9.54707e-12 0 1.44633e-08
69 3 0.001 -0.00351162 0 -0.0128062 -3.41376e-11 0 -1.5897e-11 0 1.55746e-08
68 3 0.001 -0.00326394 0 -0.0133866 4.70897e-11 0 2.32546e-11 0 1.50264e-08
70 3 0.001 -0.0037341 0 -0.0122156 2.33707e-11 0 6.40552e-12 0 1.60961e-08
71 3 0.001 -0.00393 0 -0.0116158 -1.11342e-11 0 -2.65973e-12 0 1.65788e-08
72 3 0.001 -0.00409806 0 -0.0110076 4.77764e-11 0 1.2846e-11 0 1.7011e-08
74 3 0.001 -0.00434637 0 -0.00977079 5.09627e-11 0 6.02926e-12 0 1.76811e-08
73 3 0.001 -0.00423716 0 -0.0103922 -6.62254e-11 0 -1.26445e-11 0 1.73817e-08
75 3 0.001 -0.00442493 0 -0.00914479 3.10166e-11 0 -3.94853e-12 0 1.79012e-08
76 3 0.001 -0.00447229 0 -0.00851567 -9.93145e-11 0 -3.23128e-12 0 1.80357e-08
77 3 0.001 -0.00448811 0 -0.00788498 1.41418e-10 0 8.44003e-12 0 1.8081e-08
78 3 0.001 -0.00447229 0 -0.00725429 -1.0909e-10 0 -3.10067e-12 0 1.80358e-08
79 3 0.001 -0.00442494 0 -0.00662517 7.14298e-11 0 -2.65632e-12 0 1.79012e-08
80 3 0.001 -0.00434638 0 -0.00599917 -1.64962e-11 0 -2.10817e-12 0 1.76812e-08
81 3 0.001 -0.00423718 0 -0.00537777 7.21718e-12 0 -2.72452e-12 0 1.73818e-08
82 3 0.001 -0.00409808 0 -0.00476234 -2.81444e-11 0 1.44456e-11 0 1.70111e-08
83 3 0.001 -0.00393002 0 -0.00415415 9.3594e-11 0 -3.2431e-11 0 1.65789e-08
84 3 0.001 -0.00373413 0 -0.00355432 -1.07229e-10 0 4.02506e-11 0 1.60962e-08
85 3 0.001 -0.00351165 0 -0.00296379 8.48644e-11 0 -3.53394e-11 0 1.55748e-08
86 3 0.001 -0.00326397 0 -0.00238334 -3.89647e-11 0 1.34896e-11 0 1.50265e-08
87 3 0.001 -0.00299259 0 -0.00181353 2.87412e-11 0 -1.13534e-11 0 1.44635e-08
88 3 0.001 -0.00269907 0 -0.00125477 -3.41021e-12 0 2.03178e-12 0 1.3897e-08
89 3 0.001 -0.00238503 0 -0.000707216 3.01031e-13 0 1.1697e-12 0 1.33378e-08
90 3 0.001 -0.00205214 0 -0.000170865 1.10689e-11 0 -9.53406e-12 0 1.27954e-08
91 3 0.001 -0.00170208 0 0.000354491 1.75028e-11 0 -1.79419e-11 0 1.22784e-08
92 3 0.001 -0.00133654 0 0.000869242 -2.61546e-11 0 2.53894e-11 0 1.17941e-08
93 3 0.001 -0.000957181 0 0.00137395 4.50043e-11 0 -3.96065e-11 0 1.13487e-08
94 3 0.001 -0.000565664 0 0.00186933 -1.56347e-11 0 1.22652e-11 0 1.09472e-08
95 3 0.001 -0.000163615 0 0.00235624 1.48581e-11 0 -1.77517e-11 0 1.05935e-08
96 3 0.001 0.00024737 0 0.00283568 -2.29938e-11 0 1.89673e-11 0 1.02906e-08
97 3 0.001 0.000665725 0 0.00330873 6.00162e-11 0 -5.40503e-11 0 1.0041e-08
98 3 0.001 0.00108991 0 0.00377658 -4.512e-11 0 3.77819e-11 0 9.84628e-09
99 3 0.001 0.00151843 0 0.00424049 1.03245e-12 0 -1.45213e-11 0 9.70754e-09
100 3 0.001 0.00194979 0 0.00470177 5.48674e-11 0 -5.84674e-11 0 9.62552e-09
101 3 0.001 0.00238252 0 0.00516178 -7.70509e-11 0 6.92136e-11 0 9.60064e-09
102 3 0.001 0.00281515 0 0.00562188 4.7608e-11 0 -5.09083e-11 0 9.63302e-09
103 3 0.001 0.00324622 0 0.00608344 -2.34975e-13 0 -1.12246e-11 0 9.72249e-09
104 3 0.001 0.00367425 0 0.00654779 -5.5557e-11 0 3.44805e-11 0 9.86863e-09
105 3 0.001 0.00409777 0 0.00701625 5.71883e-11 0 -5.69535e-11 0 1.00706e-08
106 3 0.001 0.00451524 0 0.00749007 -4.46136e-11 0 2.7009e-11 0 1.03273e-08
107 3 0.001 0.00492515 0 0.00797042 -2.73534e-11 0 5.44389e-12 0 1.0637e-08
108 3 0.001 0.00532591 0 0.00845839 4.66907e-11 0 -4.99904e-11 0 1.09971e-08
109 3 0.001 0.00571593 0 0.00895494 -6.47813e-11 0 3.27488e-11 0 1.14047e-08
110 3 0.001 0.00609358 0 0.00946093 3.15567e-12 0 -1.65779e-11 0 1.18555e-08
111 3 0.001 0.00645719 0 0.00997704 -1.59257e-11 0 -3.67137e-13 0 1.23445e-08
112 3 0.001 0.0068051 0 0.0105038 -2.5708e-11 0 -7.17854e-12 0 1.28652e-08
113 3 0.001 0.00713562 0 0.0110416 2.63222e-11 0 -2.57798e-11 0 1.34103e-08
114 3 0.001 0.00744706 0 0.0115906 -7.72732e-11 0 2.50734e-11 0 1.39711e-08
115 3 0.001 0.00773778 0 0.0121509 4.87489e-11 0 -4.05223e-11 0 1.45378e-08
116 3 0.001 0.00800615 0 0.0127221 -9.49965e-11 0 2.52477e-11 0 1.50996e-08
117 3 0.001 0.00825061 0 0.0133039 7.33163e-11 0 -4.58924e-11 0 1.5645e-08
118 3 0.001 0.00846969 0 0.0138957 -9.31805e-11 0 2.10632e-11 0 1.61621e-08
119 3 0.001 0.00866201 0 0.0144967 2.48786e-11 0 -2.265e-11 0 1.66388e-08
120 3 0.001 0.00882634 0 0.0151059 -3.47406e-11 0 -9.2972e-12 0 1.70636e-08
121 3 0.001 0.00896158 0 0.0157222 3.77375e-12 0 -1.25627e-11 0 1.74255e-08
122 3 0.001 0.00906681 0 0.0163442 -2.30544e-11 0 -4.91866e-12 0 1.76973e-08
123 3 0.001 0.00914131 0 0.0169707 -3.05513e-11 0 -2.06993e-11 0 1.78648e-08
124 3 0.001 0.00918454 0 0.0176002 1.12958e-11 0 -6.96123e-12 0 1.79818e-08
125 3 0.001 0.00919607 0 0.0182309 -2.91841e-11 0 -1.46656e-11 0 1.81231e-08
126 3 0.001 0.00917563 0 0.0188615 -6.73537e-12 0 -8.20036e-12 0 1.83122e-08
127 3 0.001 0.00912304 0 0.0194902 4.5377e-12 0 -8.23862e-12 0 1.8505e-08
128 3 0.001 0.00903823 0 0.0201153 -1.51896e-11 0 -2.02398e-11 0 1.86119e-08
129 3 0.001 0.00892135 0 0.0207352 -1.84954e-11 0 -1.31324e-11 0 1.85924e-08
130 3 0.001 0.00877273 0 0.0213483 -5.4956e-13 0 -9.48236e-12 0 1.84664e-08
131 3 0.001 0.00859297 0 0.0219531 -3.86431e-11 0 -1.95799e-11 0 1.82467e-08
132 3 0.001 0.00838285 0 0.0225479 3.6594e-11 0 5.10695e-12 0 1.79393e-08
133 3 0.001 0.00814337 0 0.0231316 -4.97588e-11 0 -3.14955e-11 0 1.75531e-08
134 3 0.001 0.00787569 0 0.023703 1.34131e-11 0 4.26034e-12 0 1.70984e-08
137 3 0.001 0.00691734 0 0.025334 -6.61773e-11 0 -5.38429e-11 0 1.5447e-08
135 3 0.001 0.00758114 0 0.024261 -3.72437e-11 0 -3.19303e-11 0 1.65872e-08
136 3 0.001 0.00726117 0 0.0248048 2.35211e-11 0 8.38973e-12 0 1.60323e-08
138 3 0.001 0.00655125 0 0.0258481 3.13389e-11 0 2.25096e-11 0 1.48444e-08
139 3 0.001 0.0061646 0 0.0263469 -3.04639e-11 0 -2.11201e-11 0 1.42369e-08
140 3 0.001 0.00575907 0 0.0268306 -3.04837e-11 0 -3.20061e-11 0 1.36365e-08
141 3 0.001 0.00533637 0 0.0272994 3.29657e-11 0 2.59685e-11 0 1.30536e-08
142 3 0.001 0.00489817 0 0.0277538 -6.87166e-11 0 -6.70463e-11 0 1.24976e-08
143 3 0.001 0.00444613 0 0.0281945 2.68403e-11 0 2.43899e-11 0 1.19765e-08
145 3 0.001 0.0035069 0 0.0290384 -3.03034e-11 0 -3.59455e-11 0 1.10643e-08
146 3 0.001 0.00302276 0 0.0294438 -4.7813e-13 0 1.55152e-12 0 1.06829e-08
147 3 0.001 0.00253089 0 0.0298398 5.95204e-12 0 8.80264e-12 0 1.03559e-08
144 3 0.001 0.00398186 0 0.0286224 -7.44783e-12 0 -6.56243e-12 0 1.14969e-08
151 3 0.001 0.000512437 0 0.0313597 -2.06865e-12 0 -6.96716e-13 0 3.60742e-09
148 3 0.001 0.00203266 0 0.0302278 -3.09852e-11 0 -3.78371e-11 0 1.00857e-08
149 3 0.001 0.00152942 0 0.0306094 2.11702e-11 0 1.41844e-11 0 9.68664e-09
150 3 0.001 0.00102242 0 0.030986 -1.29053e-11 0 -2.79664e-12 0 6.52653e-09
2 2 0.001 0 0 0.03173 -0.00256508 0 0.0148122 0 1.78498e-09
