ITEM: TIMESTEP
4000000
ITEM: NUMBER OF ATOMS
151
ITEM: BOX BOUNDS ff ff ff
-1.0000000000000000e-02 1.0000000000000000e-02
-6.0000000000000001e-03 6.0000000000000001e-03
-5.2499999999999998e-02 5.2499999999999998e-02
ITEM: ATOMS id type radius x y z fx fy fz c_bendingE c_stretchingE
1 1 0.001 0 0 -0.0475 -0.00690215 0 -0.0177347 0 6.76186e-09
3 3 0.001 0.000468527 0 -0.047077 -2.75991e-09 0 1.68664e-09 0 1.35716e-08
4 3 0.001 0.00093479 0 -0.0466515 2.82338e-10 0 -9.9848e-10 0 1.85544e-08
5 3 0.001 0.0013983 0 -0.046224 4.46366e-09 0 -4.31067e-09 0 2.38903e-08
6 3 0.001 0.00185838 0 -0.0457929 -4.12562e-09 0 5.871e-09 0 2.44122e-08
7 3 0.001 0.00231391 0 -0.045357 2.39531e-09 0 -2.45486e-09 0 2.46799e-08
8 3 0.001 0.00276372 0 -0.0449152 -6.94678e-10 0 -1.19347e-09 0 2.4997e-08
9 3 0.001 0.00320666 0 -0.0444666 5.01748e-09 0 -5.25019e-09 0 2.53572e-08
10 3 0.001 0.00364153 0 -0.0440102 -5.45428e-09 0 6.04829e-09 0 2.57534e-08
11 3 0.001 0.00406716 0 -0.0435451 4.32309e-09 0 -3.44121e-09 0 2.61774e-08
12 3 0.001 0.00448234 0 -0.0430708 -2.63963e-09 0 1.88801e-09 0 2.66202e-08
13 3 0.001 0.00488591 0 -0.0425866 1.1914e-08 0 -1.06061e-08 0 2.70718e-08
14 3 0.001 0.00527669 0 -0.042092 -1.03632e-08 0 7.76191e-09 0 2.75219e-08
15 3 0.001 0.00565354 0 -0.0415867 1.8637e-09 0 -1.74123e-09 0 2.79597e-08
16 3 0.001 0.00601535 0 -0.0410706 5.25901e-09 0 -4.12254e-09 0 2.83742e-08
17 3 0.001 0.00636107 0 -0.0405437 -2.48878e-09 0 1.52351e-09 0 2.8755e-08
18 3 0.001 0.0066897 0 -0.0400059 8.115e-09 0 -5.01645e-09 0 2.90919e-08
19 3 0.001 0.00700034 0 -0.0394575 -9.61714e-09 0 4.57245e-09 0 2.93759e-08
20 3 0.001 0.00729217 0 -0.038899 1.09118e-08 0 -6.20993e-09 0 2.95992e-08
21 3 0.001 0.00756449 0 -0.0383306 -9.04271e-09 0 2.94544e-09 0 2.97555e-08
22 3 0.001 0.00781671 0 -0.0377531 1.16519e-08 0 -5.36041e-09 0 2.98405e-08
23 3 0.001 0.00804838 0 -0.037167 -7.28862e-09 0 2.80069e-09 0 2.98516e-08
24 3 0.001 0.0082592 0 -0.0365732 3.00389e-09 0 -1.77847e-09 0 2.97886e-08
25 3 0.001 0.00844901 0 -0.0359722 -4.16301e-09 0 1.24144e-10 0 2.96533e-08
26 3 0.001 0.00861781 0 -0.035365 9.35658e-09 0 -3.43405e-09 0 2.94495e-08
27 3 0.001 0.00876576 0 -0.0347524 -4.73778e-09 0 5.91939e-10 0 2.91829e-08
28 3 0.001 0.00889319 0 -0.0341352 -1.71382e-10 0 -4.10916e-10 0 2.88609e-08
29 3 0.001 0.00900055 0 -0.0335142 2.41785e-09 0 -1.61655e-09 0 2.84923e-08
30 3 0.001 0.00908848 0 -0.03289 -5.10111e-09 0 -5.1905e-10 0 2.80556e-08
31 3 0.001 0.00915774 0 -0.0322636 5.69783e-09 0 -8.8437e-10 0 2.75457e-08
32 3 0.001 0.00920919 0 -0.0316353 -2.18215e-09 0 8.10728e-11 0 2.70194e-08
33 3 0.001 0.00924373 0 -0.0310059 -3.2227e-09 0 -6.58008e-10 0 2.6542e-08
34 3 0.001 0.00926225 0 -0.0303758 3.50995e-09 0 -1.96363e-09 0 2.61584e-08
35 3 0.001 0.00926555 0 -0.0297454 -3.82054e-09 0 -1.23533e-09 0 2.58888e-08
36 3 0.001 0.00925436 0 -0.0291151 3.1315e-09 0 3.77615e-10 0 2.57299e-08
37 3 0.001 0.00922931 0 -0.0284852 -4.65172e-09 0 -1.38109e-10 0 2.56599e-08
38 3 0.001 0.0091909 0 -0.0278559 3.05342e-09 0 -5.95344e-10 0 2.56427e-08
39 3 0.001 0.00913958 0 -0.0272276 -1.53728e-09 0 -1.86634e-09 0 2.56348e-08
40 3 0.001 0.00907577 0 -0.0266004 -3.29875e-09 0 -1.99562e-09 0 2.55943e-08
41 3 0.001 0.00899987 0 -0.0259745 -8.49802e-10 0 -1.16023e-10 0 2.54989e-08
42 3 0.001 0.00891231 0 -0.0253502 2.07016e-09 0 7.50123e-10 0 2.5369e-08
43 3 0.001 0.00881361 0 -0.0247275 1.34658e-09 0 -1.64191e-10 0 2.52296e-08
44 3 0.001 0.00870434 0 -0.0241066 -8.58017e-09 0 -2.81714e-09 0 2.50837e-08
45 3 0.001 0.00858513 0 -0.0234875 3.7464e-09 0 -1.0162e-09 0 2.49346e-08
46 3 0.001 0.00845663 0 -0.0228703 2.4142e-09 0 -1.51852e-10 0 2.47857e-08
47 3 0.001 0.00831959 0 -0.0222549 -2.01493e-09 0 -3.41879e-10 0 2.46401e-08
48 3 0.001 0.00817477 0 -0.0216413 -4.09387e-09 0 -1.22246e-09 0 2.45009e-08
49 3 0.001 0.00802296 0 -0.0210293 7.29014e-10 0 -4.12329e-10 0 2.43712e-08
51 3 0.001 0.00770174 0 -0.0198099 -7.0699e-09 0 -3.08979e-09 0 2.41506e-08
50 3 0.001 0.007865 0 -0.0204189 6.01751e-09 0 1.82132e-10 0 2.42536e-08
53 3 0.001 0.00736291 0 -0.0185953 -1.28028e-09 0 -5.86861e-10 0 2.39964e-08
52 3 0.001 0.00753408 0 -0.0192021 3.64007e-09 0 8.39876e-10 0 2.40643e-08
56 3 0.001 0.00683756 0 -0.0167781 1.50232e-09 0 -6.46207e-10 0 2.39149e-08
54 3 0.001 0.00718914 0 -0.0179892 1.18305e-09 0 -3.41394e-10 0 2.39483e-08
55 3 0.001 0.00701372 0 -0.0173835 1.92649e-09 0 -7.58405e-10 0 2.39209e-08
58 3 0.001 0.00648679 0 -0.0155668 -4.75099e-09 0 -2.23653e-09 0 2.39668e-08
57 3 0.001 0.0066616 0 -0.0161726 2.70178e-09 0 6.63999e-10 0 2.39303e-08
60 3 0.001 0.0061443 0 -0.0143532 -2.71295e-09 0 -1.38413e-09 0 2.40999e-08
61 3 0.001 0.00597846 0 -0.0137449 5.96801e-09 0 1.18892e-09 0 2.41938e-08
59 3 0.001 0.00631405 0 -0.0149604 8.59933e-09 0 1.17761e-09 0 2.40238e-08
63 3 0.001 0.00566205 0 -0.0125243 1.09425e-08 0 1.43948e-09 0 2.44267e-08
62 3 0.001 0.00581742 0 -0.0131353 -2.21928e-09 0 -8.54318e-10 0 2.43035e-08
66 3 0.001 0.0052383 0 -0.010681 2.75029e-09 0 8.05785e-10 0 2.48508e-08
64 3 0.001 0.00551319 0 -0.0119116 -5.43812e-09 0 -2.93629e-09 0 2.45609e-08
65 3 0.001 0.00537168 0 -0.0112972 5.39282e-09 0 1.07447e-09 0 2.47033e-08
67 3 0.001 0.00511378 0 -0.0100629 6.28409e-09 0 7.36957e-10 0 2.50002e-08
68 3 0.001 0.00499884 0 -0.00944304 -1.55575e-09 0 -1.65397e-09 0 2.51483e-08
69 3 0.001 0.00489413 0 -0.00882135 5.20843e-09 0 -5.19283e-10 0 2.52918e-08
70 3 0.001 0.00480025 0 -0.00819794 7.24297e-09 0 1.02527e-09 0 2.54274e-08
71 3 0.001 0.00471774 0 -0.00757293 4.8483e-10 0 4.0327e-10 0 2.55521e-08
72 3 0.001 0.00464708 0 -0.00694647 3.08331e-09 0 1.83751e-10 0 2.5663e-08
73 3 0.001 0.0045887 0 -0.00631876 3.45869e-10 0 -2.7315e-10 0 2.57575e-08
74 3 0.001 0.00454292 0 -0.00569001 1.08697e-08 0 -2.16763e-10 0 2.58334e-08
75 3 0.001 0.00451002 0 -0.00506046 -4.93884e-09 0 -6.02585e-10 0 2.5889e-08
76 3 0.001 0.00449021 0 -0.00443036 1.15613e-08 0 3.79183e-10 0 2.59229e-08
77 3 0.001 0.00448359 0 -0.00379998 -3.68369e-09 0 1.56729e-10 0 2.59343e-08
78 3 0.001 0.00449021 0 -0.00316961 1.31723e-08 0 3.56906e-10 0 2.59229e-08
79 3 0.001 0.00451002 0 -0.00253951 -6.97451e-09 0 4.24043e-10 0 2.5889e-08
80 3 0.001 0.00454291 0 -0.00190996 5.46693e-09 0 -6.55698e-10 0 2.58335e-08
81 3 0.001 0.00458868 0 -0.00128121 1.10422e-08 0 -1.06788e-09 0 2.57575e-08
82 3 0.001 0.00464707 0 -0.000653495 -2.91656e-09 0 4.54738e-10 0 2.5663e-08
83 3 0.001 0.00471772 0 -2.70403e-05 4.28826e-09 0 5.4914e-10 0 2.55522e-08
84 3 0.001 0.00480023 0 0.000597971 1.34413e-09 0 9.8278e-10 0 2.54275e-08
85 3 0.001 0.00489411 0 0.00122138 7.94154e-09 0 -1.15516e-09 0 2.52919e-08
86 3 0.001 0.00499882 0 0.00184308 2.39485e-09 0 -4.59538e-10 0 2.51484e-08
87 3 0.001 0.00511376 0 0.00246297 2.99124e-10 0 1.85818e-10 0 2.50004e-08
88 3 0.001 0.00523827 0 0.00308102 4.66795e-09 0 -2.02758e-10 0 2.48509e-08
89 3 0.001 0.00537166 0 0.00369722 4.92057e-09 0 2.39882e-10 0 2.47035e-08
90 3 0.001 0.00551317 0 0.00431162 -1.69618e-09 0 1.32322e-09 0 2.45611e-08
91 3 0.001 0.00566202 0 0.00492428 7.11881e-09 0 -1.19311e-09 0 2.44269e-08
92 3 0.001 0.00581739 0 0.00553534 -7.76756e-10 0 5.18646e-10 0 2.43037e-08
93 3 0.001 0.00597843 0 0.00614493 3.96342e-09 0 -7.73754e-10 0 2.4194e-08
94 3 0.001 0.00614427 0 0.00675324 -6.86913e-10 0 1.41122e-09 0 2.41001e-08
95 3 0.001 0.00631402 0 0.00736048 4.64415e-09 0 6.22602e-12 0 2.4024e-08
96 3 0.001 0.00648676 0 0.00796687 8.27748e-10 0 5.58103e-10 0 2.3967e-08
97 3 0.001 0.00666157 0 0.00857268 4.4285e-09 0 -8.79484e-10 0 2.39305e-08
98 3 0.001 0.00683752 0 0.00917816 -7.72261e-09 0 2.39232e-09 0 2.39151e-08
99 3 0.001 0.00701368 0 0.00978357 1.02618e-08 0 -2.10827e-09 0 2.39212e-08
100 3 0.001 0.00718911 0 0.0103892 -6.95903e-09 0 3.27625e-09 0 2.39485e-08
101 3 0.001 0.00736287 0 0.0109953 1.05082e-08 0 -2.25224e-09 0 2.39966e-08
102 3 0.001 0.00753405 0 0.0116021 -1.28373e-08 0 4.28383e-09 0 2.40645e-08
103 3 0.001 0.00770171 0 0.01221 1.12567e-08 0 -2.78027e-09 0 2.41508e-08
104 3 0.001 0.00786497 0 0.012819 -6.01361e-09 0 2.12138e-09 0 2.42539e-08
105 3 0.001 0.00802293 0 0.0134294 6.11003e-09 0 -4.54968e-10 0 2.43715e-08
106 3 0.001 0.00817474 0 0.0140413 -1.30702e-08 0 3.84184e-09 0 2.45012e-08
107 3 0.001 0.00831957 0 0.0146549 1.19098e-08 0 -2.05242e-09 0 2.46404e-08
108 3 0.001 0.00845661 0 0.0152703 -2.97332e-09 0 1.22343e-09 0 2.4786e-08
109 3 0.001 0.00858511 0 0.0158876 -3.27287e-09 0 8.8347e-10 0 2.4935e-08
110 3 0.001 0.00870433 0 0.0165067 -2.86357e-09 0 1.37477e-09 0 2.5084e-08
111 3 0.001 0.0088136 0 0.0171276 2.66999e-09 0 5.53701e-10 0 2.52299e-08
112 3 0.001 0.0089123 0 0.0177502 3.33928e-09 0 2.97394e-10 0 2.53694e-08
113 3 0.001 0.00899986 0 0.0183746 -7.89536e-09 0 1.56056e-09 0 2.54992e-08
114 3 0.001 0.00907576 0 0.0190004 6.28844e-10 0 4.80433e-11 0 2.55947e-08
115 3 0.001 0.00913958 0 0.0196276 8.74924e-10 0 9.55077e-10 0 2.56352e-08
116 3 0.001 0.00919089 0 0.0202559 3.24681e-09 0 1.0667e-09 0 2.56431e-08
117 3 0.001 0.0092293 0 0.0208852 -1.01838e-08 0 8.99937e-10 0 2.56603e-08
118 3 0.001 0.00925437 0 0.0215151 4.8357e-09 0 3.49752e-10 0 2.57304e-08
119 3 0.001 0.00926555 0 0.0221454 -1.66909e-09 0 7.56654e-10 0 2.58892e-08
120 3 0.001 0.00926225 0 0.0227758 6.21783e-09 0 1.1956e-09 0 2.61588e-08
121 3 0.001 0.00924374 0 0.0234059 -1.02918e-08 0 4.8513e-10 0 2.65424e-08
122 3 0.001 0.0092092 0 0.0240353 1.27303e-09 0 1.21041e-10 0 2.70199e-08
123 3 0.001 0.00915775 0 0.0246636 5.5449e-09 0 1.35249e-09 0 2.75461e-08
124 3 0.001 0.00908849 0 0.0252901 -3.61563e-09 0 9.65378e-10 0 2.80561e-08
125 3 0.001 0.00900057 0 0.0259142 1.69764e-09 0 1.38963e-09 0 2.84929e-08
126 3 0.001 0.00889321 0 0.0265352 -4.43809e-09 0 -1.69866e-10 0 2.88616e-08
129 3 0.001 0.00844903 0 0.0283722 4.83162e-09 0 2.89766e-09 0 2.9654e-08
127 3 0.001 0.00876579 0 0.0271525 6.69249e-09 0 1.40315e-09 0 2.91836e-08
128 3 0.001 0.00861784 0 0.0277651 -5.61294e-09 0 -1.09845e-09 0 2.94502e-08
130 3 0.001 0.00825923 0 0.0289732 -1.18543e-10 0 1.44739e-09 0 2.97894e-08
131 3 0.001 0.00804841 0 0.0295671 -1.08942e-09 0 4.34158e-10 0 2.98524e-08
132 3 0.001 0.00781674 0 0.0301531 -2.34097e-09 0 -1.43036e-09 0 2.98413e-08
133 3 0.001 0.00756452 0 0.0307307 1.12069e-08 0 4.99719e-09 0 2.97564e-08
134 3 0.001 0.00729221 0 0.031299 -9.04722e-09 0 -3.13246e-09 0 2.96e-08
136 3 0.001 0.00668973 0 0.0324059 -1.89444e-09 0 -1.92061e-10 0 2.90927e-08
137 3 0.001 0.0063611 0 0.0329437 2.591e-09 0 1.29211e-09 0 2.87558e-08
135 3 0.001 0.00700037 0 0.0318576 5.54139e-09 0 4.39507e-09 0 2.93768e-08
138 3 0.001 0.00601538 0 0.0334707 3.88376e-09 0 1.78825e-09 0 2.83751e-08
139 3 0.001 0.00565357 0 0.0339868 -3.57167e-09 0 -1.80627e-09 0 2.79605e-08
140 3 0.001 0.00527672 0 0.034492 3.00631e-09 0 3.90375e-09 0 2.75228e-08
141 3 0.001 0.00488594 0 0.0349866 -1.78295e-09 0 -9.57207e-10 0 2.70727e-08
142 3 0.001 0.00448237 0 0.0354708 5.89843e-09 0 4.56099e-09 0 2.6621e-08
143 3 0.001 0.00406718 0 0.0359452 -3.71282e-10 0 -9.96922e-10 0 2.61782e-08
144 3 0.001 0.00364155 0 0.0364102 1.41589e-09 0 1.70652e-09 0 2.57542e-08
145 3 0.001 0.00320668 0 0.0368666 -4.71744e-09 0 -3.78025e-09 0 2.53579e-08
146 3 0.001 0.00276374 0 0.0373153 6.67086e-09 0 6.5937e-09 0 2.49977e-08
148 3 0.001 0.00185839 0 0.0381929 1.97273e-09 0 2.08403e-09 0 2.44129e-08
149 3 0.001 0.00139831 0 0.038624 -1.78669e-09 0 -1.97058e-09 0 2.3891e-08
147 3 0.001 0.00231392 0 0.037757 -2.33325e-09 0 -2.32619e-09 0 2.46807e-08
151 3 0.001 0.00046853 0 0.039477 -5.91277e-10 0 -1.14499e-09 0 1.35721e-08
2 2 0.001 0 0 0.0399 -0.00690233 0 0.0177349 0 6.76213e-09
150 3 0.001 0.000934796 0 0.0390515 2.31405e-09 0 2.68873e-09 0 1.8555e-08
