ITEM: TIMESTEP
300000
ITEM: NUMBER OF ATOMS
1500
ITEM: BOX BOUNDS ff ff ff
-2.5000000000000001e-02 2.5000000000000001e-02
-5.0000000000000001e-03 5.0000000000000001e-03
-5.0000000000000003e-02 5.0000000000000003e-02
ITEM: ATOMS id type radius x y z fx fy fz c_bendingE c_stretchingE
1 1 0.001 -0.0225 0 -0.04693 -0.0280132 0 -3.8e-09 2.64842e-08 1.59293e-34
2 1 0.001 -0.0225 0 -0.0462924 0.0281168 0 -0.00425434 5.27019e-08 7.50909e-10
3 1 0.001 -0.0224943 0 -0.0456556 -1.46187e-07 0 -1.42133e-07 7.85845e-08 1.50137e-09
151 2 0.001 -0.0175 0 -0.04693 -0.0241892 0 -3.8e-09 1.9747e-08 1.59293e-34
152 2 0.001 -0.0175 0 -0.0462924 0.0237438 0 -0.0112088 4.00833e-08 5.21799e-09
153 2 0.001 -0.0174951 0 -0.0456567 2.44426e-07 0 5.60294e-07 6.08711e-08 1.04377e-08
301 3 0.001 -0.0125 0 -0.04693 -0.0265697 0 -3.8e-09 2.38249e-08 1.59293e-34
302 3 0.001 -0.0125 0 -0.0462924 0.0259019 0 -0.0167466 4.8599e-08 1.16483e-08
303 3 0.001 -0.0124946 0 -0.0456576 1.5446e-05 0 5.01129e-06 7.40457e-08 2.32946e-08
451 4 0.001 -0.0075 0 -0.04693 -0.0358562 0 -3.8e-09 4.33904e-08 1.59293e-34
452 4 0.001 -0.0075 0 -0.0462924 0.0360869 0 -0.0100567 8.59515e-08 4.19543e-09
453 4 0.001 -0.00749276 0 -0.0456565 -1.46312e-05 0 -2.2387e-05 1.27457e-07 8.40603e-09
601 5 0.001 -0.0025 0 -0.04693 -0.0300548 0 -3.8e-09 3.04851e-08 1.59293e-34
602 5 0.001 -0.0025 0 -0.0462924 0.0303866 0 -0.0108023 6.00967e-08 4.84046e-09
603 5 0.001 -0.00249393 0 -0.0456567 1.86931e-05 0 4.91325e-06 8.8612e-08 9.67211e-09
751 6 0.001 0.0025 0 -0.04693 -0.00756561 0 -3.8e-09 1.9317e-09 1.59293e-34
752 6 0.001 0.0025 0 -0.0462924 0.00731263 0 -0.00962887 3.98225e-09 3.84901e-09
753 6 0.001 0.00250153 0 -0.0456564 -3.0084e-06 0 1.27896e-05 6.14401e-09 7.68825e-09
901 7 0.001 0.0075 0 -0.04693 -0.00331397 0 -3.8e-09 3.70636e-10 1.59293e-34
902 7 0.001 0.0075 0 -0.0462924 0.00651508 0 -0.0091238 3.71051e-10 3.45283e-09
903 7 0.001 0.00750067 0 -0.0456563 -6.87817e-06 0 9.68424e-07 6.92382e-10 6.90485e-09
1051 8 0.001 0.0125 0 -0.04693 0.0267101 0 -3.8e-09 2.40774e-08 1.59293e-34
1052 8 0.001 0.0125 0 -0.0462924 -0.0273435 0 -0.00362534 4.69734e-08 5.43905e-10
1053 8 0.001 0.0124946 0 -0.0456555 7.57803e-06 0 2.97122e-07 6.86794e-08 1.08607e-09
1201 9 0.001 0.0175 0 -0.04693 0.00492614 0 -3.8e-09 8.18963e-10 1.59293e-34
1202 9 0.001 0.0175 0 -0.0462924 -0.0045377 0 -0.0012087 1.77145e-09 6.07039e-11
1203 9 0.001 0.017499 0 -0.045655 1.31485e-05 0 -2.04316e-06 2.87181e-09 1.21682e-10
1351 10 0.001 0.0225 0 -0.04693 0.014282 0 -3.8e-09 6.88383e-09 1.59293e-34
1352 10 0.001 0.0225 0 -0.0462924 -0.0131502 0 -0.00372311 1.48833e-08 5.7696e-10
1353 10 0.001 0.0224971 0 -0.0456555 -4.0041e-06 0 4.43436e-06 2.40573e-08 1.15421e-09
4 1 0.001 -0.022483 0 -0.0450188 -1.15484e-07 0 1.49341e-06 7.75809e-08 1.49978e-09
5 1 0.001 -0.0224661 0 -0.0443821 2.58026e-07 0 3.23692e-06 7.63765e-08 1.49677e-09
154 2 0.001 -0.0174853 0 -0.0450211 1.11654e-06 0 3.38631e-06 6.22174e-08 1.0438e-08
155 2 0.001 -0.0174704 0 -0.0443855 1.56372e-06 0 6.5688e-06 6.31296e-08 1.04313e-08
304 3 0.001 -0.0124838 0 -0.0450229 3.48257e-05 0 1.33005e-05 7.60127e-08 2.32765e-08
305 3 0.001 -0.0124675 0 -0.0443883 4.87094e-05 0 2.18339e-05 7.70148e-08 2.3229e-08
454 4 0.001 -0.00747835 0 -0.0450208 -3.57841e-05 0 -4.06091e-05 1.24348e-07 8.45153e-09
455 4 0.001 -0.00745685 0 -0.0443853 -5.89228e-05 0 -5.90186e-05 1.20738e-07 8.52832e-09
604 5 0.001 -0.00248188 0 -0.045021 4.34462e-05 0 7.34618e-06 8.52931e-08 9.65066e-09
605 5 0.001 -0.00246397 0 -0.0443854 7.0202e-05 0 3.72865e-06 8.12208e-08 9.62635e-09
754 6 0.001 0.00250463 0 -0.0450205 1.38722e-06 0 2.65944e-05 6.4741e-09 7.65769e-09
755 6 0.001 0.00250935 0 -0.0443845 1.16957e-05 0 4.13314e-05 6.76734e-09 7.60436e-09
904 7 0.001 0.00750136 0 -0.0450203 -1.95135e-05 0 4.48508e-06 1.64167e-09 6.90302e-09
905 7 0.001 0.00750143 0 -0.0443842 -3.79006e-05 0 8.3564e-06 4.60188e-09 6.90037e-09
1054 8 0.001 0.0124839 0 -0.0450186 1.9985e-05 0 1.84649e-06 6.51348e-08 1.08224e-09
1055 8 0.001 0.0124681 0 -0.0443818 3.47623e-05 0 3.44106e-06 6.16416e-08 1.07779e-09
1205 9 0.001 0.0174937 0 -0.0443803 6.46549e-05 0 -3.00606e-06 3.85916e-09 1.23228e-10
1204 9 0.001 0.0174969 0 -0.0450177 3.6282e-05 0 -3.26558e-06 3.3258e-09 1.22375e-10
1354 10 0.001 0.0224911 0 -0.0450185 -8.90245e-06 0 1.02316e-05 2.75692e-08 1.15304e-09
1355 10 0.001 0.0224818 0 -0.0443816 -1.74456e-05 0 1.58216e-05 3.12158e-08 1.1484e-09
6 1 0.001 -0.0224437 0 -0.0437456 8.7902e-07 0 2.84872e-06 7.49765e-08 1.49306e-09
7 1 0.001 -0.0224157 0 -0.0431094 1.51264e-06 0 5.05882e-07 7.33856e-08 1.49009e-09
8 1 0.001 -0.0223823 0 -0.0424734 2.04631e-06 0 -1.16725e-06 7.16094e-08 1.48829e-09
156 2 0.001 -0.0174505 0 -0.0437501 2.12775e-06 0 7.3995e-06 6.35923e-08 1.04196e-08
157 2 0.001 -0.0174256 0 -0.0431149 2.40934e-06 0 5.65559e-06 6.35973e-08 1.04073e-08
158 2 0.001 -0.0173956 0 -0.0424799 3.10827e-06 0 4.2955e-06 6.31427e-08 1.03965e-08
306 3 0.001 -0.0124455 0 -0.0437539 5.37122e-05 0 2.81475e-05 7.69604e-08 2.31545e-08
307 3 0.001 -0.0124181 0 -0.0431197 4.29638e-05 0 2.98051e-05 7.58394e-08 2.30635e-08
308 3 0.001 -0.012385 0 -0.0424857 5.17294e-06 0 3.13159e-05 7.37622e-08 2.29667e-08
456 4 0.001 -0.00742839 0 -0.04375 -9.24448e-05 0 -7.74282e-05 1.16828e-07 8.6388e-09
457 4 0.001 -0.00739308 0 -0.0431151 -0.000121564 0 -9.79068e-05 1.12823e-07 8.78716e-09
458 4 0.001 -0.00735103 0 -0.0424806 -0.000137975 0 -0.000116447 1.08899e-07 8.97499e-09
606 5 0.001 -0.00244032 0 -0.0437501 9.98303e-05 0 1.09182e-06 7.6322e-08 9.60256e-09
607 5 0.001 -0.00241113 0 -0.0431149 0.000130264 0 -2.4811e-06 7.05492e-08 9.57808e-09
608 5 0.001 -0.0023766 0 -0.0424801 0.000154159 0 -1.81567e-06 6.3906e-08 9.54945e-09
756 6 0.001 0.00251572 0 -0.0437485 3.68843e-05 0 5.53018e-05 6.99798e-09 7.52807e-09
757 6 0.001 0.00252378 0 -0.0431126 7.60792e-05 0 6.63638e-05 7.1207e-09 7.4315e-09
758 6 0.001 0.00253353 0 -0.0424766 0.000123538 0 7.45838e-05 7.07121e-09 7.31883e-09
906 7 0.001 0.00750023 0 -0.0437481 -6.15698e-05 0 9.89662e-06 9.46152e-09 6.89803e-09
907 7 0.001 0.00749715 0 -0.0431121 -9.08651e-05 0 8.75254e-06 1.60293e-08 6.89905e-09
908 7 0.001 0.00749156 0 -0.042476 -0.000125203 0 8.01167e-06 2.40234e-08 6.90404e-09
1056 8 0.001 0.0124473 0 -0.0437451 5.06079e-05 0 3.84523e-06 5.82769e-08 1.0733e-09
1057 8 0.001 0.0124217 0 -0.0431087 6.56145e-05 0 3.00774e-06 5.51136e-08 1.06971e-09
1058 8 0.001 0.0123913 0 -0.0424724 7.8487e-05 0 2.33098e-06 5.22134e-08 1.06747e-09
1208 9 0.001 0.0174761 0 -0.0424682 0.000138644 0 -1.14081e-05 6.44786e-09 1.28388e-10
1207 9 0.001 0.0174834 0 -0.0431056 0.000115637 0 -7.51669e-06 5.35564e-09 1.25797e-10
1206 9 0.001 0.0174892 0 -0.0437429 9.05781e-05 0 -3.56474e-06 4.51652e-09 1.24211e-10
1356 10 0.001 0.0224689 0 -0.0437448 -3.19015e-05 0 1.90334e-05 3.49389e-08 1.14094e-09
1357 10 0.001 0.0224522 0 -0.043108 -4.58428e-05 0 2.01303e-05 3.86613e-08 1.13186e-09
1358 10 0.001 0.0224316 0 -0.0424714 -6.28687e-05 0 2.06472e-05 4.22857e-08 1.12178e-09
9 1 0.001 -0.0223435 0 -0.0418377 2.48149e-06 0 -2.44647e-06 6.96545e-08 1.48731e-09
10 1 0.001 -0.0222995 0 -0.0412023 3.14741e-06 0 -1.33806e-06 6.7529e-08 1.48615e-09
159 2 0.001 -0.0173605 0 -0.0418451 4.28401e-06 0 3.76179e-06 6.22318e-08 1.03859e-08
160 2 0.001 -0.0173204 0 -0.0412106 7.73038e-06 0 5.93097e-06 6.08699e-08 1.03723e-08
309 3 0.001 -0.0123466 0 -0.0418521 -5.10805e-05 0 3.59472e-05 7.09661e-08 2.28658e-08
310 3 0.001 -0.0123028 0 -0.0412187 -0.00011376 0 4.45995e-05 6.77821e-08 2.27571e-08
459 4 0.001 -0.00730239 0 -0.0418466 -0.000143397 0 -0.000136674 1.05156e-07 9.2027e-09
460 4 0.001 -0.00724726 0 -0.0412132 -0.000131657 0 -0.000156778 1.01596e-07 9.47117e-09
609 5 0.001 -0.002337 0 -0.0418455 0.000176639 0 -1.33761e-06 5.64625e-08 9.51302e-09
610 5 0.001 -0.00229263 0 -0.0412113 0.000174994 0 2.97444e-06 4.83958e-08 9.46725e-09
760 6 0.001 0.00255811 0 -0.0412048 0.000227328 0 9.42821e-05 6.18363e-09 7.04774e-09
759 6 0.001 0.00254499 0 -0.0418407 0.000175425 0 8.31088e-05 6.77832e-09 7.19173e-09
909 7 0.001 0.00748288 0 -0.04184 -0.000161275 0 7.64828e-06 3.30706e-08 6.91086e-09
910 7 0.001 0.00747056 0 -0.0412041 -0.000196997 0 1.00666e-05 4.27164e-08 6.91528e-09
1059 8 0.001 0.0123564 0 -0.0418364 8.80876e-05 0 8.04533e-07 4.96209e-08 1.06685e-09
1060 8 0.001 0.012317 0 -0.0412006 9.35363e-05 0 1.31077e-06 4.73624e-08 1.06747e-09
1210 9 0.001 0.0174566 0 -0.0411936 0.000160153 0 -1.59839e-05 9.7433e-09 1.36492e-10
1209 9 0.001 0.0174673 0 -0.0418309 0.000154618 0 -1.51745e-05 7.87861e-09 1.32039e-10
1360 10 0.001 0.0223779 0 -0.0411986 -0.000100284 0 1.97719e-05 4.87779e-08 1.09971e-09
1359 10 0.001 0.0224069 0 -0.0418349 -8.19388e-05 0 1.93075e-05 4.56998e-08 1.11115e-09
11 1 0.001 -0.0222502 0 -0.0405674 3.86096e-06 0 -1.23505e-06 6.5242e-08 1.48434e-09
12 1 0.001 -0.0221958 0 -0.0399328 4.42233e-06 0 -1.62364e-06 6.28036e-08 1.48241e-09
161 2 0.001 -0.0172754 0 -0.0405765 1.24555e-05 0 6.58018e-06 5.90629e-08 1.03541e-08
162 2 0.001 -0.0172255 0 -0.0399427 1.77604e-05 0 6.15719e-06 5.68178e-08 1.03335e-08
311 3 0.001 -0.0122538 0 -0.0405858 -0.00016975 0 5.42618e-05 6.45569e-08 2.2638e-08
312 3 0.001 -0.0121997 0 -0.0399533 -0.000205306 0 6.03125e-05 6.15767e-08 2.25125e-08
461 4 0.001 -0.00718577 0 -0.0405804 -0.000100819 0 -0.000174555 9.81181e-08 9.77612e-09
462 4 0.001 -0.00711803 0 -0.0399482 -6.75142e-05 0 -0.000193961 9.45456e-08 1.0115e-08
611 5 0.001 -0.00224385 0 -0.0405773 0.000153499 0 6.29701e-06 3.99929e-08 9.41337e-09
612 5 0.001 -0.00219107 0 -0.0399437 0.000116807 0 8.55917e-06 3.16371e-08 9.35735e-09
762 6 0.001 0.00258901 0 -0.039933 0.000272979 0 0.000109759 4.09154e-09 6.71266e-09
761 6 0.001 0.00257282 0 -0.0405689 0.000263771 0 0.000104201 5.27018e-09 6.88621e-09
911 7 0.001 0.0074541 0 -0.0405682 -0.000231082 0 1.05932e-05 5.24478e-08 6.91454e-09
912 7 0.001 0.00743303 0 -0.0399325 -0.00026184 0 1.01053e-05 6.17238e-08 6.90871e-09
1061 8 0.001 0.0122733 0 -0.0405651 9.44788e-05 0 1.85728e-06 4.54443e-08 1.06859e-09
1062 8 0.001 0.0122252 0 -0.0399299 9.1206e-05 0 2.21445e-06 4.38553e-08 1.07008e-09
1212 9 0.001 0.0174292 0 -0.0399192 0.000143036 0 -2.27997e-05 1.51607e-08 1.48027e-10
1211 9 0.001 0.017444 0 -0.0405564 0.000156171 0 -1.86774e-05 1.21401e-08 1.41687e-10
1362 10 0.001 0.0223064 0 -0.0399266 -0.000127657 0 2.06397e-05 5.34281e-08 1.07224e-09
1361 10 0.001 0.0223444 0 -0.0405625 -0.00011645 0 1.98238e-05 5.13923e-08 1.08681e-09
13 1 0.001 -0.0221364 0 -0.0392987 4.84873e-06 0 -2.63581e-07 6.02255e-08 1.47993e-09
14 1 0.001 -0.022072 0 -0.0386651 5.13535e-06 0 7.93492e-07 5.75214e-08 1.47642e-09
15 1 0.001 -0.0220029 0 -0.0380319 5.47464e-06 0 3.6149e-07 5.47062e-08 1.47253e-09
163 2 0.001 -0.0171709 0 -0.0393094 2.24101e-05 0 7.91414e-06 5.41479e-08 1.03096e-08
164 2 0.001 -0.0171116 0 -0.0386764 2.42938e-05 0 1.01483e-05 5.10801e-08 1.028e-08
165 2 0.001 -0.0170478 0 -0.0380439 2.27107e-05 0 1.13379e-05 4.76599e-08 1.02459e-08
313 3 0.001 -0.0121407 0 -0.0393212 -0.00021795 0 6.33045e-05 5.9021e-08 2.23871e-08
314 3 0.001 -0.0120769 0 -0.0386895 -0.000208079 0 6.38996e-05 5.69471e-08 2.2264e-08
315 3 0.001 -0.0120083 0 -0.0380584 -0.000172803 0 6.15852e-05 5.5296e-08 2.21431e-08
463 4 0.001 -0.00704415 0 -0.0393168 -3.17717e-05 0 -0.000213451 9.06662e-08 1.04884e-08
464 4 0.001 -0.00696428 0 -0.0386861 -9.53365e-07 0 -0.000227494 8.62882e-08 1.08911e-08
465 4 0.001 -0.00687856 0 -0.0380563 2.19758e-05 0 -0.000235381 8.12695e-08 1.13133e-08
613 5 0.001 -0.00213474 0 -0.0393104 6.46465e-05 0 1.38924e-05 2.37466e-08 9.30179e-09
614 5 0.001 -0.00207535 0 -0.0386773 9.80339e-07 0 2.37337e-05 1.67117e-08 9.2443e-09
615 5 0.001 -0.00201341 0 -0.0380445 -5.87218e-05 0 3.5836e-05 1.08345e-08 9.18141e-09
763 6 0.001 0.00260648 0 -0.0392971 0.000255636 0 0.000114425 2.78521e-09 6.53289e-09
765 6 0.001 0.00264431 0 -0.0380254 0.000160803 0 0.000122781 6.38917e-10 6.16611e-09
764 6 0.001 0.00262502 0 -0.0386613 0.000216019 0 0.000118467 1.55671e-09 6.35e-09
915 7 0.001 0.00733861 0 -0.0380267 -0.000297103 0 1.27654e-05 8.19133e-08 6.83975e-09
913 7 0.001 0.00740697 0 -0.039297 -0.000283789 0 1.10824e-05 7.00185e-08 6.89563e-09
914 7 0.001 0.00737558 0 -0.0386617 -0.000296804 0 1.23753e-05 7.68669e-08 6.87265e-09
1063 8 0.001 0.012173 0 -0.0392951 8.37433e-05 0 3.00857e-06 4.25683e-08 1.0716e-09
1064 8 0.001 0.0121167 0 -0.0386606 7.37689e-05 0 1.86827e-06 4.1544e-08 1.07336e-09
1065 8 0.001 0.0120562 0 -0.0380265 6.15279e-05 0 -6.80661e-07 4.07339e-08 1.07609e-09
1214 9 0.001 0.0173919 0 -0.038645 0.000106546 0 -2.86226e-05 2.33765e-08 1.64276e-10
1215 9 0.001 0.0173689 0 -0.0380081 7.9688e-05 0 -3.19038e-05 2.86654e-08 1.74195e-10
1213 9 0.001 0.0174119 0 -0.0392821 0.000127307 0 -2.55873e-05 1.88857e-08 1.55578e-10
1365 10 0.001 0.0221642 0 -0.038021 -0.000163478 0 2.39938e-05 5.51281e-08 1.01356e-09
1364 10 0.001 0.0222163 0 -0.0386558 -0.000155541 0 2.37396e-05 5.53723e-08 1.0353e-09
1363 10 0.001 0.0222637 0 -0.0392911 -0.00014158 0 2.32439e-05 5.47837e-08 1.05511e-09
16 1 0.001 -0.0219291 0 -0.0373994 5.97158e-06 0 -9.9802e-07 5.17952e-08 1.4691e-09
17 1 0.001 -0.0218507 0 -0.0367673 6.64151e-06 0 -1.57714e-06 4.88037e-08 1.46618e-09
166 2 0.001 -0.0169796 0 -0.0374118 1.72503e-05 0 1.12218e-05 4.39534e-08 1.02106e-08
167 2 0.001 -0.0169072 0 -0.0367802 8.95021e-06 0 1.14809e-05 4.00439e-08 1.01758e-08
316 3 0.001 -0.011935 0 -0.0374277 -0.000111974 0 5.32987e-05 5.38972e-08 2.20266e-08
317 3 0.001 -0.0118571 0 -0.0367976 -3.74145e-05 0 4.31437e-05 5.24887e-08 2.19156e-08
466 4 0.001 -0.00678717 0 -0.0374273 4.36093e-05 0 -0.000241896 7.55312e-08 1.17482e-08
467 4 0.001 -0.00669033 0 -0.0367991 7.03407e-05 0 -0.000251272 6.90426e-08 1.21961e-08
616 5 0.001 -0.00194943 0 -0.0374119 -0.00011102 0 4.41514e-05 6.28648e-09 9.11471e-09
617 5 0.001 -0.00188393 0 -0.0367794 -0.000153778 0 4.44317e-05 3.09641e-09 9.05342e-09
767 6 0.001 0.00268383 0 -0.0367537 2.87313e-05 0 0.000130921 5.14513e-10 5.80119e-09
766 6 0.001 0.00266404 0 -0.0373896 9.49744e-05 0 0.000126476 2.42996e-10 5.98293e-09
917 7 0.001 0.00724729 0 -0.0367578 -0.000257502 0 1.38242e-05 8.59137e-08 6.75039e-09
916 7 0.001 0.00729588 0 -0.037392 -0.000283813 0 1.24991e-05 8.49451e-08 6.7987e-09
1066 8 0.001 0.0119918 0 -0.0373928 4.76623e-05 0 -2.88474e-06 4.00837e-08 1.07985e-09
1067 8 0.001 0.0119233 0 -0.0367595 3.1442e-05 0 -4.24312e-06 3.9533e-08 1.08401e-09
1216 9 0.001 0.0173424 0 -0.0373713 4.96376e-05 0 -3.5637e-05 3.47437e-08 1.85408e-10
1217 9 0.001 0.0173122 0 -0.0367347 1.33608e-05 0 -3.97787e-05 4.15471e-08 1.97959e-10
1367 10 0.001 0.0220458 0 -0.0367525 -0.000157817 0 3.00958e-05 5.20882e-08 9.63179e-10
1366 10 0.001 0.0221073 0 -0.0373865 -0.000164811 0 2.60271e-05 5.40243e-08 9.89711e-10
18 1 0.001 -0.021768 0 -0.0361358 7.23579e-06 0 -2.3684e-06 4.57472e-08 1.46358e-09
19 1 0.001 -0.021681 0 -0.0355049 7.89193e-06 0 -2.09922e-06 4.26422e-08 1.46102e-09
20 1 0.001 -0.0215898 0 -0.0348746 8.25485e-06 0 -3.01909e-06 3.95062e-08 1.45857e-09
168 2 0.001 -0.0168308 0 -0.036149 -2.34704e-06 0 1.22266e-05 3.60263e-08 1.01418e-08
169 2 0.001 -0.0167507 0 -0.0355184 -1.71468e-05 0 1.53304e-05 3.20021e-08 1.01074e-08
170 2 0.001 -0.016667 0 -0.0348881 -3.4843e-05 0 1.73643e-05 2.8073e-08 1.00727e-08
318 3 0.001 -0.0117746 0 -0.0361681 3.71871e-05 0 3.15586e-05 5.07634e-08 2.1808e-08
319 3 0.001 -0.0116877 0 -0.0355392 0.00010732 0 2.0933e-05 4.84266e-08 2.1701e-08
320 3 0.001 -0.0115964 0 -0.0349109 0.000161955 0 8.56419e-06 4.52549e-08 2.1596e-08
468 4 0.001 -0.00658827 0 -0.0361718 0.000108662 0 -0.000259932 6.17965e-08 1.26557e-08
469 4 0.001 -0.0064813 0 -0.0355453 0.000142637 0 -0.000263192 5.38308e-08 1.31189e-08
470 4 0.001 -0.00636973 0 -0.0349197 0.000164123 0 -0.000263377 4.52716e-08 1.3579e-08
618 5 0.001 -0.0018174 0 -0.0361471 -0.000188616 0 4.60013e-05 1.17249e-09 9.00162e-09
619 5 0.001 -0.0017503 0 -0.0355148 -0.000208972 0 5.07908e-05 3.35127e-10 8.95276e-09
620 5 0.001 -0.00168307 0 -0.0348825 -0.000216632 0 5.20802e-05 3.54942e-10 8.90378e-09
769 6 0.001 0.00272204 0 -0.0354818 -7.49812e-05 0 0.000133901 3.18479e-09 5.44717e-09
768 6 0.001 0.00270329 0 -0.0361178 -2.95629e-05 0 0.000132995 1.50789e-09 5.62201e-09
770 6 0.001 0.00273969 0 -0.0348458 -0.000104066 0 0.00013144 5.43519e-09 5.27855e-09
920 7 0.001 0.00706641 0 -0.0348582 -0.00012136 0 2.46493e-05 7.81861e-08 6.56907e-09
919 7 0.001 0.00713249 0 -0.0354908 -0.000173911 0 2.05109e-05 8.22384e-08 6.63437e-09
918 7 0.001 0.00719281 0 -0.036124 -0.000220743 0 1.59475e-05 8.49292e-08 6.6954e-09
1070 8 0.001 0.0116942 0 -0.0348623 -2.1379e-05 0 -1.3857e-05 3.78113e-08 1.09891e-09
1069 8 0.001 0.0117745 0 -0.0354942 -4.13907e-06 0 -9.97459e-06 3.84656e-08 1.09336e-09
1068 8 0.001 0.0118509 0 -0.0361266 1.39298e-05 0 -7.03541e-06 3.90167e-08 1.08844e-09
1219 9 0.001 0.0172392 0 -0.0354621 -7.03929e-05 0 -4.8034e-05 5.67391e-08 2.26998e-10
1218 9 0.001 0.0172779 0 -0.0360983 -2.74071e-05 0 -4.5331e-05 4.89462e-08 2.11953e-10
1369 10 0.001 0.0219092 0 -0.0354858 -0.000123091 0 4.3763e-05 4.60954e-08 9.00918e-10
1368 10 0.001 0.0219798 0 -0.0361189 -0.000143636 0 3.55286e-05 4.94019e-08 9.33697e-10
21 1 0.001 -0.0214948 0 -0.0342448 8.8991e-06 0 -1.33612e-06 3.63577e-08 1.45575e-09
22 1 0.001 -0.0213959 0 -0.0336156 9.59714e-06 0 4.67679e-07 3.32162e-08 1.45164e-09
171 2 0.001 -0.0165799 0 -0.0342584 -5.28003e-05 0 2.13934e-05 2.43335e-08 1.00379e-08
172 2 0.001 -0.0164898 0 -0.033629 -7.02292e-05 0 2.55071e-05 2.08621e-08 1.00016e-08
321 3 0.001 -0.0115008 0 -0.0342832 0.000191744 0 1.58032e-06 4.11488e-08 2.14936e-08
322 3 0.001 -0.0114012 0 -0.0336562 0.000188663 0 1.37652e-06 3.61774e-08 2.13887e-08
471 4 0.001 -0.00625397 0 -0.0342949 0.000182413 0 -0.000260363 3.63636e-08 1.40322e-08
472 4 0.001 -0.00613446 0 -0.0336709 0.000194433 0 -0.000249677 2.74677e-08 1.44688e-08
621 5 0.001 -0.00161608 0 -0.0342501 -0.000217371 0 4.84627e-05 9.87469e-10 8.85918e-09
622 5 0.001 -0.00154967 0 -0.0336177 -0.000207812 0 4.97311e-05 2.00275e-09 8.81657e-09
772 6 0.001 0.00277028 0 -0.0335737 -9.92547e-05 0 0.000134444 1.10819e-08 4.95196e-09
771 6 0.001 0.00275588 0 -0.0342098 -0.000111923 0 0.000132339 8.11393e-09 5.11486e-09
922 7 0.001 0.00691768 0 -0.0335947 -1.25086e-05 0 3.724e-05 6.75934e-08 6.43181e-09
921 7 0.001 0.00699475 0 -0.0342261 -6.67074e-05 0 3.09853e-05 7.31701e-08 6.50122e-09
1072 8 0.001 0.011522 0 -0.0336001 -5.34187e-05 0 -1.39159e-05 3.59441e-08 1.10778e-09
1071 8 0.001 0.01161 0 -0.0342309 -3.81243e-05 0 -1.417e-05 3.69895e-08 1.10417e-09
1222 9 0.001 0.0170932 0 -0.0335559 -0.000183636 0 -4.68153e-05 7.96053e-08 2.69566e-10
1221 9 0.001 0.0171472 0 -0.0341909 -0.000150025 0 -4.74461e-05 7.23925e-08 2.56566e-10
1220 9 0.001 0.0171958 0 -0.0348263 -0.000112744 0 -4.89174e-05 6.46586e-08 2.4218e-10
1370 10 0.001 0.0218344 0 -0.0348531 -9.54712e-05 0 5.16054e-05 4.23352e-08 8.6511e-10
1371 10 0.001 0.0217555 0 -0.034221 -6.20023e-05 0 6.27532e-05 3.83107e-08 8.26515e-10
1372 10 0.001 0.0216726 0 -0.0335893 -2.73436e-05 0 7.49719e-05 3.42145e-08 7.84867e-10
23 1 0.001 -0.0212934 0 -0.0329871 9.43968e-06 0 -3.23946e-06 3.01015e-08 1.44816e-09
24 1 0.001 -0.0211875 0 -0.032359 9.42094e-06 0 -4.39446e-06 2.7034e-08 1.44636e-09
173 2 0.001 -0.0163968 0 -0.0330001 -8.77465e-05 0 2.48025e-05 1.77167e-08 9.96834e-09
174 2 0.001 -0.0163012 0 -0.0323716 -0.000103382 0 2.70008e-05 1.49333e-08 9.94001e-09
323 3 0.001 -0.0112978 0 -0.0330297 0.000150322 0 2.90219e-06 3.05861e-08 2.12858e-08
324 3 0.001 -0.011191 0 -0.0324039 8.62042e-05 0 1.17747e-05 2.47523e-08 2.1189e-08
473 4 0.001 -0.0060117 0 -0.0330475 0.000184965 0 -0.000238167 1.90489e-08 1.48865e-08
474 4 0.001 -0.00588625 0 -0.0324246 0.000155872 0 -0.000213701 1.16533e-08 1.52803e-08
623 5 0.001 -0.00148415 0 -0.0329853 -0.000175553 0 4.48712e-05 3.21156e-09 8.77342e-09
624 5 0.001 -0.00141975 0 -0.0323526 -0.000117792 0 4.6618e-05 4.4893e-09 8.72484e-09
774 6 0.001 0.00279246 0 -0.0323012 -3.33194e-05 0 0.00013583 1.75312e-08 4.62924e-09
773 6 0.001 0.00278256 0 -0.0329375 -7.68248e-05 0 0.000134087 1.42349e-08 4.79006e-09
924 7 0.001 0.00674824 0 -0.0323337 7.56607e-05 0 4.15578e-05 5.61574e-08 6.307e-09
923 7 0.001 0.00683543 0 -0.0329639 3.63054e-05 0 3.84498e-05 6.18225e-08 6.3662e-09
1074 8 0.001 0.0113347 0 -0.03234 -7.52979e-05 0 -2.23648e-05 3.30216e-08 1.11595e-09
1073 8 0.001 0.0114302 0 -0.0329697 -6.56106e-05 0 -1.9399e-05 3.4631e-08 1.11134e-09
1223 9 0.001 0.0170335 0 -0.0329214 -0.000217075 0 -5.06174e-05 8.59526e-08 2.8153e-10
1224 9 0.001 0.016968 0 -0.0322875 -0.000250625 0 -5.23058e-05 9.10884e-08 2.92337e-10
1374 10 0.001 0.0214961 0 -0.0323275 5.64114e-05 0 9.43293e-05 2.65128e-08 6.98151e-10
1373 10 0.001 0.0215861 0 -0.0329582 1.22652e-05 0 8.34927e-05 3.02284e-08 7.4167e-10
25 1 0.001 -0.0210783 0 -0.0317316 9.41065e-06 0 -2.51661e-06 2.40348e-08 1.44436e-09
26 1 0.001 -0.0209661 0 -0.0311047 8.71425e-06 0 -3.22584e-06 2.1126e-08 1.44208e-09
27 1 0.001 -0.0208509 0 -0.0304783 8.38262e-06 0 -3.54732e-06 1.83295e-08 1.4403e-09
175 2 0.001 -0.0162032 0 -0.0317434 -0.000115061 0 3.11001e-05 1.2526e-08 9.91165e-09
176 2 0.001 -0.0161029 0 -0.0311156 -0.000122929 0 3.16949e-05 1.04889e-08 9.8837e-09
177 2 0.001 -0.0160007 0 -0.0304881 -0.000126426 0 3.257e-05 8.79927e-09 9.85782e-09
325 3 0.001 -0.0110811 0 -0.0317785 2.29271e-06 0 2.51626e-05 1.91044e-08 2.10967e-08
326 3 0.001 -0.0109684 0 -0.0311536 -8.82144e-05 0 3.81527e-05 1.40262e-08 2.10131e-08
327 3 0.001 -0.0108535 0 -0.0305292 -0.000171372 0 5.39178e-05 9.78379e-09 2.09379e-08
475 4 0.001 -0.00575874 0 -0.0318022 0.000115646 0 -0.000184161 5.84968e-09 1.56389e-08
476 4 0.001 -0.00562982 0 -0.0311802 6.68651e-05 0 -0.000155057 2.14501e-09 1.59632e-08
477 4 0.001 -0.0055002 0 -0.0305582 9.54728e-06 0 -0.000128395 9.08009e-10 1.62614e-08
625 5 0.001 -0.0013567 0 -0.0317199 -5.25683e-05 0 4.72625e-05 5.78673e-09 8.66353e-09
626 5 0.001 -0.00129516 0 -0.031087 1.26401e-05 0 5.06148e-05 7.12324e-09 8.58813e-09
627 5 0.001 -0.0012353 0 -0.0304539 7.20622e-05 0 5.88366e-05 8.56695e-09 8.49369e-09
777 6 0.001 0.00280521 0 -0.0303921 0.000105971 0 0.000135134 2.88871e-08 4.15701e-09
776 6 0.001 0.00280403 0 -0.0310285 6.93653e-05 0 0.000136433 2.4738e-08 4.31016e-09
775 6 0.001 0.0027997 0 -0.0316649 1.77508e-05 0 0.000137526 2.0999e-08 4.46846e-09
925 7 0.001 0.00665633 0 -0.0317043 0.000102249 0 4.49063e-05 5.08112e-08 6.25171e-09
927 7 0.001 0.00645934 0 -0.0304473 0.000117103 0 3.9979e-05 4.14934e-08 6.15971e-09
926 7 0.001 0.00655996 0 -0.0310755 0.00011633 0 4.30922e-05 4.59085e-08 6.20194e-09
1077 8 0.001 0.011027 0 -0.030454 -8.51152e-05 0 -2.33203e-05 2.64294e-08 1.12604e-09
1076 8 0.001 0.011133 0 -0.0310821 -8.40311e-05 0 -2.27265e-05 2.88991e-08 1.12311e-09
1075 8 0.001 0.0112356 0 -0.0317108 -8.1397e-05 0 -2.1664e-05 3.11069e-08 1.11996e-09
1225 9 0.001 0.0168964 0 -0.0316543 -0.000281604 0 -5.30027e-05 9.46812e-08 3.0108e-10
1226 9 0.001 0.0168187 0 -0.0310218 -0.000303592 0 -5.58321e-05 9.64511e-08 3.07717e-10
1227 9 0.001 0.0167347 0 -0.0303901 -0.000316109 0 -5.50514e-05 9.62086e-08 3.12053e-10
1375 10 0.001 0.0214029 0 -0.0316972 0.000102713 0 0.000106574 2.32034e-08 6.54124e-10
1377 10 0.001 0.0212075 0 -0.030438 0.000194206 0 0.000125607 1.82007e-08 5.67894e-10
1376 10 0.001 0.0213066 0 -0.0310674 0.000151398 0 0.000116359 2.04077e-08 6.10412e-10
28 1 0.001 -0.0207331 0 -0.0298523 8.8802e-06 0 -1.76765e-06 1.56661e-08 1.43814e-09
29 1 0.001 -0.0206129 0 -0.0292269 8.83953e-06 0 -3.27388e-06 1.31553e-08 1.43601e-09
178 2 0.001 -0.0158966 0 -0.0298609 -0.000123423 0 3.52005e-05 7.42191e-09 9.83049e-09
179 2 0.001 -0.0157908 0 -0.029234 -0.000114797 0 3.35639e-05 6.31382e-09 9.80195e-09
328 3 0.001 -0.0107366 0 -0.0299051 -0.000234517 0 6.98341e-05 6.48742e-09 2.08623e-08
329 3 0.001 -0.0106182 0 -0.0292813 -0.000271108 0 7.70766e-05 4.10097e-09 2.07865e-08
478 4 0.001 -0.0053706 0 -0.0299364 -4.67919e-05 0 -9.9083e-05 2.3178e-09 1.65351e-08
479 4 0.001 -0.00524175 0 -0.0293143 -8.97932e-05 0 -7.37561e-05 6.34601e-09 1.67817e-08
628 5 0.001 -0.00117728 0 -0.0298207 0.00011498 0 7.08998e-05 1.02122e-08 8.37582e-09
629 5 0.001 -0.00112127 0 -0.0291872 0.000150373 0 7.76857e-05 1.21685e-08 8.23875e-09
779 6 0.001 0.00279711 0 -0.0291193 0.000126832 0 0.000135733 3.89697e-08 3.86419e-09
778 6 0.001 0.002803 0 -0.0297557 0.000125352 0 0.000136203 3.35919e-08 4.0084e-09
929 7 0.001 0.00624622 0 -0.029193 7.8813e-05 0 2.86222e-05 3.39862e-08 6.09079e-09
928 7 0.001 0.0063547 0 -0.0298198 0.000103888 0 3.69814e-05 3.75436e-08 6.12261e-09
1079 8 0.001 0.0108055 0 -0.0291995 -8.47618e-05 0 -2.41357e-05 2.08967e-08 1.13028e-09
1078 8 0.001 0.0109178 0 -0.0298265 -8.57947e-05 0 -2.2184e-05 2.37431e-08 1.12823e-09
1229 9 0.001 0.0165482 0 -0.0291293 -0.000307518 0 -4.27617e-05 8.95624e-08 3.09528e-10
1228 9 0.001 0.0166445 0 -0.0297592 -0.00031858 0 -4.73801e-05 9.38879e-08 3.1267e-10
1379 10 0.001 0.0210015 0 -0.0291804 0.000229451 0 0.000137577 1.56762e-08 4.85514e-10
1378 10 0.001 0.0211058 0 -0.029809 0.000220825 0 0.00013495 1.6622e-08 5.26142e-10
30 1 0.001 -0.0204904 0 -0.0286019 8.6221e-06 0 -4.12039e-06 1.08155e-08 1.43485e-09
31 1 0.001 -0.0203658 0 -0.0279773 8.47261e-06 0 -2.84755e-06 8.665e-09 1.43376e-09
32 1 0.001 -0.0202394 0 -0.0273531 7.99371e-06 0 -2.644e-06 6.72138e-09 1.43242e-09
180 2 0.001 -0.0156834 0 -0.0286073 -0.000100364 0 3.09279e-05 5.42763e-09 9.77492e-09
181 2 0.001 -0.0155746 0 -0.0279809 -8.12077e-05 0 2.89298e-05 4.71557e-09 9.74781e-09
182 2 0.001 -0.0154644 0 -0.0273548 -5.9071e-05 0 2.54489e-05 4.13232e-09 9.71988e-09
330 3 0.001 -0.0104985 0 -0.0286577 -0.000279635 0 7.85893e-05 2.48609e-09 2.07153e-08
331 3 0.001 -0.010378 0 -0.0280343 -0.000258664 0 7.55545e-05 1.45865e-09 2.06465e-08
332 3 0.001 -0.0102566 0 -0.027411 -0.000204976 0 6.48539e-05 8.36282e-10 2.05793e-08
480 4 0.001 -0.00511435 0 -0.028692 -0.000118611 0 -4.76814e-05 1.27769e-08 1.69961e-08
481 4 0.001 -0.00498912 0 -0.0280693 -0.000137907 0 -2.23869e-05 2.12536e-08 1.71701e-08
482 4 0.001 -0.00486672 0 -0.027446 -0.000145297 0 -2.31929e-06 3.13358e-08 1.73027e-08
630 5 0.001 -0.00106746 0 -0.0285535 0.000173497 0 8.65153e-05 1.45504e-08 8.08779e-09
631 5 0.001 -0.00101604 0 -0.0279197 0.000189051 0 9.6507e-05 1.74787e-08 7.92279e-09
632 5 0.001 -0.000967246 0 -0.0272856 0.000194247 0 0.000101871 2.10725e-08 7.74871e-09
781 6 0.001 0.00277317 0 -0.0278466 6.78758e-05 0 0.00013717 5.19046e-08 3.58755e-09
780 6 0.001 0.00278727 0 -0.0284829 0.000109213 0 0.000136807 4.50832e-08 3.7243e-09
932 7 0.001 0.00589968 0 -0.0273162 -2.68998e-05 0 -2.37948e-07 2.45745e-08 6.03079e-09
931 7 0.001 0.00601853 0 -0.0279412 8.50349e-06 0 9.54004e-06 2.7613e-08 6.04649e-09
930 7 0.001 0.00613411 0 -0.0285668 4.52135e-05 0 1.8486e-05 3.07149e-08 6.06605e-09
1082 8 0.001 0.0104524 0 -0.0273215 -7.22343e-05 0 -2.12355e-05 1.20997e-08 1.13668e-09
1081 8 0.001 0.0105726 0 -0.027947 -7.80187e-05 0 -2.2169e-05 1.49965e-08 1.13505e-09
1080 8 0.001 0.0106904 0 -0.028573 -8.2247e-05 0 -2.44998e-05 1.79561e-08 1.13289e-09
1231 9 0.001 0.016338 0 -0.0278722 -0.00025286 0 -2.70743e-05 7.58638e-08 2.95223e-10
1230 9 0.001 0.016446 0 -0.0285003 -0.000285444 0 -3.60817e-05 8.34435e-08 3.03622e-10
1381 10 0.001 0.0207856 0 -0.0279245 0.000187495 0 0.000131773 1.55663e-08 4.09997e-10
1380 10 0.001 0.0208948 0 -0.0285523 0.00021793 0 0.000137055 1.53393e-08 4.46754e-10
33 1 0.001 -0.0201114 0 -0.0267292 7.46467e-06 0 -2.91155e-06 5.0012e-09 1.4314e-09
34 1 0.001 -0.019982 0 -0.0261056 7.03019e-06 0 -2.34929e-06 3.51959e-09 1.4306e-09
183 2 0.001 -0.015353 0 -0.0267288 -3.50799e-05 0 2.18946e-05 3.63705e-09 9.69146e-09
184 2 0.001 -0.0152404 0 -0.0261031 -1.02384e-05 0 1.93448e-05 3.19457e-09 9.66105e-09
333 3 0.001 -0.0101348 0 -0.0267878 -0.00012703 0 4.92207e-05 4.67924e-10 2.05146e-08
334 3 0.001 -0.0100126 0 -0.0261647 -2.58186e-05 0 3.29265e-05 2.4555e-10 2.04467e-08
483 4 0.001 -0.00474779 0 -0.0268221 -0.000137364 0 1.97254e-05 4.25584e-08 1.73885e-08
484 4 0.001 -0.00463291 0 -0.0261973 -0.000121858 0 4.40601e-05 5.44787e-08 1.7415e-08
634 5 0.001 -0.000878608 0 -0.0260167 0.000166433 0 0.000113991 3.06484e-08 7.3893e-09
633 5 0.001 -0.00092134 0 -0.0266512 0.000184782 0 0.000108891 2.5437e-08 7.57023e-09
782 6 0.001 0.00275451 0 -0.0272104 7.96375e-06 0 0.000134051 5.92833e-08 3.45485e-09
784 6 0.001 0.00270222 0 -0.0259384 -0.000143523 0 0.000115569 7.43979e-08 3.21034e-09
783 6 0.001 0.00273097 0 -0.0265743 -6.4399e-05 0 0.000126052 6.69249e-08 3.32866e-09
934 7 0.001 0.0056529 0 -0.0260681 -8.04322e-05 0 -1.52428e-05 1.84216e-08 6.00995e-09
933 7 0.001 0.00577773 0 -0.0266919 -5.76183e-05 0 -9.18351e-06 2.15225e-08 6.01907e-09
1084 8 0.001 0.0102058 0 -0.0260716 -5.44693e-05 0 -1.84019e-05 6.83561e-09 1.14088e-09
1083 8 0.001 0.01033 0 -0.0266964 -6.43937e-05 0 -2.0621e-05 9.35107e-09 1.13862e-09
1232 9 0.001 0.0162245 0 -0.0272451 -0.00021689 0 -1.49983e-05 6.72351e-08 2.84392e-10
1234 9 0.001 0.0159825 0 -0.0259937 -0.000140781 0 1.31414e-05 4.86054e-08 2.55958e-10
1233 9 0.001 0.0161059 0 -0.026619 -0.000179601 0 -1.79131e-06 5.80032e-08 2.71214e-10
1384 10 0.001 0.0204429 0 -0.0260437 -7.29238e-06 0 9.57081e-05 1.87582e-08 3.11518e-10
1382 10 0.001 0.0206739 0 -0.0272971 0.00013662 0 0.000123505 1.62879e-08 3.75236e-10
1383 10 0.001 0.0205597 0 -0.0266702 6.98022e-05 0 0.000110658 1.74011e-08 3.42406e-10
35 1 0.001 -0.0198515 0 -0.0254822 6.33947e-06 0 -1.78873e-06 2.29007e-09 1.42976e-09
36 1 0.001 -0.01972 0 -0.024859 5.48306e-06 0 -1.28002e-06 1.32441e-09 1.42896e-09
37 1 0.001 -0.0195879 0 -0.024236 4.54516e-06 0 -1.79453e-06 6.32414e-10 1.42858e-09
185 2 0.001 -0.0151267 0 -0.0254775 1.42112e-05 0 1.64241e-05 2.77623e-09 9.62775e-09
186 2 0.001 -0.0150119 0 -0.0248522 3.49424e-05 0 1.35239e-05 2.36184e-09 9.59236e-09
335 3 0.001 -0.00989001 0 -0.0255417 8.42888e-05 0 1.57718e-05 1.07565e-10 2.0369e-08