ITEM: TIMESTEP
400000
ITEM: NUMBER OF ATOMS
1500
ITEM: BOX BOUNDS ff ff ff
-2.5000000000000001e-02 2.5000000000000001e-02
-5.0000000000000001e-03 5.0000000000000001e-03
-5.0000000000000003e-02 5.0000000000000003e-02
ITEM: ATOMS id type radius x y z fx fy fz c_bendingE c_stretchingE
1 1 0.001 -0.0225 0 -0.04674 -0.0353043 0 -3.8e-09 4.20648e-08 1.59293e-34
2 1 0.001 -0.0225 0 -0.0461024 0.0356196 0 -0.00398089 8.3277e-08 6.56568e-10
3 1 0.001 -0.0224929 0 -0.0454655 -1.60535e-07 0 1.66437e-07 1.23543e-07 1.31168e-09
151 2 0.001 -0.0175 0 -0.04674 -0.0337175 0 -3.8e-09 3.83683e-08 1.59293e-34
152 2 0.001 -0.0175 0 -0.0461024 0.0335884 0 -0.00998294 7.67869e-08 4.13745e-09
153 2 0.001 -0.0174932 0 -0.0454665 4.90809e-06 0 2.9887e-06 1.15002e-07 8.27206e-09
301 3 0.001 -0.0125 0 -0.04674 -0.0440635 0 -3.8e-09 6.55285e-08 1.59293e-34
302 3 0.001 -0.0125 0 -0.0461024 0.0430829 0 -0.0120472 1.33487e-07 6.03698e-09
303 3 0.001 -0.0124911 0 -0.0454669 8.63673e-06 0 4.83134e-06 2.03365e-07 1.20792e-08
451 4 0.001 -0.0075 0 -0.04674 -0.0352087 0 -3.8e-09 4.18374e-08 1.59293e-34
452 4 0.001 -0.0075 0 -0.0461024 0.0332113 0 -0.0171512 8.80556e-08 1.22409e-08
453 4 0.001 -0.0074929 0 -0.0454677 2.47432e-05 0 4.1161e-06 1.38284e-07 2.45036e-08
601 5 0.001 -0.0025 0 -0.04674 -0.034888 0 -3.8e-09 4.10787e-08 1.59293e-34
602 5 0.001 -0.0025 0 -0.0461024 0.0353138 0 -0.0149844 8.0781e-08 9.31316e-09
603 5 0.001 -0.00249296 0 -0.0454674 -1.91933e-05 0 3.64418e-06 1.18805e-07 1.86132e-08
751 6 0.001 0.0025 0 -0.04674 -0.0176404 0 -3.8e-09 1.05019e-08 1.59293e-34
752 6 0.001 0.0025 0 -0.0461024 0.0170532 0 -0.0106225 2.16398e-08 4.68657e-09
753 6 0.001 0.00250356 0 -0.0454666 1.55555e-05 0 -8.22722e-07 3.33357e-08 9.37625e-09
901 7 0.001 0.0075 0 -0.04674 -0.00572253 0 -3.8e-09 1.10516e-09 1.59293e-34
902 7 0.001 0.0075 0 -0.0461024 0.00736198 0 -0.0084952 1.66456e-09 2.99355e-09
903 7 0.001 0.00750116 0 -0.0454662 -2.69744e-07 0 -1.48902e-06 1.86046e-09 5.98665e-09
1051 8 0.001 0.0125 0 -0.04674 0.0396516 0 -3.8e-09 5.30628e-08 1.59293e-34
1052 8 0.001 0.0125 0 -0.0461024 -0.0401195 0 -0.00304295 1.0478e-07 3.82808e-10
1053 8 0.001 0.012492 0 -0.0454654 -9.6733e-07 0 -1.14953e-07 1.55069e-07 7.63994e-10
1201 9 0.001 0.0175 0 -0.04674 0.026775 0 -3.8e-09 2.41946e-08 1.59293e-34
1202 9 0.001 0.0175 0 -0.0461024 -0.0261504 0 -0.00343162 4.94764e-08 4.90293e-10
1203 9 0.001 0.0174946 0 -0.0454654 -2.8174e-06 0 -1.57919e-07 7.58074e-08 9.82056e-10
1351 10 0.001 0.0225 0 -0.04674 0.0245824 0 -3.8e-09 2.03942e-08 1.59293e-34
1352 10 0.001 0.0225 0 -0.0461024 -0.0237134 0 -0.00202585 4.22279e-08 1.7149e-10
1353 10 0.001 0.022495 0 -0.0454652 -1.78479e-05 0 1.30588e-06 6.54895e-08 3.43864e-10
4 1 0.001 -0.0224786 0 -0.0448288 -1.22988e-07 0 -4.00444e-07 1.20709e-07 1.30882e-09
5 1 0.001 -0.0224575 0 -0.0441922 1.43796e-07 0 -1.03753e-07 1.17608e-07 1.30577e-09
154 2 0.001 -0.0174796 0 -0.0448307 1.3197e-05 0 4.82197e-06 1.14376e-07 8.26361e-09
155 2 0.001 -0.0174592 0 -0.0441951 2.1841e-05 0 7.14473e-06 1.12944e-07 8.24902e-09
304 3 0.001 -0.0124732 0 -0.0448316 2.15762e-05 0 9.96908e-06 2.09057e-07 1.20815e-08
305 3 0.001 -0.012446 0 -0.0441966 3.88221e-05 0 1.61636e-05 2.13007e-07 1.20652e-08
454 4 0.001 -0.00747835 0 -0.0448332 6.99638e-05 0 7.01612e-06 1.50097e-07 2.45378e-08
455 4 0.001 -0.00745602 0 -0.0441988 0.000127764 0 8.24049e-06 1.60116e-07 2.4551e-08
604 5 0.001 -0.00247901 0 -0.0448324 -5.13197e-05 0 6.3881e-06 1.1387e-07 1.85834e-08
605 5 0.001 -0.00245829 0 -0.0441977 -9.0936e-05 0 1.20258e-05 1.08341e-07 1.85448e-08
754 6 0.001 0.00251079 0 -0.0448308 4.91336e-05 0 8.13141e-07 3.49583e-08 9.38011e-09
755 6 0.001 0.00252178 0 -0.0441951 9.39653e-05 0 4.20069e-06 3.61773e-08 9.3769e-09
904 7 0.001 0.00750313 0 -0.0448301 -1.42355e-06 0 -3.89456e-06 7.73895e-10 5.98804e-09
905 7 0.001 0.0075056 0 -0.0441939 -4.13501e-06 0 -5.03871e-06 2.43239e-10 5.99319e-09
1054 8 0.001 0.012476 0 -0.0448285 -3.39058e-06 0 -8.25137e-07 1.50783e-07 7.60811e-10
1055 8 0.001 0.0124523 0 -0.0441919 -6.75691e-06 0 -7.03169e-07 1.46243e-07 7.57513e-10
1205 9 0.001 0.017467 0 -0.0441917 -2.12706e-05 0 -3.75585e-06 8.18846e-08 9.89755e-10
1204 9 0.001 0.0174836 0 -0.0448285 -1.03225e-05 0 -2.53261e-06 7.89358e-08 9.85557e-10
1354 10 0.001 0.0224849 0 -0.044828 -4.65004e-05 0 -4.90149e-07 6.97141e-08 3.45785e-10
1355 10 0.001 0.0224695 0 -0.044191 -7.74382e-05 0 -1.67284e-07 7.37176e-08 3.47506e-10
6 1 0.001 -0.0224294 0 -0.0435559 3.11364e-07 0 -8.34847e-08 1.14255e-07 1.30236e-09
7 1 0.001 -0.0223945 0 -0.0429199 3.15512e-07 0 3.5091e-07 1.10667e-07 1.29855e-09
156 2 0.001 -0.017432 0 -0.0435598 2.80559e-05 0 9.81715e-06 1.10678e-07 8.22733e-09
157 2 0.001 -0.0173981 0 -0.0429248 2.97055e-05 0 1.34816e-05 1.07576e-07 8.19752e-09
306 3 0.001 -0.0124096 0 -0.043562 5.82668e-05 0 1.96541e-05 2.15003e-07 1.20301e-08
307 3 0.001 -0.0123639 0 -0.0429281 7.46716e-05 0 2.20456e-05 2.14854e-07 1.19785e-08
456 4 0.001 -0.00742566 0 -0.0435648 0.000189097 0 7.82261e-06 1.67622e-07 2.45401e-08
457 4 0.001 -0.00738708 0 -0.0429313 0.000236973 0 9.47781e-06 1.71932e-07 2.44977e-08
606 5 0.001 -0.00243097 0 -0.0435631 -0.000129015 0 1.75321e-05 1.02532e-07 1.84973e-08
607 5 0.001 -0.00239724 0 -0.0429289 -0.000157959 0 2.40511e-05 9.67269e-08 1.84422e-08
756 6 0.001 0.0025366 0 -0.0435595 0.000146102 0 7.98904e-06 3.6801e-08 9.36296e-09
757 6 0.001 0.00255528 0 -0.0429239 0.00020356 0 9.85927e-06 3.66181e-08 9.33771e-09
906 7 0.001 0.00750822 0 -0.0435577 -8.9213e-06 0 -5.96724e-06 2.71375e-10 6.00107e-09
907 7 0.001 0.00751065 0 -0.0429216 -1.65375e-05 0 -5.79149e-06 8.50109e-10 6.01076e-09
1056 8 0.001 0.0124209 0 -0.0435556 -1.01263e-05 0 -1.18805e-06 1.41446e-07 7.53996e-10
1057 8 0.001 0.0123819 0 -0.0429197 -1.35903e-05 0 -1.44917e-06 1.36388e-07 7.50314e-10
1207 9 0.001 0.0174165 0 -0.0429187 -4.44311e-05 0 -5.7276e-06 8.69289e-08 9.98497e-10
1206 9 0.001 0.0174447 0 -0.0435551 -3.30194e-05 0 -5.3128e-06 8.45776e-08 9.94213e-10
1356 10 0.001 0.0224486 0 -0.0435541 -0.000109947 0 -4.01235e-07 7.72975e-08 3.48456e-10
1357 10 0.001 0.0224221 0 -0.0429174 -0.000139441 0 -3.05459e-07 8.02388e-08 3.48372e-10
8 1 0.001 -0.0223529 0 -0.0422843 3.63165e-07 0 9.55728e-08 1.06861e-07 1.29447e-09
9 1 0.001 -0.0223048 0 -0.0416492 7.27344e-07 0 -3.98445e-07 1.02857e-07 1.29042e-09
10 1 0.001 -0.0222503 0 -0.0410146 1.4021e-06 0 4.03638e-07 9.86723e-08 1.28606e-09
158 2 0.001 -0.0173577 0 -0.0422901 2.45004e-05 0 1.66602e-05 1.03682e-07 8.15981e-09
159 2 0.001 -0.0173108 0 -0.0416559 1.19641e-05 0 1.93866e-05 9.90902e-08 8.11621e-09
160 2 0.001 -0.0172576 0 -0.0410222 -5.93929e-06 0 2.3839e-05 9.39446e-08 8.06728e-09
308 3 0.001 -0.012309 0 -0.0422949 8.28586e-05 0 2.51087e-05 2.12438e-07 1.19105e-08
309 3 0.001 -0.0122448 0 -0.0416625 8.11814e-05 0 3.07214e-05 2.07744e-07 1.18243e-08
310 3 0.001 -0.0121715 0 -0.0410312 6.99762e-05 0 3.8161e-05 2.00896e-07 1.17181e-08
458 4 0.001 -0.00734018 0 -0.0422983 0.000264984 0 1.30616e-05 1.72528e-07 2.44154e-08
459 4 0.001 -0.00728496 0 -0.0416659 0.000268882 0 1.78514e-05 1.69181e-07 2.42904e-08
460 4 0.001 -0.0072215 0 -0.0410344 0.000246167 0 2.2985e-05 1.62012e-07 2.41277e-08
608 5 0.001 -0.00235729 0 -0.0422951 -0.00016676 0 3.07817e-05 9.11246e-08 1.8378e-08
609 5 0.001 -0.0023113 0 -0.0416616 -0.000152872 0 3.76932e-05 8.58008e-08 1.83015e-08
610 5 0.001 -0.00225947 0 -0.0410286 -0.00011805 0 4.34307e-05 8.07018e-08 1.82093e-08
758 6 0.001 0.00257781 0 -0.0422885 0.000261352 0 1.01283e-05 3.54309e-08 9.3024e-09
760 6 0.001 0.00263414 0 -0.0410181 0.000355797 0 1.01884e-05 2.95759e-08 9.20264e-09
759 6 0.001 0.00260414 0 -0.0416532 0.000315125 0 9.83549e-06 3.30957e-08 9.25752e-09
908 7 0.001 0.00751255 0 -0.0422854 -2.89728e-05 0 -5.89134e-06 1.95569e-09 6.02162e-09
909 7 0.001 0.00751361 0 -0.0416492 -4.54449e-05 0 -6.48939e-06 3.54348e-09 6.03405e-09
910 7 0.001 0.0075135 0 -0.0410131 -6.45076e-05 0 -5.49578e-06 5.54341e-09 6.04705e-09
1058 8 0.001 0.0123355 0 -0.0422843 -1.69493e-05 0 -2.10064e-06 1.31068e-07 7.4647e-10
1059 8 0.001 0.0122818 0 -0.0416495 -2.09528e-05 0 -2.71123e-06 1.25488e-07 7.42503e-10
1060 8 0.001 0.0122211 0 -0.0410153 -2.50793e-05 0 -2.18157e-06 1.1965e-07 7.38069e-10
1210 9 0.001 0.0172961 0 -0.0410115 -6.75896e-05 0 -9.81063e-06 9.11469e-08 1.00976e-09
1209 9 0.001 0.0173422 0 -0.0416469 -6.10561e-05 0 -9.39654e-06 9.02815e-08 1.00616e-09
1208 9 0.001 0.0173823 0 -0.0422826 -5.34996e-05 0 -6.82485e-06 8.8855e-08 1.00231e-09
1358 10 0.001 0.0223899 0 -0.0422809 -0.000161508 0 -1.65181e-06 8.23403e-08 3.47234e-10
1360 10 0.001 0.0223081 0 -0.0410091 -0.000180235 0 -1.66516e-06 8.3445e-08 3.41984e-10
1359 10 0.001 0.0223519 0 -0.0416448 -0.000175202 0 -3.3413e-06 8.34417e-08 3.45261e-10
11 1 0.001 -0.0221895 0 -0.0403806 1.80711e-06 0 -2.06155e-07 9.43263e-08 1.28143e-09
12 1 0.001 -0.0221225 0 -0.0397472 1.92861e-06 0 -5.33728e-07 8.98389e-08 1.27695e-09
161 2 0.001 -0.0171983 0 -0.040389 -3.01948e-05 0 2.7823e-05 8.84253e-08 8.01389e-09
162 2 0.001 -0.0171331 0 -0.0397564 -5.94406e-05 0 3.30466e-05 8.27367e-08 7.9576e-09
311 3 0.001 -0.0120892 0 -0.0404009 5.67441e-05 0 4.45553e-05 1.92124e-07 1.15942e-08
312 3 0.001 -0.0119982 0 -0.0397718 4.20865e-05 0 5.31113e-05 1.81727e-07 1.14539e-08
461 4 0.001 -0.00714999 0 -0.0404036 0.000193486 0 2.88506e-05 1.51503e-07 2.39382e-08
462 4 0.001 -0.00707071 0 -0.0397738 0.000114493 0 4.01818e-05 1.3845e-07 2.373e-08
611 5 0.001 -0.00220196 0 -0.0403961 -6.59044e-05 0 4.51819e-05 7.56675e-08 1.81017e-08
612 5 0.001 -0.00213895 0 -0.0397641 -4.64968e-06 0 4.59161e-05 7.04752e-08 1.7979e-08
762 6 0.001 0.00270427 0 -0.0397483 0.000368307 0 5.68117e-06 1.96526e-08 9.07758e-09
761 6 0.001 0.00266761 0 -0.0403831 0.000373495 0 7.73645e-06 2.49927e-08 9.14098e-09
911 7 0.001 0.00751191 0 -0.0403769 -8.24159e-05 0 -5.46962e-06 7.86017e-09 6.0598e-09
912 7 0.001 0.00750854 0 -0.0397407 -9.67592e-05 0 -4.25947e-06 1.03792e-08 6.07175e-09
1061 8 0.001 0.0121534 0 -0.0403818 -2.84509e-05 0 -3.38391e-06 1.13563e-07 7.33298e-10
1062 8 0.001 0.012079 0 -0.0397491 -3.08067e-05 0 -4.26571e-06 1.07241e-07 7.28566e-10
1212 9 0.001 0.0171856 0 -0.0397424 -7.04527e-05 0 -1.43521e-05 9.10385e-08 1.01612e-09
1211 9 0.001 0.0172439 0 -0.0403767 -7.01987e-05 0 -1.13652e-05 9.14069e-08 1.0128e-09
1362 10 0.001 0.0222032 0 -0.0397389 -0.000165354 0 4.10521e-07 8.0117e-08 3.31116e-10
1361 10 0.001 0.0222585 0 -0.0403738 -0.000176921 0 -8.12054e-07 8.23222e-08 3.37145e-10
13 1 0.001 -0.0220495 0 -0.0391145 1.95459e-06 0 -7.63962e-08 8.52328e-08 1.2723e-09
14 1 0.001 -0.0219707 0 -0.0384824 2.06614e-06 0 5.64946e-07 8.05317e-08 1.26718e-09
163 2 0.001 -0.0170621 0 -0.0391244 -9.31722e-05 0 3.96796e-05 7.70955e-08 7.8985e-09
164 2 0.001 -0.0169855 0 -0.0384931 -0.000125885 0 4.56091e-05 7.17097e-08 7.8378e-09
313 3 0.001 -0.0118988 0 -0.039144 2.81377e-05 0 6.12366e-05 1.70033e-07 1.12977e-08
314 3 0.001 -0.0117912 0 -0.0385175 1.79349e-05 0 6.67067e-05 1.57368e-07 1.11301e-08
315 3 0.001 -0.0116757 0 -0.0378924 1.68821e-05 0 6.74093e-05 1.4402e-07 1.09575e-08
463 4 0.001 -0.00698403 0 -0.039145 2.32506e-05 0 5.37198e-05 1.23842e-07 2.35092e-08
464 4 0.001 -0.00689036 0 -0.0385172 -7.03065e-05 0 6.64112e-05 1.087e-07 2.32869e-08
613 5 0.001 -0.00207065 0 -0.0391326 6.57862e-05 0 4.48101e-05 6.48794e-08 1.78391e-08
614 5 0.001 -0.00199727 0 -0.0385017 0.000129597 0 4.19257e-05 5.86731e-08 1.7683e-08
763 6 0.001 0.00274374 0 -0.0391137 0.000335756 0 5.97925e-06 1.40374e-08 9.01439e-09
764 6 0.001 0.00278557 0 -0.0384792 0.000281791 0 7.10296e-06 8.74735e-09 8.95375e-09
914 7 0.001 0.00749543 0 -0.0384685 -0.000102155 0 1.51199e-07 1.55474e-08 6.08631e-09
913 7 0.001 0.00750313 0 -0.0391046 -0.000103981 0 -2.01008e-06 1.2979e-08 6.0809e-09
1063 8 0.001 0.011998 0 -0.0391171 -3.18591e-05 0 -3.91257e-06 1.00711e-07 7.23561e-10
1064 8 0.001 0.0119107 0 -0.038486 -3.18732e-05 0 -2.71396e-06 9.4009e-08 7.17878e-10
1214 9 0.001 0.0170509 0 -0.0384755 -7.28804e-05 0 -1.69828e-05 8.84099e-08 1.02367e-09
1213 9 0.001 0.0171213 0 -0.0391086 -7.0469e-05 0 -1.6803e-05 9.0038e-08 1.02004e-09
1364 10 0.001 0.0220756 0 -0.0384708 -0.000112456 0 8.15169e-06 7.29874e-08 3.15694e-10
1363 10 0.001 0.0221421 0 -0.0391046 -0.000143283 0 3.58974e-06 7.69453e-08 3.23957e-10
15 1 0.001 -0.0218863 0 -0.0378511 2.13703e-06 0 -6.66134e-07 7.576e-08 1.26218e-09
16 1 0.001 -0.0217963 0 -0.0372206 2.32993e-06 0 -1.94692e-06 7.09417e-08 1.25792e-09
17 1 0.001 -0.0217011 0 -0.0365908 2.68733e-06 0 -1.56456e-06 6.61005e-08 1.25389e-09
165 2 0.001 -0.0169037 0 -0.0378624 -0.000153926 0 4.915e-05 6.67575e-08 7.77872e-09
166 2 0.001 -0.0168167 0 -0.0372324 -0.000173368 0 5.18262e-05 6.23665e-08 7.72341e-09
167 2 0.001 -0.0167247 0 -0.0366031 -0.000182542 0 5.50719e-05 5.86068e-08 7.67063e-09
316 3 0.001 -0.0115528 0 -0.0372687 2.49751e-05 0 6.59102e-05 1.3022e-07 1.07842e-08
317 3 0.001 -0.0114228 0 -0.0366465 4.08195e-05 0 6.36437e-05 1.16137e-07 1.06101e-08
465 4 0.001 -0.00679017 0 -0.0378903 -0.000155277 0 7.55191e-05 9.39242e-08 2.30775e-08
466 4 0.001 -0.00668393 0 -0.0372644 -0.000223854 0 8.67565e-05 8.0199e-08 2.28847e-08
467 4 0.001 -0.00657211 0 -0.0366395 -0.000267328 0 9.3952e-05 6.79478e-08 2.2706e-08
615 5 0.001 -0.00191905 0 -0.0378714 0.000185219 0 3.52524e-05 5.1735e-08 1.75168e-08
616 5 0.001 -0.00183629 0 -0.0372416 0.000224978 0 2.93218e-05 4.40845e-08 1.73461e-08
617 5 0.001 -0.00174935 0 -0.0366124 0.00024561 0 2.47717e-05 3.59029e-08 1.71736e-08
765 6 0.001 0.00282925 0 -0.0378449 0.000206857 0 6.84087e-06 4.41725e-09 8.90129e-09
767 6 0.001 0.00291971 0 -0.0365764 1.98512e-05 0 1.15549e-05 7.32573e-10 8.83323e-09
766 6 0.001 0.00287417 0 -0.0372106 0.000117642 0 8.61798e-06 1.6123e-09 8.861e-09
915 7 0.001 0.00748523 0 -0.0378324 -9.0162e-05 0 6.88076e-07 1.79975e-08 6.08912e-09
917 7 0.001 0.00745656 0 -0.0365604 -3.03126e-05 0 4.70734e-06 2.2407e-08 6.08933e-09
916 7 0.001 0.00747233 0 -0.0371964 -6.62522e-05 0 1.5165e-06 2.02826e-08 6.09055e-09
1065 8 0.001 0.0118173 0 -0.0378558 -3.05696e-05 0 -3.25864e-06 8.71829e-08 7.11861e-10
1066 8 0.001 0.0117181 0 -0.0372265 -2.82895e-05 0 -4.33374e-06 8.02866e-08 7.06198e-10
1067 8 0.001 0.0116132 0 -0.0365981 -2.55041e-05 0 -3.88961e-06 7.33794e-08 7.00774e-10
1215 9 0.001 0.0169747 0 -0.0378431 -7.88703e-05 0 -1.94955e-05 8.61553e-08 1.02681e-09
1217 9 0.001 0.0168047 0 -0.0365805 -9.69877e-05 0 -2.89234e-05 7.97323e-08 1.03483e-09
1216 9 0.001 0.0168925 0 -0.0372114 -8.78597e-05 0 -2.37717e-05 8.32664e-08 1.03034e-09
1367 10 0.001 0.021844 0 -0.0365732 4.11881e-06 0 1.70223e-05 5.87881e-08 2.90542e-10
1366 10 0.001 0.0219263 0 -0.0372051 -3.31777e-05 0 1.45236e-05 6.36611e-08 2.98392e-10
1365 10 0.001 0.0220035 0 -0.0378377 -7.37923e-05 0 1.14922e-05 6.84749e-08 3.06916e-10
18 1 0.001 -0.0216008 0 -0.0359618 2.78047e-06 0 -1.6759e-06 6.12607e-08 1.24975e-09
19 1 0.001 -0.0214955 0 -0.0353336 2.72494e-06 0 -2.59294e-06 5.64471e-08 1.24595e-09
168 2 0.001 -0.016628 0 -0.0359745 -0.000178963 0 5.55975e-05 5.54882e-08 7.61955e-09
169 2 0.001 -0.0165265 0 -0.0353467 -0.000162768 0 5.28854e-05 5.29633e-08 7.57151e-09
318 3 0.001 -0.011286 0 -0.0360256 5.6998e-05 0 6.04494e-05 1.0192e-07 1.04353e-08
319 3 0.001 -0.011143 0 -0.0354062 6.82104e-05 0 5.62319e-05 8.7727e-08 1.02623e-08
468 4 0.001 -0.00645518 0 -0.0360156 -0.000275253 0 9.3757e-05 5.73301e-08 2.25444e-08
469 4 0.001 -0.00633355 0 -0.0353925 -0.000245797 0 8.70482e-05 4.82735e-08 2.23993e-08
618 5 0.001 -0.00165865 0 -0.0359837 0.000248337 0 2.0671e-05 2.75342e-08 1.70043e-08
619 5 0.001 -0.00156466 0 -0.0353555 0.00023186 0 1.61632e-05 1.94561e-08 1.68463e-08
769 6 0.001 0.00300999 0 -0.0353078 -0.00015247 0 8.78035e-06 5.15464e-09 8.82512e-09
768 6 0.001 0.0029652 0 -0.0359421 -7.15082e-05 0 1.1793e-05 1.94355e-09 8.82009e-09
919 7 0.001 0.00741588 0 -0.0352887 5.57883e-05 0 1.00526e-05 2.64424e-08 6.07838e-09
918 7 0.001 0.00743779 0 -0.0359245 1.24008e-05 0 7.82392e-06 2.44271e-08 6.08473e-09
1069 8 0.001 0.0113876 0 -0.035344 -1.68891e-05 0 -3.09963e-06 5.97846e-08 6.90184e-10
1068 8 0.001 0.011503 0 -0.0359706 -2.13985e-05 0 -3.44561e-06 6.6524e-08 6.95377e-10
1219 9 0.001 0.0166122 0 -0.0353211 -0.000107108 0 -3.7101e-05 7.07553e-08 1.04691e-09
1218 9 0.001 0.0167111 0 -0.0359504 -0.000103496 0 -3.37398e-05 7.55534e-08 1.04046e-09
1369 10 0.001 0.0216652 0 -0.0353112 6.59736e-05 0 1.79062e-05 4.96391e-08 2.78637e-10
1368 10 0.001 0.0217569 0 -0.0359419 3.78077e-05 0 1.76971e-05 5.40618e-08 2.83843e-10
20 1 0.001 -0.0213856 0 -0.0347062 3.12733e-06 0 -2.34452e-06 5.16845e-08 1.24239e-09
21 1 0.001 -0.0212711 0 -0.0340797 3.65142e-06 0 -2.6921e-06 4.69968e-08 1.23887e-09
22 1 0.001 -0.0211524 0 -0.0334539 4.16515e-06 0 -2.05579e-06 4.24077e-08 1.23529e-09
170 2 0.001 -0.0164206 0 -0.0347195 -0.00013185 0 4.80657e-05 5.09289e-08 7.52651e-09
171 2 0.001 -0.0163102 0 -0.0340932 -8.93371e-05 0 4.01764e-05 4.92318e-08 7.484e-09
172 2 0.001 -0.0161954 0 -0.0334676 -3.71634e-05 0 3.06353e-05 4.76767e-08 7.44327e-09
320 3 0.001 -0.0109943 0 -0.0347881 7.49363e-05 0 5.46328e-05 7.37622e-08 1.00919e-08
321 3 0.001 -0.0108402 0 -0.0341713 7.97776e-05 0 5.31709e-05 6.02666e-08 9.92363e-09
322 3 0.001 -0.0106814 0 -0.0335557 8.13912e-05 0 5.28485e-05 4.75081e-08 9.75809e-09
470 4 0.001 -0.00620763 0 -0.0347702 -0.000181104 0 7.79774e-05 4.05349e-08 2.22609e-08
471 4 0.001 -0.00607776 0 -0.0341488 -9.35867e-05 0 6.18206e-05 3.37845e-08 2.21223e-08
472 4 0.001 -0.00594431 0 -0.0335281 4.01426e-06 0 4.51701e-05 2.76908e-08 2.19799e-08
620 5 0.001 -0.00146792 0 -0.0347277 0.000196829 0 1.56292e-05 1.22257e-08 1.6705e-08
621 5 0.001 -0.00136903 0 -0.0341002 0.000143354 0 1.44818e-05 6.41133e-09 1.6586e-08
622 5 0.001 -0.00126864 0 -0.033473 8.18282e-05 0 1.49025e-05 2.50971e-09 1.64957e-08
772 6 0.001 0.00313382 0 -0.0334042 -0.00024304 0 -1.24327e-05 2.30743e-08 8.94771e-09
770 6 0.001 0.00305342 0 -0.0346734 -0.000209216 0 4.56803e-06 1.00544e-08 8.8486e-09
771 6 0.001 0.00309488 0 -0.0340389 -0.000237495 0 -3.29481e-06 1.61921e-08 8.88964e-09
922 7 0.001 0.00733008 0 -0.0333822 0.000138173 0 1.71029e-05 3.37004e-08 6.05559e-09
921 7 0.001 0.00736216 0 -0.0340176 0.000123141 0 1.52652e-05 3.09582e-08 6.06292e-09
920 7 0.001 0.00739071 0 -0.0346531 9.42489e-05 0 1.34178e-05 2.85767e-08 6.07086e-09
1072 8 0.001 0.0110137 0 -0.0334697 -6.27132e-06 0 1.63755e-07 4.08515e-08 6.74728e-10
1071 8 0.001 0.0111427 0 -0.0340936 -9.87196e-06 0 -1.06289e-06 4.68955e-08 6.7979e-10
1070 8 0.001 0.0112674 0 -0.0347184 -1.31713e-05 0 -1.50892e-06 5.32231e-08 6.8499e-10
1222 9 0.001 0.0162844 0 -0.0334385 -9.33764e-05 0 -3.97832e-05 5.33904e-08 1.06728e-09
1221 9 0.001 0.0163985 0 -0.0340652 -0.000102465 0 -3.99219e-05 5.95669e-08 1.06025e-09
1220 9 0.001 0.0165079 0 -0.0346927 -0.000106903 0 -3.84565e-05 6.53961e-08 1.05353e-09
1372 10 0.001 0.0213642 0 -0.0334232 9.47235e-05 0 1.02298e-05 3.89816e-08 2.7173e-10
1371 10 0.001 0.0214686 0 -0.0340519 9.4493e-05 0 1.55095e-05 4.20715e-08 2.72332e-10
1370 10 0.001 0.021569 0 -0.0346812 8.51107e-05 0 1.83202e-05 4.5625e-08 2.74771e-10
23 1 0.001 -0.0210296 0 -0.0328289 4.35478e-06 0 -3.94455e-07 3.79411e-08 1.23106e-09
24 1 0.001 -0.0209029 0 -0.0322047 3.92442e-06 0 -4.53114e-07 3.36219e-08 1.22648e-09
173 2 0.001 -0.0160762 0 -0.0328429 1.9589e-05 0 2.11315e-05 4.60435e-08 7.40186e-09
174 2 0.001 -0.0159529 0 -0.0322189 7.57759e-05 0 1.01487e-05 4.4109e-08 7.35855e-09
323 3 0.001 -0.0105183 0 -0.0329412 8.32509e-05 0 5.3161e-05 3.57629e-08 9.59522e-09
324 3 0.001 -0.0103516 0 -0.0323276 8.42028e-05 0 5.2271e-05 2.53065e-08 9.43647e-09
473 4 0.001 -0.0058076 0 -0.0329081 0.000102948 0 2.79401e-05 2.19932e-08 2.1828e-08
474 4 0.001 -0.00566799 0 -0.0322887 0.000191288 0 1.25382e-05 1.65614e-08 2.16646e-08
623 5 0.001 -0.00116742 0 -0.0328458 1.78288e-05 0 1.3647e-05 8.71587e-10 1.64381e-08
624 5 0.001 -0.00106608 0 -0.0322187 -4.34963e-05 0 1.12663e-05 1.65285e-09 1.6417e-08
774 6 0.001 0.00320212 0 -0.0321344 -0.000216505 0 -3.49656e-05 3.731e-08 9.1117e-09
773 6 0.001 0.00316972 0 -0.0327694 -0.000234554 0 -2.29927e-05 3.02414e-08 9.02162e-09
924 7 0.001 0.00725474 0 -0.0321121 0.000115847 0 1.83714e-05 4.0524e-08 6.04071e-09
923 7 0.001 0.00729433 0 -0.032747 0.000136254 0 1.925e-05 3.68817e-08 6.04799e-09
1074 8 0.001 0.0107441 0 -0.0322243 1.70258e-06 0 3.85924e-06 2.97884e-08 6.63945e-10
1073 8 0.001 0.0108807 0 -0.0328466 -2.41166e-06 0 2.64704e-06 3.51357e-08 6.69418e-10
1224 9 0.001 0.0160426 0 -0.0321877 -5.92621e-05 0 -3.71329e-05 4.06113e-08 1.08258e-09
1223 9 0.001 0.0161656 0 -0.0328127 -7.9082e-05 0 -3.8289e-05 4.70158e-08 1.07452e-09
1374 10 0.001 0.0211437 0 -0.0321679 6.53262e-05 0 -3.363e-06 3.40076e-08 2.75712e-10
1373 10 0.001 0.0212558 0 -0.0327952 8.49865e-05 0 4.21819e-06 3.63173e-08 2.72936e-10
25 1 0.001 -0.0207727 0 -0.0315812 3.57439e-06 0 -1.49954e-06 2.9475e-08 1.22246e-09
26 1 0.001 -0.0206391 0 -0.0309584 3.81744e-06 0 -1.73135e-06 2.55237e-08 1.21904e-09
27 1 0.001 -0.0205023 0 -0.0303363 4.01258e-06 0 -1.96089e-06 2.17896e-08 1.21594e-09
175 2 0.001 -0.0158254 0 -0.0315958 0.000125931 0 -6.49108e-08 4.16771e-08 7.31326e-09
176 2 0.001 -0.0156939 0 -0.0309735 0.000166174 0 -7.4933e-06 3.8609e-08 7.26448e-09
177 2 0.001 -0.0155585 0 -0.0303521 0.000192663 0 -1.28723e-05 3.48515e-08 7.21148e-09
325 3 0.001 -0.0101819 0 -0.0317148 8.18745e-05 0 5.06916e-05 1.64045e-08 9.28518e-09
326 3 0.001 -0.0100097 0 -0.0311028 7.37977e-05 0 5.05311e-05 9.30925e-09 9.14354e-09
327 3 0.001 -0.00983571 0 -0.0304912 6.02591e-05 0 5.2516e-05 4.2481e-09 9.01185e-09
475 4 0.001 -0.00552587 0 -0.0316699 0.000252053 0 2.76399e-06 1.1441e-08 2.14898e-08
476 4 0.001 -0.00538168 0 -0.0310516 0.000286813 0 -2.96681e-06 6.86995e-09 2.13073e-08
477 4 0.001 -0.0052359 0 -0.0304336 0.000289718 0 -3.85236e-06 3.25947e-09 2.11249e-08
625 5 0.001 -0.000965311 0 -0.0315915 -0.000100526 0 5.19978e-06 4.80098e-09 1.64364e-08
626 5 0.001 -0.000865807 0 -0.0309641 -0.00014286 0 -3.02254e-06 1.0076e-08 1.6498e-08
627 5 0.001 -0.000768233 0 -0.0303364 -0.00017004 0 -1.56751e-05 1.70989e-08 1.66022e-08
776 6 0.001 0.00325497 0 -0.0308638 -0.000171801 0 -6.10052e-05 5.00532e-08 9.34482e-09
775 6 0.001 0.00323065 0 -0.0314992 -0.000194605 0 -4.83182e-05 4.39847e-08 9.21928e-09
926 7 0.001 0.00716328 0 -0.0308431 3.63623e-05 0 1.34484e-05 4.89152e-08 6.03021e-09
925 7 0.001 0.00721112 0 -0.0314774 8.083e-05 0 1.60366e-05 4.45776e-08 6.03506e-09
1077 8 0.001 0.010315 0 -0.0303617 1.04761e-05 0 5.48522e-06 1.62564e-08 6.49876e-10
1076 8 0.001 0.0104609 0 -0.0309819 7.92369e-06 0 4.8642e-06 2.03266e-08 6.54202e-10
1075 8 0.001 0.010604 0 -0.0316028 5.3815e-06 0 4.1357e-06 2.48435e-08 6.58853e-10
1226 9 0.001 0.0157849 0 -0.0309401 -1.69476e-05 0 -3.25494e-05 2.83924e-08 1.10316e-09
1225 9 0.001 0.0159156 0 -0.0315635 -3.73958e-05 0 -3.53859e-05 3.435e-08 1.09216e-09
1227 9 0.001 0.015651 0 -0.0303174 4.14344e-06 0 -3.04297e-05 2.28738e-08 1.1157e-09
1376 10 0.001 0.0209086 0 -0.0309152 1.22764e-05 0 -1.99318e-05 3.00643e-08 2.85344e-10
1375 10 0.001 0.0210279 0 -0.0315412 4.02167e-05 0 -1.19809e-05 3.19583e-08 2.79944e-10
28 1 0.001 -0.0203627 0 -0.0297149 3.6267e-06 0 -2.74526e-06 1.82934e-08 1.21339e-09
29 1 0.001 -0.0202204 0 -0.029094 3.26582e-06 0 -2.3914e-06 1.50554e-08 1.21129e-09
178 2 0.001 -0.0154194 0 -0.0297314 0.000201793 0 -1.55096e-05 3.04551e-08 7.15555e-09
179 2 0.001 -0.0152769 0 -0.0291115 0.000192888 0 -1.26021e-05 2.55789e-08 7.09679e-09
328 3 0.001 -0.00966059 0 -0.0298799 3.77508e-05 0 5.70814e-05 1.40465e-09 8.89011e-09
329 3 0.001 -0.00948498 0 -0.0292688 5.50754e-06 0 6.49917e-05 8.90778e-10 8.77813e-09
478 4 0.001 -0.00508909 0 -0.0298159 0.000257851 0 3.31611e-06 1.12785e-09 2.0949e-08
479 4 0.001 -0.00494187 0 -0.0291982 0.000202647 0 1.94259e-05 1.00393e-09 2.07786e-08
628 5 0.001 -0.000673218 0 -0.0297083 -0.000176636 0 -3.19866e-05 2.54229e-08 1.67499e-08
629 5 0.001 -0.00058135 0 -0.0290798 -0.000161667 0 -5.11132e-05 3.46113e-08 1.69396e-08
777 6 0.001 0.00327478 0 -0.0302283 -0.000146628 0 -7.1373e-05 5.53768e-08 9.48594e-09
779 6 0.001 0.00330002 0 -0.028957 -8.39273e-05 0 -9.25237e-05 6.35924e-08 9.81265e-09
778 6 0.001 0.00328986 0 -0.0295927 -0.000114818 0 -8.23897e-05 5.98903e-08 9.64164e-09
929 7 0.001 0.00699243 0 -0.0289423 -9.65832e-05 0 3.38767e-06 6.14074e-08 6.01039e-09
928 7 0.001 0.00705412 0 -0.0295754 -5.9677e-05 0 5.71375e-06 5.75912e-08 6.01891e-09
927 7 0.001 0.00711101 0 -0.030209 -1.31593e-05 0 9.9346e-06 5.3337e-08 6.02499e-09
1079 8 0.001 0.0100161 0 -0.0291231 1.59055e-05 0 7.35969e-06 9.49996e-09 6.42382e-10
1078 8 0.001 0.0101667 0 -0.0297421 1.33108e-05 0 5.76884e-06 1.2645e-08 6.46005e-10
1229 9 0.001 0.0153745 0 -0.0290738 4.66724e-05 0 -2.81927e-05 1.35416e-08 1.14874e-09
1228 9 0.001 0.0155141 0 -0.0296953 2.53893e-05 0 -2.97524e-05 1.78989e-08 1.13076e-09
1377 10 0.001 0.0207858 0 -0.0302899 -1.53459e-05 0 -2.90235e-05 2.82226e-08 2.91796e-10
1379 10 0.001 0.0205305 0 -0.0290412 -6.36297e-05 0 -4.72967e-05 2.43496e-08 3.0865e-10
1378 10 0.001 0.0206598 0 -0.0296652 -4.10363e-05 0 -3.9037e-05 2.63419e-08 2.99581e-10
30 1 0.001 -0.0200757 0 -0.0284737 3.05084e-06 0 -2.65541e-06 1.20947e-08 1.20946e-09
31 1 0.001 -0.0199289 0 -0.0278539 3.26529e-06 0 -2.62985e-06 9.42868e-09 1.208e-09
180 2 0.001 -0.0151313 0 -0.0284924 0.00016711 0 -5.56453e-06 2.04744e-08 7.0349e-09
181 2 0.001 -0.0149829 0 -0.0278739 0.00012827 0 5.63403e-06 1.54493e-08 6.97025e-09
330 3 0.001 -0.00930956 0 -0.0286576 -3.31578e-05 0 7.2824e-05 2.7172e-09 8.6769e-09
331 3 0.001 -0.00913499 0 -0.0280461 -7.25738e-05 0 8.06112e-05 6.7708e-09 8.58757e-09
332 3 0.001 -0.00896193 0 -0.0274342 -0.000108107 0 8.74418e-05 1.28112e-08 8.50901e-09
480 4 0.001 -0.0047949 0 -0.0285805 0.000124859 0 4.41311e-05 3.3094e-09 2.06075e-08
481 4 0.001 -0.00464888 0 -0.0279626 4.43007e-05 0 7.27196e-05 8.25469e-09 2.04285e-08
482 4 0.001 -0.00450454 0 -0.0273442 -3.21547e-05 0 9.89769e-05 1.57812e-08 2.02385e-08
630 5 0.001 -0.000493169 0 -0.0284507 -0.000135176 0 -7.26677e-05 4.42953e-08 1.71712e-08
631 5 0.001 -0.000409167 0 -0.0278211 -0.000105675 0 -9.20143e-05 5.41949e-08 1.74428e-08
781 6 0.001 0.00330502 0 -0.0276855 -2.77017e-05 0 -0.000115007 6.8771e-08 1.02081e-08
780 6 0.001 0.00330511 0 -0.0283212 -5.62993e-05 0 -0.000103881 6.65282e-08 1.00007e-08
931 7 0.001 0.00685404 0 -0.0276775 -0.000130731 0 4.75785e-07 6.67988e-08 5.98239e-09
930 7 0.001 0.00692577 0 -0.0283096 -0.0001204 0 1.08095e-06 6.45393e-08 5.99829e-09
1081 8 0.001 0.00970962 0 -0.0278862 1.94145e-05 0 8.98036e-06 4.61247e-09 6.35579e-10
1080 8 0.001 0.00986366 0 -0.0285044 1.79706e-05 0 8.04253e-06 6.82345e-09 6.3888e-10
1082 8 0.001 0.00955428 0 -0.0272683 2.0535e-05 0 1.06088e-05 2.85919e-09 6.3221e-10
1231 9 0.001 0.0150891 0 -0.0278322 8.93404e-05 0 -2.42473e-05 6.81684e-09 1.19304e-09
1230 9 0.001 0.0152328 0 -0.0284528 6.78436e-05 0 -2.63994e-05 9.84387e-09 1.1695e-09
1381 10 0.001 0.020263 0 -0.0277951 -9.17709e-05 0 -6.04349e-05 1.9872e-08 3.29953e-10
1380 10 0.001 0.0203982 0 -0.0284178 -8.09832e-05 0 -5.43272e-05 2.21984e-08 3.18761e-10
32 1 0.001 -0.0197801 0 -0.0272346 3.50866e-06 0 -2.06241e-06 7.07291e-09 1.20663e-09
33 1 0.001 -0.0196298 0 -0.0266156 3.059e-06 0 -2.50711e-06 5.04144e-09 1.20555e-09
34 1 0.001 -0.0194781 0 -0.025997 2.50626e-06 0 -2.22014e-06 3.3471e-09 1.20492e-09
182 2 0.001 -0.0148321 0 -0.027256 7.95653e-05 0 2.01318e-05 1.08209e-08 6.90282e-09
183 2 0.001 -0.0146792 0 -0.0266385 2.50985e-05 0 3.4915e-05 6.86714e-09 6.83413e-09
184 2 0.001 -0.0145248 0 -0.0260215 -3.06977e-05 0 5.03114e-05 3.78801e-09 6.7658e-09
333 3 0.001 -0.008791 0 -0.0268217 -0.000135299 0 9.09445e-05 2.04921e-08 8.44032e-09
334 3 0.001 -0.00862282 0 -0.0262084 -0.000149379 0 9.10973e-05 2.94038e-08 8.38028e-09
483 4 0.001 -0.00436258 0 -0.0267253 -0.000101774 0 0.00011681 2.55583e-08 2.00452e-08
484 4 0.001 -0.00422371 0 -0.0261056 -0.000147893 0 0.000127001 3.70466e-08 1.98562e-08
632 5 0.001 -0.000329796 0 -0.0271909 -7.42375e-05 0 -0.000108001 6.41122e-08 1.7748e-08
633 5 0.001 -0.000255469 0 -0.0265601 -4.28098e-05 0 -0.000125641 7.39166e-08 1.80857e-08
634 5 0.001 -0.000186562 0 -0.0259288 -1.93452e-05 0 -0.000141377 8.35189e-08 1.84586e-08
783 6 0.001 0.00328896 0 -0.0264141 2.12212e-05 0 -0.000134962 7.15501e-08 1.06819e-08
782 6 0.001 0.00329965 0 -0.0270498 -3.98431e-07 0 -0.000124505 7.04123e-08 1.04348e-08
784 6 0.001 0.00327289 0 -0.0257787 3.86512e-05 0 -0.000142704 7.22737e-08 1.09489e-08
934 7 0.001 0.00660769 0 -0.0257849 -9.35842e-05 0 4.70513e-06 6.77045e-08 5.91148e-09
933 7 0.001 0.00669502 0 -0.0264151 -0.000113663 0 2.70628e-06 6.83616e-08 5.93784e-09
932 7 0.001 0.00677713 0 -0.027046 -0.000127807 0 1.59225e-06 6.80792e-08 5.96194e-09
1084 8 0.001 0.00924083 0 -0.0260332 2.29363e-05 0 1.22175e-05 6.76413e-10 6.25573e-10
1083 8 0.001 0.00939792 0 -0.0266507 2.21268e-05 0 1.12469e-05 1.5521e-09 6.28836e-10
1234 9 0.001 0.0146497 0 -0.0259726 0.000125681 0 -1.5437e-05 1.43188e-09 1.27249e-09
1232 9 0.001 0.0149438 0 -0.0272121 0.000108481 0 -1.98433e-05 4.44137e-09 1.21848e-09
1233 9 0.001 0.0147972 0 -0.0265922 0.000121461 0 -1.70804e-05 2.67001e-09 1.24507e-09
1384 10 0.001 0.0198413 0 -0.0259304 -8.13938e-05 0 -7.06051e-05 1.21664e-08 3.71056e-10
1383 10 0.001 0.0199843 0 -0.0265514 -9.20703e-05 0 -6.8373e-05 1.47932e-08 3.55715e-10
1382 10 0.001 0.0201249 0 -0.0271729 -9.61986e-05 0 -6.41258e-05 1.73872e-08 3.42166e-10
35 1 0.001 -0.0193252 0 -0.0253787 2.32114e-06 0 -6.56877e-07 2.00102e-09 1.20413e-09
36 1 0.001 -0.0191715 0 -0.0247605 1.82732e-06 0 -7.59626e-07 1.01219e-09 1.20329e-09
185 2 0.001 -0.0143692 0 -0.0254047 -8.32877e-05 0 6.59166e-05 1.68116e-09 6.69751e-09
186 2 0.001 -0.0142129 0 -0.0247881 -0.000129881 0 7.83316e-05 5.36485e-10 6.62987e-09
335 3 0.001 -0.00845793 0 -0.0255943 -0.000153579 0 8.91078e-05 3.91205e-08 8.32656e-09