ITEM: TIMESTEP
1900000
ITEM: NUMBER OF ATOMS
1500
ITEM: BOX BOUNDS ff ff ff
-2.5000000000000001e-02 2.5000000000000001e-02
-5.0000000000000001e-03 5.0000000000000001e-03
-5.0000000000000003e-02 5.0000000000000003e-02
ITEM: ATOMS id type radius x y z fx fy fz c_bendingE c_stretchingE
1 1 0.001 -0.0225 0 -0.04389 -0.150186 0 -3.8e-09 7.6165e-07 1.59293e-34
151 2 0.001 -0.0175 0 -0.04389 -0.143483 0 -3.8e-09 6.95144e-07 1.59293e-34
301 3 0.001 -0.0125 0 -0.04389 -0.120606 0 -3.8e-09 4.91074e-07 1.59293e-34
451 4 0.001 -0.0075 0 -0.04389 -0.0851207 0 -3.8e-09 2.44569e-07 1.59293e-34
601 5 0.001 -0.0025 0 -0.04389 -0.0502848 0 -3.8e-09 8.53397e-08 1.59293e-34
751 6 0.001 0.0025 0 -0.04389 -0.0239678 0 -3.8e-09 1.93872e-08 1.59293e-34
901 7 0.001 0.0075 0 -0.04389 0.00176103 0 -3.8e-09 1.04661e-10 1.59293e-34
1051 8 0.001 0.0125 0 -0.04389 0.0281686 0 -3.8e-09 2.67787e-08 1.59293e-34
1201 9 0.001 0.0175 0 -0.04389 0.0593367 0 -3.8e-09 1.18833e-07 1.59293e-34
1351 10 0.001 0.0225 0 -0.04389 0.0743397 0 -3.8e-09 1.86532e-07 1.59293e-34
2 1 0.001 -0.0225 0 -0.0432524 0.150042 0 -0.0165341 1.51679e-06 1.13312e-08
3 1 0.001 -0.0224697 0 -0.0426183 8.7671e-08 0 4.36089e-08 2.25762e-06 2.25947e-08
152 2 0.001 -0.0175 0 -0.0432524 0.143672 0 -0.0183065 1.38044e-06 1.3869e-08
153 2 0.001 -0.0174711 0 -0.0426185 5.61503e-08 0 -1.75724e-07 2.04813e-06 2.76396e-08
302 3 0.001 -0.0125 0 -0.0432524 0.120923 0 -0.020877 9.73145e-07 1.80443e-08
303 3 0.001 -0.0124757 0 -0.0426188 -2.95726e-07 0 -1.69958e-07 1.44003e-06 3.59898e-08
452 4 0.001 -0.0075 0 -0.0432524 0.0879847 0 -0.0113685 4.71307e-07 5.28809e-09
453 4 0.001 -0.00748281 0 -0.0426169 5.19673e-07 0 -2.25692e-07 6.79338e-07 1.04958e-08
602 5 0.001 -0.0025 0 -0.0432524 0.0529492 0 -0.00953191 1.61409e-07 3.73687e-09
603 5 0.001 -0.00248984 0 -0.0426165 -4.0328e-08 0 -1.89634e-07 2.28313e-07 7.43967e-09
752 6 0.001 0.0025 0 -0.0432524 0.0264488 0 -0.00932599 3.48747e-08 3.59542e-09
753 6 0.001 0.00250484 0 -0.0426164 -3.056e-07 0 1.0107e-07 4.682e-08 7.1772e-09
902 7 0.001 0.0075 0 -0.0432524 0.000407739 0 -0.00854009 6.23306e-10 3.02827e-09
903 7 0.001 0.00749964 0 -0.0426163 1.4464e-08 0 -1.36438e-08 1.86626e-09 6.05845e-09
1052 8 0.001 0.0125 0 -0.0432524 -0.0265142 0 -0.0075366 5.66534e-08 2.36683e-09
1053 8 0.001 0.0124943 0 -0.0426161 -5.17531e-08 0 -3.69734e-08 8.96427e-08 4.74287e-09
1202 9 0.001 0.0175 0 -0.0432524 -0.0587211 0 -0.00635891 2.39656e-07 1.68399e-09
1203 9 0.001 0.017488 0 -0.042616 6.59134e-08 0 2.43337e-08 3.61995e-07 3.37235e-09
1352 10 0.001 0.0225 0 -0.0432524 -0.0743387 0 -0.00590499 3.72371e-07 1.44659e-09
1353 10 0.001 0.022485 0 -0.042616 1.78811e-09 0 2.43673e-09 5.56824e-07 2.89077e-09
4 1 0.001 -0.0224094 0 -0.0419863 2.49486e-07 0 7.97808e-08 2.215e-06 2.24104e-08
5 1 0.001 -0.0223193 0 -0.0413579 4.46684e-07 0 1.06377e-07 2.15012e-06 2.21311e-08
154 2 0.001 -0.0174135 0 -0.0419866 1.24835e-07 0 -3.4449e-07 1.99575e-06 2.73899e-08
155 2 0.001 -0.0173278 0 -0.0413578 2.21579e-07 0 -4.98941e-07 1.92157e-06 2.70382e-08
304 3 0.001 -0.0124274 0 -0.0419865 -7.31201e-07 0 -3.18282e-07 1.39491e-06 3.5744e-08
305 3 0.001 -0.0123555 0 -0.0413564 -1.22417e-06 0 -4.36296e-07 1.33267e-06 3.54066e-08
454 4 0.001 -0.00744909 0 -0.0419821 1.44571e-06 0 -4.75656e-07 6.23486e-07 1.03325e-08
455 4 0.001 -0.00739955 0 -0.0413483 2.60642e-06 0 -7.66319e-07 5.65825e-07 1.01655e-08
604 5 0.001 -0.0024701 0 -0.0419808 -7.14388e-08 0 -3.54596e-07 2.00928e-07 7.3724e-09
605 5 0.001 -0.00244137 0 -0.0413454 -7.25764e-08 0 -5.08013e-07 1.74186e-07 7.30727e-09
754 6 0.001 0.00251401 0 -0.0419804 -8.2522e-07 0 1.93072e-07 3.62357e-08 7.15125e-09
755 6 0.001 0.00252698 0 -0.0413445 -1.43352e-06 0 3.01863e-07 2.68457e-08 7.12811e-09
904 7 0.001 0.0074985 0 -0.0419801 1.87366e-08 0 -3.45473e-08 4.03137e-09 6.06331e-09
905 7 0.001 0.00749612 0 -0.0413439 -1.4369e-08 0 -5.21557e-08 7.10065e-09 6.07023e-09
1054 8 0.001 0.0124826 0 -0.0419799 -1.39163e-07 0 -7.16474e-08 9.89561e-08 4.76135e-09
1055 8 0.001 0.0124646 0 -0.0413438 -2.49322e-07 0 -1.05004e-07 1.08234e-07 4.77984e-09
1205 9 0.001 0.0174277 0 -0.0413444 3.99844e-07 0 8.30917e-08 3.69605e-07 3.38494e-09
1204 9 0.001 0.0174639 0 -0.0419799 1.98962e-07 0 5.09456e-08 3.66529e-07 3.37987e-09
1354 10 0.001 0.0224549 0 -0.0419801 4.04094e-09 0 2.54084e-09 5.52679e-07 2.88438e-09
1355 10 0.001 0.02241 0 -0.0413451 7.28828e-09 0 2.37612e-09 5.46496e-07 2.87487e-09
6 1 0.001 -0.0222003 0 -0.0407343 6.43903e-07 0 1.448e-07 2.06445e-06 2.17649e-08
7 1 0.001 -0.022053 0 -0.0401167 8.32904e-07 0 1.42163e-07 1.95992e-06 2.13222e-08
8 1 0.001 -0.0218786 0 -0.0395062 1.00818e-06 0 1.09241e-07 1.83886e-06 2.08151e-08
156 2 0.001 -0.0172146 0 -0.0407334 2.64134e-07 0 -6.24517e-07 1.82743e-06 2.65953e-08
157 2 0.001 -0.0170748 0 -0.0401144 2.51972e-07 0 -7.45704e-07 1.71564e-06 2.6074e-08
158 2 0.001 -0.0169095 0 -0.0395016 1.71605e-07 0 -8.82259e-07 1.58889e-06 2.54894e-08
306 3 0.001 -0.0122606 0 -0.0407294 -1.70108e-06 0 -5.47621e-07 1.25503e-06 3.49884e-08
307 3 0.001 -0.0121436 0 -0.0401061 -2.12733e-06 0 -6.64861e-07 1.16411e-06 3.45022e-08
308 3 0.001 -0.0120054 0 -0.0394871 -2.45218e-06 0 -7.55233e-07 1.06236e-06 3.39626e-08
456 4 0.001 -0.00733497 0 -0.0407158 3.81492e-06 0 -1.07042e-06 5.07187e-07 9.99733e-09
457 4 0.001 -0.00725619 0 -0.040085 4.86826e-06 0 -1.35763e-06 4.48411e-07 9.83031e-09
458 4 0.001 -0.0071641 0 -0.0394559 5.68924e-06 0 -1.61934e-06 3.90335e-07 9.66675e-09
606 5 0.001 -0.00240428 0 -0.0407105 -6.46004e-09 0 -6.44755e-07 1.48413e-07 7.24501e-09
607 5 0.001 -0.00235948 0 -0.040076 7.55736e-08 0 -7.69918e-07 1.23916e-07 7.18633e-09
608 5 0.001 -0.00230765 0 -0.0394421 1.39631e-07 0 -8.84478e-07 1.00987e-07 7.13186e-09
756 6 0.001 0.00254321 0 -0.0407087 -2.033e-06 0 4.14854e-07 1.87607e-08 7.10803e-09
757 6 0.001 0.00256215 0 -0.0400729 -2.55004e-06 0 5.42665e-07 1.20746e-08 7.09122e-09
758 6 0.001 0.00258326 0 -0.0394372 -2.90376e-06 0 6.62757e-07 6.86342e-09 7.07783e-09
906 7 0.001 0.00749209 0 -0.0407078 -8.21008e-08 0 -9.34488e-08 1.10408e-08 6.07915e-09
907 7 0.001 0.00748598 0 -0.0400716 -1.82651e-07 0 -1.22983e-07 1.58088e-08 6.08997e-09
908 7 0.001 0.00747736 0 -0.0394355 -2.83241e-07 0 -1.5128e-07 2.13526e-08 6.10259e-09
1056 8 0.001 0.01244 0 -0.040708 -3.60114e-07 0 -1.38579e-07 1.17386e-07 4.79815e-09
1057 8 0.001 0.0124085 0 -0.0400724 -4.55166e-07 0 -1.74102e-07 1.26322e-07 4.81609e-09
1058 8 0.001 0.0123698 0 -0.0394373 -5.29493e-07 0 -2.12045e-07 1.34952e-07 4.8335e-09
1206 9 0.001 0.0173792 0 -0.0407098 6.65535e-07 0 1.25556e-07 3.712e-07 3.38753e-09
1207 9 0.001 0.0173186 0 -0.0400761 9.88916e-07 0 1.77806e-07 3.71303e-07 3.38762e-09
1208 9 0.001 0.0172458 0 -0.0394438 1.35855e-06 0 2.39729e-07 3.69918e-07 3.38523e-09
1356 10 0.001 0.0223502 0 -0.0407113 8.67878e-09 0 3.73523e-09 5.38324e-07 2.86232e-09
1357 10 0.001 0.0222758 0 -0.040079 8.77873e-09 0 4.32216e-09 5.28228e-07 2.84685e-09
1358 10 0.001 0.0221869 0 -0.0394487 7.90527e-09 0 4.60422e-09 5.16289e-07 2.82861e-09
9 1 0.001 -0.0216781 0 -0.0389037 1.1933e-06 0 4.67605e-08 1.70394e-06 2.02572e-08
10 1 0.001 -0.021453 0 -0.0383099 1.38308e-06 0 -2.53918e-08 1.55806e-06 1.96624e-08
159 2 0.001 -0.0167199 0 -0.0388959 5.40812e-08 0 -1.01218e-06 1.45023e-06 2.48577e-08
160 2 0.001 -0.0165074 0 -0.0382978 -1.11403e-07 0 -1.11859e-06 1.30289e-06 2.41954e-08
309 3 0.001 -0.0118471 0 -0.0388729 -2.64844e-06 0 -8.17857e-07 9.5251e-07 3.33852e-08
310 3 0.001 -0.01167 0 -0.0382639 -2.80534e-06 0 -9.0136e-07 8.37442e-07 3.27861e-08
459 4 0.001 -0.00705962 0 -0.0388287 6.2279e-06 0 -1.83788e-06 3.33782e-07 9.50887e-09
460 4 0.001 -0.00694374 0 -0.0382036 6.40469e-06 0 -1.96316e-06 2.79555e-07 9.35873e-09
609 5 0.001 -0.00224948 0 -0.0388087 1.81962e-07 0 -9.99849e-07 7.99002e-08 7.08221e-09
610 5 0.001 -0.00218569 0 -0.0381758 1.50791e-07 0 -1.08208e-06 6.09032e-08 7.03792e-09
759 6 0.001 0.00260596 0 -0.0388016 -3.05055e-06 0 7.41525e-07 3.18431e-09 7.06803e-09
760 6 0.001 0.0026297 0 -0.0381659 -2.94887e-06 0 8.0653e-07 1.07568e-09 7.06193e-09
909 7 0.001 0.00746583 0 -0.0387995 -3.59714e-07 0 -1.7588e-07 2.76112e-08 6.11685e-09
910 7 0.001 0.00745097 0 -0.0381635 -4.14289e-07 0 -1.9952e-07 3.4516e-08 6.13262e-09
1059 8 0.001 0.0123238 0 -0.0388026 -5.7846e-07 0 -2.49304e-07 1.43193e-07 4.85019e-09
1060 8 0.001 0.0122702 0 -0.0381686 -6.15397e-07 0 -2.87858e-07 1.50963e-07 4.866e-09
1209 9 0.001 0.0171608 0 -0.038813 1.75252e-06 0 3.11023e-07 3.67061e-07 3.3804e-09
1210 9 0.001 0.0170638 0 -0.0381839 2.14108e-06 0 3.86083e-07 3.62761e-07 3.37318e-09
1359 10 0.001 0.0220837 0 -0.0388205 5.57586e-09 0 5.5161e-09 5.02601e-07 2.80778e-09
1360 10 0.001 0.0219665 0 -0.0381947 2.6436e-09 0 5.28359e-09 4.87273e-07 2.78454e-09
11 1 0.001 -0.0212046 0 -0.0377254 1.56866e-06 0 -8.63138e-08 1.40432e-06 1.90451e-08
12 1 0.001 -0.0209345 0 -0.0371507 1.7097e-06 0 -1.63479e-07 1.24592e-06 1.84193e-08
13 1 0.001 -0.0206443 0 -0.0365857 1.83309e-06 0 -2.82079e-07 1.08607e-06 1.77984e-08
161 2 0.001 -0.0162735 0 -0.0377077 -3.35989e-07 0 -1.1919e-06 1.1503e-06 2.35192e-08
162 2 0.001 -0.0160197 0 -0.0371258 -5.91117e-07 0 -1.21092e-06 9.95895e-07 2.28451e-08
163 2 0.001 -0.0157476 0 -0.0365522 -8.33926e-07 0 -1.23603e-06 8.43111e-07 2.21881e-08
311 3 0.001 -0.0114753 0 -0.0376602 -2.88991e-06 0 -1.00555e-06 7.20153e-07 3.21815e-08
312 3 0.001 -0.0112645 0 -0.037062 -2.86964e-06 0 -1.07917e-06 6.03652e-07 3.15872e-08
313 3 0.001 -0.0110391 0 -0.036469 -2.81544e-06 0 -1.158e-06 4.90886e-07 3.10177e-08
461 4 0.001 -0.00681745 0 -0.0375804 6.18384e-06 0 -2.01734e-06 2.28417e-07 9.21829e-09
462 4 0.001 -0.00668181 0 -0.0369592 5.52911e-06 0 -1.9788e-06 1.81088e-07 9.08936e-09
463 4 0.001 -0.00653786 0 -0.0363399 4.48869e-06 0 -1.82684e-06 1.38232e-07 8.97354e-09
611 5 0.001 -0.002117 0 -0.0375435 1.07778e-07 0 -1.14955e-06 4.42202e-08 6.99944e-09
612 5 0.001 -0.00204416 0 -0.0369116 9.01889e-08 0 -1.19773e-06 3.0047e-08 6.96718e-09
613 5 0.001 -0.00196791 0 -0.0362802 6.1856e-08 0 -1.22933e-06 1.85495e-08 6.94145e-09
761 6 0.001 0.0026539 0 -0.0375304 -2.68467e-06 0 8.98327e-07 5.57182e-10 7.05953e-09
762 6 0.001 0.00267801 0 -0.0368948 -2.22833e-06 0 9.65309e-07 1.63016e-09 7.06083e-09
763 6 0.001 0.00270144 0 -0.0362591 -1.68495e-06 0 1.0026e-06 4.27815e-09 7.06583e-09
911 7 0.001 0.00743239 0 -0.0375276 -4.29879e-07 0 -2.4021e-07 4.19909e-08 6.14972e-09
912 7 0.001 0.00740971 0 -0.0368919 -4.08239e-07 0 -2.69539e-07 4.99537e-08 6.168e-09
913 7 0.001 0.00738255 0 -0.0362563 -3.68523e-07 0 -2.81468e-07 5.83167e-08 6.18724e-09
1061 8 0.001 0.0122089 0 -0.0375352 -6.388e-07 0 -3.2989e-07 1.58183e-07 4.88077e-09
1062 8 0.001 0.0121396 0 -0.0369027 -6.65004e-07 0 -3.7608e-07 1.64782e-07 4.89437e-09
1063 8 0.001 0.0120622 0 -0.0362711 -7.09354e-07 0 -4.27964e-07 1.70695e-07 4.90664e-09
1211 9 0.001 0.0169548 0 -0.0375567 2.48672e-06 0 4.60055e-07 3.57057e-07 3.36366e-09
1212 9 0.001 0.0168341 0 -0.0369318 2.7517e-06 0 5.25119e-07 3.50002e-07 3.35195e-09
1213 9 0.001 0.0167016 0 -0.0363092 2.9042e-06 0 5.71284e-07 3.41658e-07 3.33817e-09
1361 10 0.001 0.0218355 0 -0.0375717 -1.82997e-09 0 4.15397e-09 4.70425e-07 2.7591e-09
1362 10 0.001 0.021691 0 -0.0369517 -7.32153e-09 0 2.27255e-09 4.52188e-07 2.73171e-09
1363 10 0.001 0.0215334 0 -0.0363349 -1.17943e-08 0 1.4483e-09 4.32703e-07 2.70259e-09
14 1 0.001 -0.0203356 0 -0.0360306 1.91782e-06 0 -4.02461e-07 9.27943e-07 1.71946e-08
15 1 0.001 -0.0200103 0 -0.035485 2.00962e-06 0 -5.28579e-07 7.74617e-07 1.66191e-08
16 1 0.001 -0.0196698 0 -0.0349487 2.06032e-06 0 -6.20901e-07 6.28997e-07 1.60815e-08
164 2 0.001 -0.0154591 0 -0.0359867 -1.05782e-06 0 -1.25725e-06 6.95269e-07 2.15619e-08
165 2 0.001 -0.0151558 0 -0.0354289 -1.18383e-06 0 -1.29526e-06 5.55519e-07 2.09788e-08
166 2 0.001 -0.0148395 0 -0.0348783 -1.24522e-06 0 -1.34498e-06 4.26777e-07 2.04493e-08
314 3 0.001 -0.0108006 0 -0.0358811 -2.80267e-06 0 -1.21293e-06 3.84669e-07 3.04868e-08
315 3 0.001 -0.0105508 0 -0.035298 -2.79432e-06 0 -1.24107e-06 2.87618e-07 3.00065e-08
464 4 0.001 -0.0063867 0 -0.0357222 3.16068e-06 0 -1.57536e-06 1.00447e-07 8.87222e-09
465 4 0.001 -0.00622942 0 -0.0351061 1.62019e-06 0 -1.23503e-06 6.8256e-08 8.7866e-09
614 5 0.001 -0.00188901 0 -0.035649 5.40761e-08 0 -1.25842e-06 9.86178e-09 6.92254e-09
615 5 0.001 -0.00180824 0 -0.0350181 1.13806e-07 0 -1.28577e-06 4.08512e-09 6.91063e-09
764 6 0.001 0.00272365 0 -0.0356235 -1.08802e-06 0 1.02728e-06 8.46742e-09 7.07446e-09
765 6 0.001 0.00274407 0 -0.0349878 -5.41466e-07 0 1.04986e-06 1.41474e-08 7.08664e-09
914 7 0.001 0.00735055 0 -0.035621 -3.09669e-07 0 -2.94948e-07 6.69877e-08 6.20722e-09
915 7 0.001 0.00731337 0 -0.0349859 -2.15642e-07 0 -2.90467e-07 7.58713e-08 6.22773e-09
1064 8 0.001 0.0119765 0 -0.0356406 -7.83831e-07 0 -4.85291e-07 1.75862e-07 4.91748e-09
1065 8 0.001 0.0118825 0 -0.0350113 -8.96648e-07 0 -5.48511e-07 1.80231e-07 4.92677e-09
1214 9 0.001 0.0165577 0 -0.0356891 2.92496e-06 0 5.88697e-07 3.32093e-07 3.32244e-09
1215 9 0.001 0.0164026 0 -0.0350718 2.80082e-06 0 5.70967e-07 3.21388e-07 3.30491e-09
1364 10 0.001 0.021363 0 -0.0357215 -1.59184e-08 0 3.85219e-10 4.1212e-07 2.672e-09
1365 10 0.001 0.0211802 0 -0.0351116 -1.89305e-08 0 -3.2075e-11 3.90596e-07 2.64019e-09
17 1 0.001 -0.0193161 0 -0.0344209 2.02256e-06 0 -6.59209e-07 4.93781e-07 1.55901e-08
18 1 0.001 -0.0189508 0 -0.0339011 1.87471e-06 0 -6.50851e-07 3.71424e-07 1.5152e-08
19 1 0.001 -0.0185757 0 -0.0333884 1.63342e-06 0 -5.87152e-07 2.64102e-07 1.47728e-08
167 2 0.001 -0.014512 0 -0.0343343 -1.2064e-06 0 -1.4686e-06 3.11677e-07 1.99824e-08
168 2 0.001 -0.014175 0 -0.0337961 -9.95079e-07 0 -1.64987e-06 2.12533e-07 1.95853e-08
169 2 0.001 -0.0138303 0 -0.0332627 -6.98756e-07 0 -1.88569e-06 1.31308e-07 1.92639e-08
316 3 0.001 -0.0102911 0 -0.0347191 -2.82488e-06 0 -1.23196e-06 2.02095e-07 2.95874e-08
317 3 0.001 -0.0100234 0 -0.0341439 -2.91836e-06 0 -1.18988e-06 1.30159e-07 2.92384e-08
318 3 0.001 -0.00974922 0 -0.0335717 -3.02359e-06 0 -1.12091e-06 7.35218e-08 2.89667e-08
466 4 0.001 -0.00606715 0 -0.0344913 2.59648e-08 0 -8.29847e-07 4.20994e-08 8.71761e-09
467 4 0.001 -0.00590099 0 -0.0338775 -1.55933e-06 0 -3.95965e-07 2.23304e-08 8.66598e-09
468 4 0.001 -0.00573209 0 -0.0332644 -3.03846e-06 0 8.40457e-09 9.20942e-09 8.63226e-09
616 5 0.001 -0.00172637 0 -0.0343873 2.38349e-07 0 -1.30154e-06 1.28694e-09 6.90585e-09
617 5 0.001 -0.00164416 0 -0.0337566 4.13817e-07 0 -1.2907e-06 1.50035e-09 6.90824e-09
766 6 0.001 0.00276214 0 -0.034352 -5.81476e-08 0 1.0757e-06 2.12513e-08 7.1022e-09
767 6 0.001 0.00277732 0 -0.0337161 3.15343e-07 0 1.10332e-06 2.96964e-08 7.12097e-09
916 7 0.001 0.00727067 0 -0.0343512 -1.14908e-07 0 -2.88798e-07 8.48697e-08 6.24853e-09
917 7 0.001 0.00722213 0 -0.0337169 -3.58444e-08 0 -2.8273e-07 9.38836e-08 6.2694e-09
1066 8 0.001 0.0117801 0 -0.0343833 -1.04639e-06 0 -6.20167e-07 1.83756e-07 4.9344e-09
1067 8 0.001 0.0116692 0 -0.0337567 -1.23101e-06 0 -7.03554e-07 1.86402e-07 4.94031e-09
1218 9 0.001 0.0158719 0 -0.0332376 1.62737e-06 0 2.67544e-07 2.83324e-07 3.24308e-09
1217 9 0.001 0.0160594 0 -0.0338459 2.13304e-06 0 4.09683e-07 2.96908e-07 3.26507e-09
1216 9 0.001 0.0162364 0 -0.0344573 2.53276e-06 0 5.12269e-07 3.09629e-07 3.28573e-09
1366 10 0.001 0.0209855 0 -0.0345055 -2.06389e-08 0 6.91912e-10 3.68295e-07 2.60744e-09
1367 10 0.001 0.0207791 0 -0.0339032 -2.09905e-08 0 4.38309e-11 3.45382e-07 2.57401e-09
1368 10 0.001 0.0205616 0 -0.0333049 -2.23517e-08 0 -3.13629e-10 3.2203e-07 2.54015e-09
20 1 0.001 -0.0181923 0 -0.0328817 1.34439e-06 0 -4.99796e-07 1.73689e-07 1.4457e-08
21 1 0.001 -0.0178024 0 -0.03238 1.03481e-06 0 -4.0029e-07 1.01737e-07 1.42081e-08
22 1 0.001 -0.0174076 0 -0.0318821 7.2487e-07 0 -3.06319e-07 4.94666e-08 1.40287e-08
170 2 0.001 -0.0134796 0 -0.0327333 -3.75216e-07 0 -2.10627e-06 6.95876e-08 1.90227e-08
171 2 0.001 -0.0131248 0 -0.0322066 -8.55184e-08 0 -2.26325e-06 2.85685e-08 1.88648e-08
319 3 0.001 -0.00947036 0 -0.0330018 -3.13395e-06 0 -1.03905e-06 3.35189e-08 2.87777e-08
320 3 0.001 -0.00918851 0 -0.0324333 -3.20836e-06 0 -9.43432e-07 1.10837e-08 2.8675e-08
321 3 0.001 -0.00890539 0 -0.0318655 -3.15627e-06 0 -9.08399e-07 6.73146e-09 2.86606e-08
469 4 0.001 -0.00556158 0 -0.0326518 -4.30155e-06 0 3.70804e-07 2.90255e-09 8.61679e-09
470 4 0.001 -0.00539059 0 -0.0320394 -5.21897e-06 0 6.48707e-07 3.48056e-09 8.61967e-09
618 5 0.001 -0.00156239 0 -0.0331258 6.12133e-07 0 -1.27478e-06 4.72408e-09 6.91776e-09
619 5 0.001 -0.00148184 0 -0.0324948 8.15524e-07 0 -1.2343e-06 1.09226e-08 6.93433e-09
620 5 0.001 -0.00140327 0 -0.0318636 9.63126e-07 0 -1.16583e-06 2.00263e-08 6.95776e-09
768 6 0.001 0.00278906 0 -0.0330802 4.85398e-07 0 1.11096e-06 3.93846e-08 7.14275e-09
769 6 0.001 0.00279683 0 -0.0324442 4.8808e-07 0 1.11973e-06 5.02029e-08 7.1673e-09
770 6 0.001 0.00280013 0 -0.0318081 3.44718e-07 0 1.13101e-06 6.20244e-08 7.19433e-09
918 7 0.001 0.00716746 0 -0.0330831 1.14109e-08 0 -2.73777e-07 1.02813e-07 6.29011e-09
920 7 0.001 0.00703863 0 -0.0318174 8.47096e-08 0 -2.35616e-07 1.20026e-07 6.33011e-09
919 7 0.001 0.00710638 0 -0.0324499 4.71966e-08 0 -2.57333e-07 1.1156e-07 6.31042e-09
1069 8 0.001 0.0114218 0 -0.0325084 -1.64934e-06 0 -8.88343e-07 1.88948e-07 4.94672e-09
1070 8 0.001 0.0112852 0 -0.031887 -1.83964e-06 0 -9.85824e-07 1.8882e-07 4.94715e-09
1068 8 0.001 0.0115498 0 -0.0331317 -1.44053e-06 0 -7.9315e-07 1.88139e-07 4.94443e-09
1219 9 0.001 0.0156743 0 -0.0326325 1.05122e-06 0 9.51087e-08 2.68982e-07 3.21996e-09
1220 9 0.001 0.0154667 0 -0.0320307 4.45347e-07 0 -9.5112e-08 2.53992e-07 3.19586e-09
1370 10 0.001 0.020095 0 -0.0321201 -2.99923e-08 0 -4.85585e-10 2.74694e-07 2.47221e-09
1369 10 0.001 0.0203334 0 -0.0327105 -2.46056e-08 0 2.98289e-10 2.9841e-07 2.50613e-09
23 1 0.001 -0.0170096 0 -0.0313867 4.03111e-07 0 -2.1577e-07 1.77538e-08 1.39204e-08
24 1 0.001 -0.01661 0 -0.0308927 6.46159e-08 0 -1.26848e-07 7.12675e-09 1.38843e-08
25 1 0.001 -0.0162103 0 -0.0303987 -2.66146e-07 0 -3.92396e-08 1.77624e-08 1.39207e-08
172 2 0.001 -0.0127675 0 -0.0316815 7.45263e-08 0 -2.34227e-06 9.0431e-09 1.87924e-08
173 2 0.001 -0.0124096 0 -0.0311569 6.84417e-08 0 -2.28644e-06 1.13917e-08 1.88063e-08
174 2 0.001 -0.0120527 0 -0.0306315 -4.14127e-08 0 -2.10698e-06 3.55772e-08 1.89066e-08
322 3 0.001 -0.00862272 0 -0.0312975 -2.84683e-06 0 -9.39506e-07 2.05509e-08 2.87349e-08
323 3 0.001 -0.00834221 0 -0.0307283 -2.33713e-06 0 -1.07672e-06 5.22049e-08 2.88964e-08
471 4 0.001 -0.00522027 0 -0.0314267 -5.73655e-06 0 8.37257e-07 1.09199e-08 8.64081e-09
472 4 0.001 -0.00505175 0 -0.0308136 -5.81926e-06 0 9.06419e-07 2.51052e-08 8.67993e-09
621 5 0.001 -0.00132746 0 -0.0312321 9.99388e-07 0 -1.07376e-06 3.1932e-08 6.98782e-09
622 5 0.001 -0.00125516 0 -0.0306002 8.8131e-07 0 -9.54456e-07 4.65036e-08 7.02422e-09
771 6 0.001 0.00279843 0 -0.0311721 6.98873e-08 0 1.13835e-06 7.47091e-08 7.22351e-09
772 6 0.001 0.00279126 0 -0.0305361 -2.12e-07 0 1.1336e-06 8.81056e-08 7.25448e-09
922 7 0.001 0.00688215 0 -0.0305548 1.13476e-07 0 -1.71632e-07 1.35745e-07 6.36669e-09
921 7 0.001 0.00696395 0 -0.0311857 1.06464e-07 0 -2.06486e-07 1.28118e-07 6.34894e-09
1071 8 0.001 0.0111401 0 -0.0312674 -1.98856e-06 0 -1.07645e-06 1.87753e-07 4.94572e-09
1072 8 0.001 0.0109866 0 -0.0306499 -2.07232e-06 0 -1.1522e-06 1.85758e-07 4.94245e-09
1221 9 0.001 0.0152496 0 -0.0314323 -1.45285e-07 0 -2.86141e-07 2.38469e-07 3.17098e-09
1222 9 0.001 0.0150233 0 -0.0308374 -6.7628e-07 0 -4.63396e-07 2.22532e-07 3.14551e-09
1223 9 0.001 0.0147882 0 -0.0302458 -1.10855e-06 0 -6.09361e-07 2.06305e-07 3.11964e-09
1371 10 0.001 0.0198469 0 -0.0315338 -4.06515e-08 0 -3.01998e-09 2.51054e-07 2.43862e-09
1372 10 0.001 0.0195895 0 -0.0309515 -5.44613e-08 0 -9.2098e-09 2.27658e-07 2.4056e-09
1373 10 0.001 0.0193234 0 -0.030373 -7.2019e-08 0 -1.82913e-08 2.04674e-07 2.37338e-09
26 1 0.001 -0.0158123 0 -0.0299033 -5.64404e-07 0 1.63684e-08 4.94853e-08 1.40292e-08
27 1 0.001 -0.0154175 0 -0.0294054 -8.15373e-07 0 2.34874e-08 1.01769e-07 1.4209e-08
28 1 0.001 -0.0150276 0 -0.0289037 -1.02061e-06 0 -3.50738e-09 1.73741e-07 1.44583e-08
175 2 0.001 -0.0116986 0 -0.0301043 -3.12215e-07 0 -1.82265e-06 8.11436e-08 1.9092e-08
176 2 0.001 -0.0113491 0 -0.0295741 -7.17442e-07 0 -1.45925e-06 1.47217e-07 1.93602e-08
177 2 0.001 -0.0110059 0 -0.0290398 -1.24582e-06 0 -1.02584e-06 2.32515e-07 1.97079e-08
324 3 0.001 -0.00806559 0 -0.0301573 -1.6255e-06 0 -1.3191e-06 1.00938e-07 2.91421e-08
325 3 0.001 -0.00779457 0 -0.0295837 -7.80259e-07 0 -1.64266e-06 1.6559e-07 2.94675e-08
326 3 0.001 -0.00753083 0 -0.0290066 2.00929e-07 0 -2.00819e-06 2.44621e-07 2.98661e-08
473 4 0.001 -0.00488617 0 -0.0301996 -5.4977e-06 0 8.77657e-07 4.58327e-08 8.73657e-09
474 4 0.001 -0.00472464 0 -0.0295846 -4.76402e-06 0 7.51701e-07 7.28147e-08 8.8101e-09
475 4 0.001 -0.00456829 0 -0.0289682 -3.69779e-06 0 5.68658e-07 1.05684e-07 8.89969e-09
623 5 0.001 -0.00118713 0 -0.0299678 5.92255e-07 0 -8.02834e-07 6.35723e-08 7.06658e-09
624 5 0.001 -0.0011241 0 -0.0293348 1.33857e-07 0 -6.33531e-07 8.29383e-08 7.11446e-09
625 5 0.001 -0.0010668 0 -0.0287014 -4.70096e-07 0 -4.36368e-07 1.04371e-07 7.16732e-09
773 6 0.001 0.00277814 0 -0.0299002 -4.71139e-07 0 1.11578e-06 1.02053e-07 7.28687e-09
774 6 0.001 0.00275861 0 -0.0292645 -6.66459e-07 0 1.08621e-06 1.16382e-07 7.3203e-09
923 7 0.001 0.006793 0 -0.029925 1.30699e-07 0 -1.40675e-07 1.42822e-07 6.38315e-09
924 7 0.001 0.00669635 0 -0.0292962 1.53849e-07 0 -9.95077e-08 1.49269e-07 6.39815e-09
925 7 0.001 0.00659203 0 -0.0286687 1.52961e-07 0 -4.73043e-08 1.55014e-07 6.41149e-09
1073 8 0.001 0.0108247 0 -0.0300346 -2.06997e-06 0 -1.20687e-06 1.82852e-07 4.93737e-09
1075 8 0.001 0.0104761 0 -0.0288107 -1.77813e-06 0 -1.23315e-06 1.74437e-07 4.92206e-09
1074 8 0.001 0.0106545 0 -0.0294214 -1.97246e-06 0 -1.23438e-06 1.79065e-07 4.93055e-09
1225 9 0.001 0.014293 0 -0.029073 -1.57203e-06 0 -7.47194e-07 1.7349e-07 3.06751e-09
1224 9 0.001 0.0145446 0 -0.0296577 -1.41187e-06 0 -7.07301e-07 1.89915e-07 3.09357e-09
1375 10 0.001 0.018767 0 -0.0292277 -1.09257e-07 0 -3.81508e-08 1.60577e-07 2.31218e-09
1374 10 0.001 0.019049 0 -0.0297985 -8.98819e-08 0 -2.80545e-08 1.82262e-07 2.34218e-09
29 1 0.001 -0.0146443 0 -0.028397 -1.16614e-06 0 -7.00815e-08 2.64184e-07 1.47747e-08
30 1 0.001 -0.0142691 0 -0.0278842 -1.23953e-06 0 -1.79447e-07 3.71551e-07 1.51547e-08
31 1 0.001 -0.0139038 0 -0.0273644 -1.25428e-06 0 -3.48185e-07 4.93975e-07 1.55939e-08
178 2 0.001 -0.0106708 0 -0.0285004 -1.88998e-06 0 -4.90353e-07 3.35355e-07 2.013e-08
179 2 0.001 -0.0103455 0 -0.0279551 -2.61903e-06 0 1.33248e-07 4.53674e-07 2.06202e-08
180 2 0.001 -0.0100319 0 -0.027403 -3.37032e-06 0 7.64624e-07 5.85056e-07 2.11705e-08
327 3 0.001 -0.00727606 0 -0.0284256 1.23455e-06 0 -2.36573e-06 3.36136e-07 3.03299e-08
328 3 0.001 -0.00703192 0 -0.0278401 2.27569e-06 0 -2.67429e-06 4.37926e-07 3.08492e-08
329 3 0.001 -0.00680004 0 -0.0272496 3.27668e-06 0 -2.97767e-06 5.47506e-07 3.14127e-08
476 4 0.001 -0.00441821 0 -0.0283503 -2.37953e-06 0 3.3829e-07 1.44e-07 9.00437e-09
477 4 0.001 -0.00427551 0 -0.0277307 -8.60963e-07 0 6.64683e-08 1.87254e-07 9.12302e-09
626 5 0.001 -0.00101595 0 -0.0280674 -1.21009e-06 0 -2.2038e-07 1.27614e-07 7.22455e-09
627 5 0.001 -0.000972236 0 -0.0274329 -2.00013e-06 0 -2.93807e-09 1.52381e-07 7.28548e-09
775 6 0.001 0.00273224 0 -0.028629 -8.05012e-07 0 1.04098e-06 1.30921e-07 7.35436e-09
777 6 0.001 0.00265734 0 -0.0273592 -7.19204e-07 0 8.94432e-07 1.59918e-07 7.42276e-09
776 6 0.001 0.00269861 0 -0.0279939 -8.20701e-07 0 9.78608e-07 1.45491e-07 7.38865e-09
926 7 0.001 0.00647991 0 -0.0280425 1.38154e-07 0 1.161e-08 1.59992e-07 6.423e-09
927 7 0.001 0.00635989 0 -0.0274178 1.57654e-07 0 8.07576e-08 1.64147e-07 6.43253e-09
1077 8 0.001 0.0100953 0 -0.0275964 -1.14292e-06 0 -1.14034e-06 1.62856e-07 4.90055e-09
1076 8 0.001 0.0102896 0 -0.0282023 -1.4973e-06 0 -1.20005e-06 1.69015e-07 4.91202e-09
1226 9 0.001 0.0140336 0 -0.0284916 -1.58844e-06 0 -7.24855e-07 1.57161e-07 3.04166e-09
1227 9 0.001 0.0137671 0 -0.0279135 -1.47037e-06 0 -6.40485e-07 1.41058e-07 3.01622e-09
1228 9 0.001 0.0134936 0 -0.0273387 -1.23847e-06 0 -4.9778e-07 1.2531e-07 2.99141e-09
1376 10 0.001 0.0184777 0 -0.0286605 -1.27625e-07 0 -4.81785e-08 1.3977e-07 2.28357e-09
1377 10 0.001 0.0181818 0 -0.0280967 -1.42897e-07 0 -5.86819e-08 1.19982e-07 2.25654e-09
1378 10 0.001 0.0178797 0 -0.0275362 -1.55195e-07 0 -6.59945e-08 1.01347e-07 2.23122e-09
32 1 0.001 -0.0135501 0 -0.0268367 -1.23882e-06 0 -5.40303e-07 6.29285e-07 1.60867e-08
33 1 0.001 -0.0132097 0 -0.0263004 -1.18513e-06 0 -7.41521e-07 7.75036e-07 1.66262e-08
34 1 0.001 -0.0128843 0 -0.0257548 -1.09115e-06 0 -9.3553e-07 9.28531e-07 1.72041e-08
181 2 0.001 -0.00973161 0 -0.0268436 -4.00929e-06 0 1.32055e-06 7.26765e-07 2.17713e-08
182 2 0.001 -0.00944651 0 -0.0262763 -4.44962e-06 0 1.7758e-06 8.75792e-07 2.24112e-08
330 3 0.001 -0.006582 0 -0.0266539 4.1457e-06 0 -3.22638e-06 6.62172e-07 3.20076e-08
331 3 0.001 -0.00637933 0 -0.0260529 4.71273e-06 0 -3.35804e-06 7.79057e-07 3.26198e-08
478 4 0.001 -0.00414125 0 -0.0271092 6.82407e-07 0 -1.66603e-07 2.34871e-07 9.25434e-09
479 4 0.001 -0.00401649 0 -0.0264858 2.08982e-06 0 -3.38681e-07 2.8622e-07 9.39682e-09
480 4 0.001 -0.00390227 0 -0.0258603 3.26621e-06 0 -4.55395e-07 3.40617e-07 9.54884e-09
628 5 0.001 -0.000936332 0 -0.0267978 -2.7304e-06 0 1.95772e-07 1.78369e-07 7.34939e-09
629 5 0.001 -0.000908889 0 -0.0261624 -3.36175e-06 0 3.93294e-07 2.05253e-07 7.41548e-09
778 6 0.001 0.00260805 0 -0.0267251 -5.24162e-07 0 8.06016e-07 1.74026e-07 7.4563e-09
779 6 0.001 0.00255042 0 -0.0260917 -2.64701e-07 0 7.2294e-07 1.87644e-07 7.48885e-09
928 7 0.001 0.00623189 0 -0.0267947 2.28687e-07 0 1.39725e-07 1.67434e-07 6.44e-09
929 7 0.001 0.00609584 0 -0.0261733 3.43323e-07 0 2.067e-07 1.69814e-07 6.44532e-09
1078 8 0.001 0.00989327 0 -0.026993 -7.4334e-07 0 -1.06107e-06 1.56024e-07 4.88778e-09
1079 8 0.001 0.00968372 0 -0.0263922 -3.14304e-07 0 -9.64157e-07 1.48591e-07 4.87387e-09
1080 8 0.001 0.00946688 0 -0.0257939 1.15464e-07 0 -8.60296e-07 1.40633e-07 4.85898e-09
1231 9 0.001 0.0126367 0 -0.025632 -1.42784e-07 0 1.48891e-07 8.14317e-08 2.92255e-09
1230 9 0.001 0.012928 0 -0.026198 -5.41561e-07 0 -8.84557e-08 9.5378e-08 2.94439e-09
1229 9 0.001 0.0132138 0 -0.0267669 -9.18673e-07 0 -3.08148e-07 1.10043e-07 2.9674e-09
1381 10 0.001 0.016942 0 -0.025872 -1.47756e-07 0 -6.69852e-08 5.35648e-08 2.16695e-09
1380 10 0.001 0.0172593 0 -0.0264241 -1.57822e-07 0 -7.11923e-08 6.80275e-08 2.1863e-09
1379 10 0.001 0.0175721 0 -0.0269787 -1.60911e-07 0 -6.98831e-08 8.399e-08 2.20776e-09
35 1 0.001 -0.0125757 0 -0.0251996 -1.01558e-06 0 -1.12005e-06 1.08687e-06 1.78108e-08
36 1 0.001 -0.0122856 0 -0.0246347 -9.05333e-07 0 -1.298e-06 1.24697e-06 1.84352e-08
183 2 0.001 -0.00917829 0 -0.0257009 -4.59964e-06 0 2.08377e-06 1.02891e-06 2.30773e-08
184 2 0.001 -0.00892864 0 -0.0251173 -4.47861e-06 0 2.25361e-06 1.18275e-06 2.37554e-08
185 2 0.001 -0.00869919 0 -0.0245254 -4.08751e-06 0 2.29582e-06 1.33385e-06 2.44299e-08
332 3 0.001 -0.00619349 0 -0.0254464 4.93472e-06 0 -3.35638e-06 8.95194e-07 3.32343e-08
333 3 0.001 -0.00602587 0 -0.0248347 4.80934e-06 0 -3.26533e-06 1.00759e-06 3.3835e-08
334 3 0.001 -0.00587773 0 -0.024218 4.32566e-06 0 -3.07471e-06 1.11331e-06 3.44057e-08
481 4 0.001 -0.00379957 0 -0.0252328 4.13262e-06 0 -4.98393e-07 3.97329e-07 9.70856e-09
482 4 0.001 -0.00370936 0 -0.0246035 4.68078e-06 0 -4.63403e-07 4.55582e-07 9.87396e-09
630 5 0.001 -0.000890531 0 -0.0255267 -3.82075e-06 0 5.79135e-07 2.32696e-07 7.4829e-09
631 5 0.001 -0.000881854 0 -0.0248907 -4.12065e-06 0 7.59349e-07 2.60352e-07 7.5508e-09
632 5 0.001 -0.000883419 0 -0.0242547 -4.19782e-06 0 9.26289e-07 2.87873e-07 7.61829e-09
782 6 0.001 0.00232448 0 -0.0241973 6.04368e-07 0 5.35666e-07 2.23967e-07 7.57658e-09
780 6 0.001 0.00248413 0 -0.0254592 3.76382e-08 0 6.45739e-07 2.0061e-07 7.52002e-09
781 6 0.001 0.0024089 0 -0.0248276 3.38329e-07 0 5.91158e-07 2.12766e-07 7.54939e-09
930 7 0.001 0.00595171 0 -0.0255537 4.62422e-07 0 3.06144e-07 1.71263e-07 6.44843e-09
932 7 0.001 0.00563921 0 -0.0243205 6.17771e-07 0 4.8896e-07 1.71315e-07 6.4478e-09
931 7 0.001 0.0057995 0 -0.0249361 5.53216e-07 0 4.02454e-07 1.71765e-07 6.44925e-09
1081 8 0.001 0.00924296 0 -0.0251983 5.17443e-07 0 -7.6073e-07 1.32233e-07 4.8433e-09
1082 8 0.001 0.00901222 0 -0.0246053 8.627e-07 0 -6.73715e-07 1.23475e-07 4.82698e-09
1232 9 0.001 0.0123403 0 -0.0250686 2.467e-07 0 3.87312e-07 6.83136e-08 2.90204e-09
1233 9 0.001 0.0120393 0 -0.0245077 5.98415e-07 0 6.08643e-07 5.61253e-08 2.88301e-09
1382 10 0.001 0.0166207 0 -0.0253223 -1.30569e-07 0 -5.80382e-08 4.06971e-08 2.1498e-09
1384 10 0.001 0.0159683 0 -0.0242287 -7.62688e-08 0 -2.80844e-08 2.00722e-08 2.12244e-09
1383 10 0.001 0.016296 0 -0.0247746 -1.06563e-07 0 -4.5418e-08 2.95086e-08 2.13494e-09
37 1 0.001 -0.0120155 0 -0.0240599 -8.09237e-07 0 -1.44635e-06 1.40567e-06 1.9065e-08
38 1 0.001 -0.0117672 0 -0.0234754 -7.29803e-07 0 -1.58973e-06 1.55975e-06 1.96869e-08
39 1 0.001 -0.0115421 0 -0.0228816 -7.00389e-07 0 -1.73344e-06 1.70599e-06 2.0287e-08
186 2 0.001 -0.00849149 0 -0.0239257 -3.44014e-06 0 2.24094e-06 1.47876e-06 2.50846e-08
187 2 0.001 -0.008307 0 -0.0233184 -2.57186e-06 0 2.14549e-06 1.61413e-06 2.5703e-08
335 3 0.001 -0.00575025 0 -0.0235968 3.49505e-06 0 -2.83036e-06 1.20953e-06 3.49301e-08
336 3 0.001 -0.00564445 0 -0.0229715 2.39859e-06 0 -2.56821e-06 1.29366e-06 3.53931e-08
483 4 0.001 -0.00363259 0 -0.0239724 4.89262e-06 0 -3.75182e-07 5.14569e-07 1.00429e-08
484 4 0.001 -0.00357012 0 -0.0233397 4.78623e-06 0 -2.48408e-07 5.73457e-07 1.02129e-08
485 4 0.001 -0.0035228 0 -0.0227057 4.3736e-06 0 -1.07782e-07 6.31403e-07 1.03816e-08
633 5 0.001 -0.000895758 0 -0.0236189 -4.06688e-06 0 1.09447e-06 3.14911e-07 7.68448e-09
634 5 0.001 -0.000919361 0 -0.0229833 -3.65283e-06 0 1.2713e-06 3.41125e-07 7.7485e-09