ITEM: TIMESTEP
1400000
ITEM: NUMBER OF ATOMS
1500
ITEM: BOX BOUNDS ff ff ff
-2.5000000000000001e-02 2.5000000000000001e-02
-5.0000000000000001e-03 5.0000000000000001e-03
-5.0000000000000003e-02 5.0000000000000003e-02
ITEM: ATOMS id type radius x y z fx fy fz c_bendingE c_stretchingE
1 1 0.001 -0.0225 0 -0.04484 -0.12629 0 -3.8e-09 5.38473e-07 1.59293e-34
2 1 0.001 -0.0225 0 -0.0442024 0.126374 0 -0.0158275 1.07086e-06 1.03773e-08
151 2 0.001 -0.0175 0 -0.04484 -0.115635 0 -3.8e-09 4.51413e-07 1.59293e-34
152 2 0.001 -0.0175 0 -0.0442024 0.115746 0 -0.0182964 8.9676e-07 1.38706e-08
301 3 0.001 -0.0125 0 -0.04484 -0.0929095 0 -3.8e-09 2.91384e-07 1.59293e-34
302 3 0.001 -0.0125 0 -0.0442024 0.0947258 0 -0.0159577 5.68659e-07 1.04902e-08
451 4 0.001 -0.0075 0 -0.04484 -0.0557601 0 -3.8e-09 1.04938e-07 1.59293e-34
452 4 0.001 -0.0075 0 -0.0442024 0.0579874 0 -0.0106813 2.01002e-07 4.69944e-09
601 5 0.001 -0.0025 0 -0.04484 -0.0300894 0 -3.8e-09 3.05553e-08 1.59293e-34
602 5 0.001 -0.0025 0 -0.0442024 0.0324897 0 -0.00903912 5.628e-08 3.37405e-09
751 6 0.001 0.0025 0 -0.04484 -0.0034102 0 -3.8e-09 3.92475e-10 1.59293e-34
752 6 0.001 0.0025 0 -0.0442024 0.00567154 0 -0.00918077 4.36669e-10 3.49681e-09
901 7 0.001 0.0075 0 -0.04484 0.026787 0 -3.8e-09 2.42162e-08 1.59293e-34
902 7 0.001 0.0075 0 -0.0442024 -0.025748 0 -0.00745871 5.02247e-08 2.31457e-09
1051 8 0.001 0.0125 0 -0.04484 0.0591994 0 -3.8e-09 1.18284e-07 1.59293e-34
1052 8 0.001 0.0125 0 -0.0442024 -0.0589383 0 -0.00581796 2.37173e-07 1.40691e-09
1201 9 0.001 0.0175 0 -0.04484 0.0632374 0 -3.8e-09 1.34972e-07 1.59293e-34
1202 9 0.001 0.0175 0 -0.0442024 -0.0632228 0 -0.00586794 2.69504e-07 1.42884e-09
1351 10 0.001 0.0225 0 -0.04484 0.0634817 0 -3.8e-09 1.36016e-07 1.59293e-34
1352 10 0.001 0.0225 0 -0.0442024 -0.063487 0 -0.00582674 2.71508e-07 1.40866e-09
3 1 0.001 -0.0224745 0 -0.043568 -1.74671e-06 0 -4.35203e-07 1.59192e-06 2.07013e-08
4 1 0.001 -0.0224238 0 -0.042935 -4.44771e-06 0 -5.15859e-07 1.55823e-06 2.05639e-08
153 2 0.001 -0.0174767 0 -0.0435683 5.27274e-07 0 -1.02905e-06 1.33098e-06 2.7681e-08
154 2 0.001 -0.0174303 0 -0.0429354 1.72895e-06 0 -1.75405e-06 1.29787e-06 2.75262e-08
303 3 0.001 -0.0124813 0 -0.0435677 -4.47585e-06 0 -1.42955e-06 8.29494e-07 2.08874e-08
304 3 0.001 -0.0124443 0 -0.0429339 -1.25669e-05 0 -2.03592e-06 7.80561e-07 2.069e-08
453 4 0.001 -0.00748874 0 -0.0435667 1.87328e-06 0 2.77657e-06 2.87962e-07 9.35894e-09
454 4 0.001 -0.00746671 0 -0.0429313 4.73717e-06 0 5.25252e-06 2.60768e-07 9.27623e-09
603 5 0.001 -0.00249392 0 -0.0435664 -3.1054e-06 0 -2.66043e-06 7.74613e-08 6.73356e-09
604 5 0.001 -0.00248227 0 -0.0429304 -8.04768e-06 0 -5.24617e-06 6.38886e-08 6.70767e-09
753 6 0.001 0.00250069 0 -0.0435664 -5.23469e-06 0 -7.14829e-08 4.78973e-10 6.99305e-09
754 6 0.001 0.00250161 0 -0.0429303 -1.45188e-05 0 -2.51595e-08 4.68825e-10 6.99311e-09
903 7 0.001 0.00749459 0 -0.0435661 4.19155e-06 0 5.91425e-07 7.79704e-08 4.63397e-09
904 7 0.001 0.00748356 0 -0.0429298 1.09582e-05 0 1.17193e-06 8.31795e-08 4.64322e-09
1053 8 0.001 0.012488 0 -0.0435659 -1.19024e-06 0 -1.57874e-07 3.56225e-07 2.81476e-09
1054 8 0.001 0.0124641 0 -0.0429297 -3.24011e-06 0 -3.54945e-07 3.56705e-07 2.81564e-09
1203 9 0.001 0.0174872 0 -0.0435659 -6.28248e-08 0 -1.03521e-08 4.03097e-07 2.8561e-09
1204 9 0.001 0.0174617 0 -0.0429298 -1.91156e-07 0 -5.96737e-09 4.00288e-07 2.8518e-09
1353 10 0.001 0.0224872 0 -0.0435659 2.41977e-08 0 -2.00598e-08 4.05977e-07 2.81556e-09
1354 10 0.001 0.0224615 0 -0.0429298 7.56659e-08 0 -8.81172e-09 4.02916e-07 2.81092e-09
5 1 0.001 -0.0223481 0 -0.0423046 -7.33562e-06 0 -5.5873e-07 1.50975e-06 2.03674e-08
6 1 0.001 -0.022248 0 -0.0416775 -9.80284e-06 0 -7.17921e-07 1.44756e-06 2.01177e-08
7 1 0.001 -0.0221241 0 -0.0410547 -1.14044e-05 0 -1.03057e-06 1.37303e-06 1.9822e-08
155 2 0.001 -0.0173611 0 -0.0423047 3.08068e-06 0 -2.72186e-06 1.25049e-06 2.73058e-08
156 2 0.001 -0.0172697 0 -0.0416767 4.37553e-06 0 -4.04723e-06 1.18994e-06 2.70264e-08
157 2 0.001 -0.0171566 0 -0.0410523 5.90743e-06 0 -5.42868e-06 1.11765e-06 2.66958e-08
305 3 0.001 -0.0123896 0 -0.0423013 -2.18332e-05 0 -2.47659e-06 7.25827e-07 2.04736e-08
306 3 0.001 -0.0123179 0 -0.0416703 -3.09854e-05 0 -3.10739e-06 6.66537e-07 2.0245e-08
307 3 0.001 -0.01223 0 -0.0410415 -3.81341e-05 0 -3.58335e-06 6.03983e-07 2.00103e-08
455 4 0.001 -0.00743444 0 -0.0422962 7.65386e-06 0 7.76714e-06 2.33238e-07 9.18826e-09
456 4 0.001 -0.00739249 0 -0.0416618 1.03511e-05 0 1.02557e-05 2.0573e-07 9.09596e-09
457 4 0.001 -0.00734147 0 -0.041028 1.1794e-05 0 1.268e-05 1.78613e-07 9.00047e-09
605 5 0.001 -0.00246555 0 -0.0422945 -1.35218e-05 0 -7.94972e-06 5.13438e-08 6.68846e-09
606 5 0.001 -0.00244431 0 -0.0416588 -1.86362e-05 0 -1.06411e-05 3.99775e-08 6.67644e-09
607 5 0.001 -0.00241907 0 -0.0410232 -2.17255e-05 0 -1.32782e-05 2.99132e-08 6.67183e-09
755 6 0.001 0.0025023 0 -0.0422942 -2.59065e-05 0 -1.52187e-07 1.47408e-09 6.99569e-09
756 6 0.001 0.00250232 0 -0.0416582 -3.81986e-05 0 -5.01987e-07 3.44972e-09 7.00094e-09
757 6 0.001 0.0025012 0 -0.0410221 -4.97465e-05 0 -8.1051e-07 6.31969e-09 7.00872e-09
905 7 0.001 0.00746675 0 -0.0422937 1.91395e-05 0 1.81583e-06 8.82207e-08 4.65173e-09
906 7 0.001 0.00744397 0 -0.0416578 2.72568e-05 0 2.6152e-06 9.3099e-08 4.65957e-09
907 7 0.001 0.00741506 0 -0.0410221 3.45976e-05 0 3.39447e-06 9.78268e-08 4.66685e-09
1055 8 0.001 0.0124281 0 -0.0422941 -5.84663e-06 0 -6.33172e-07 3.55827e-07 2.81453e-09
1056 8 0.001 0.0123802 0 -0.0416593 -8.76501e-06 0 -9.78572e-07 3.53571e-07 2.81133e-09
1057 8 0.001 0.0123203 0 -0.0410255 -1.17501e-05 0 -1.37004e-06 3.49918e-07 2.80597e-09
1206 9 0.001 0.0173725 0 -0.0416598 -5.52614e-07 0 -1.29798e-08 3.90285e-07 2.83647e-09
1207 9 0.001 0.0173092 0 -0.0410263 -7.58017e-07 0 -1.19476e-08 3.83164e-07 2.82556e-09
1205 9 0.001 0.0174234 0 -0.0422944 -3.58447e-07 0 -1.37838e-08 3.96007e-07 2.84524e-09
1355 10 0.001 0.0224231 0 -0.0422944 1.3634e-07 0 -1.33089e-10 3.9839e-07 2.80405e-09
1356 10 0.001 0.0223721 0 -0.0416598 1.87719e-07 0 2.19357e-08 3.92434e-07 2.79501e-09
1357 10 0.001 0.0223085 0 -0.0410264 2.17071e-07 0 4.16297e-08 3.85096e-07 2.78389e-09
8 1 0.001 -0.0219772 0 -0.0404369 -1.19786e-05 0 -1.75214e-06 1.28773e-06 1.9488e-08
9 1 0.001 -0.0218083 0 -0.0398247 -1.15421e-05 0 -2.90063e-06 1.1934e-06 1.91241e-08
158 2 0.001 -0.0170228 0 -0.0404319 6.99777e-06 0 -6.68058e-06 1.03533e-06 2.63227e-08
159 2 0.001 -0.016869 0 -0.0398162 7.83429e-06 0 -8.00821e-06 9.44886e-07 2.59168e-08
308 3 0.001 -0.0121266 0 -0.0404149 -4.21363e-05 0 -4.24849e-06 5.39459e-07 1.97749e-08
309 3 0.001 -0.0120088 0 -0.0397909 -4.20185e-05 0 -5.50162e-06 4.74212e-07 1.95436e-08
458 4 0.001 -0.007282 0 -0.0403949 1.18244e-05 0 1.5e-05 1.5226e-07 8.90315e-09
459 4 0.001 -0.00721475 0 -0.0397626 1.02743e-05 0 1.73548e-05 1.27046e-07 8.80538e-09
608 5 0.001 -0.0023904 0 -0.0403877 -2.34481e-05 0 -1.55673e-05 2.12464e-08 6.67448e-09
609 5 0.001 -0.00235883 0 -0.0397524 -2.38034e-05 0 -1.7625e-05 1.40453e-08 6.68403e-09
758 6 0.001 0.00249853 0 -0.0403861 -5.95023e-05 0 -9.97132e-07 9.97967e-09 7.01855e-09
759 6 0.001 0.00249387 0 -0.03975 -6.68044e-05 0 -1.16582e-06 1.43033e-08 7.02991e-09
908 7 0.001 0.00737988 0 -0.0403867 4.05979e-05 0 4.05325e-06 1.02417e-07 4.67381e-09
909 7 0.001 0.00733828 0 -0.0397518 4.49276e-05 0 4.52611e-06 1.0688e-07 4.68072e-09
1058 8 0.001 0.0122487 0 -0.040393 -1.45469e-05 0 -1.79645e-06 3.44866e-07 2.79838e-09
1059 8 0.001 0.0121653 0 -0.0397618 -1.69862e-05 0 -2.22512e-06 3.38423e-07 2.78854e-09
1208 9 0.001 0.0172334 0 -0.0403943 -9.59498e-07 0 -3.0404e-08 3.74698e-07 2.81259e-09
1209 9 0.001 0.0171455 0 -0.0397637 -1.14923e-06 0 -5.55862e-08 3.64951e-07 2.79769e-09
1358 10 0.001 0.0222325 0 -0.0403943 1.82984e-07 0 2.79293e-08 3.76431e-07 2.77079e-09
1359 10 0.001 0.0221443 0 -0.0397638 6.40331e-08 0 6.18223e-09 3.66506e-07 2.75583e-09
10 1 0.001 -0.0216184 0 -0.0392187 -9.67239e-06 0 -4.41441e-06 1.09193e-06 1.87387e-08
11 1 0.001 -0.0214085 0 -0.0386193 -6.41499e-06 0 -6.39091e-06 9.8529e-07 1.83398e-08
12 1 0.001 -0.0211799 0 -0.0380267 -1.78233e-06 0 -9.07139e-06 8.755e-07 1.79352e-08
160 2 0.001 -0.0166964 0 -0.0392054 7.91747e-06 0 -8.86724e-06 8.48446e-07 2.54883e-08
161 2 0.001 -0.0165062 0 -0.0385999 6.83065e-06 0 -9.48433e-06 7.48252e-07 2.50479e-08
162 2 0.001 -0.0162994 0 -0.0379998 5.09184e-06 0 -9.84719e-06 6.46628e-07 2.46068e-08
310 3 0.001 -0.0118774 0 -0.0391696 -3.79504e-05 0 -7.50541e-06 4.09427e-07 1.93206e-08
311 3 0.001 -0.0117335 0 -0.0385511 -3.12844e-05 0 -1.00598e-05 3.46221e-07 1.91096e-08
312 3 0.001 -0.0115781 0 -0.0379353 -2.31852e-05 0 -1.32504e-05 2.85649e-07 1.89141e-08
460 4 0.001 -0.0071404 0 -0.0391311 7.40906e-06 0 1.97793e-05 1.03337e-07 8.70842e-09
461 4 0.001 -0.00705967 0 -0.0385004 3.35708e-06 0 2.22549e-05 8.14799e-08 8.61346e-09
462 4 0.001 -0.00697328 0 -0.0378703 -7.94632e-07 0 2.47186e-05 6.17913e-08 8.52157e-09
610 5 0.001 -0.00232493 0 -0.0391172 -2.28345e-05 0 -1.97011e-05 8.35526e-09 6.70032e-09
611 5 0.001 -0.00228926 0 -0.0384821 -2.03642e-05 0 -2.1585e-05 4.20257e-09 6.72315e-09
612 5 0.001 -0.00225237 0 -0.0378471 -1.63839e-05 0 -2.35096e-05 1.59761e-09 6.75229e-09
760 6 0.001 0.00248683 0 -0.039114 -7.06718e-05 0 -1.27934e-06 1.91513e-08 7.04229e-09
762 6 0.001 0.00246407 0 -0.0378421 -6.60469e-05 0 -1.59964e-06 2.98596e-08 7.06863e-09
761 6 0.001 0.00247702 0 -0.038478 -7.04318e-05 0 -1.36118e-06 2.43814e-08 7.05526e-09
910 7 0.001 0.00729013 0 -0.0391173 4.66755e-05 0 4.72432e-06 1.11216e-07 4.6878e-09
912 7 0.001 0.00717368 0 -0.0378499 4.23079e-05 0 4.65102e-06 1.1944e-07 4.70247e-09
911 7 0.001 0.0072353 0 -0.0384833 4.57394e-05 0 4.77018e-06 1.15412e-07 4.6951e-09
1060 8 0.001 0.0120703 0 -0.0391323 -1.89533e-05 0 -2.61737e-06 3.30616e-07 2.77645e-09
1061 8 0.001 0.0119639 0 -0.0385047 -2.02571e-05 0 -2.95564e-06 3.2149e-07 2.76218e-09
1062 8 0.001 0.0118463 0 -0.037879 -2.08149e-05 0 -3.18052e-06 3.1111e-07 2.74581e-09
1210 9 0.001 0.0170455 0 -0.039135 -1.29803e-06 0 -6.34931e-08 3.53996e-07 2.78097e-09
1211 9 0.001 0.0169337 0 -0.0385083 -1.41041e-06 0 -7.69322e-08 3.41917e-07 2.76258e-09
1212 9 0.001 0.0168104 0 -0.0378837 -1.49699e-06 0 -1.05997e-07 3.28805e-07 2.74267e-09
1362 10 0.001 0.0218083 0 -0.0378839 -7.23613e-07 0 -1.28359e-07 3.29958e-07 2.70107e-09
1361 10 0.001 0.021932 0 -0.0385084 -4.14645e-07 0 -6.5447e-08 3.43183e-07 2.72083e-09
1360 10 0.001 0.022044 0 -0.0391351 -1.4419e-07 0 -1.96494e-08 3.55396e-07 2.73913e-09
13 1 0.001 -0.020934 0 -0.0374411 3.40368e-06 0 -1.22359e-05 7.64608e-07 1.7533e-08
14 1 0.001 -0.0206719 0 -0.0368625 8.69591e-06 0 -1.57504e-05 6.54657e-07 1.71406e-08
163 2 0.001 -0.0160775 0 -0.0374052 3.10665e-06 0 -9.7508e-06 5.45913e-07 2.41752e-08
164 2 0.001 -0.0158418 0 -0.0368158 8.51208e-09 0 -8.99929e-06 4.48403e-07 2.37627e-08
313 3 0.001 -0.0114124 0 -0.0373222 -1.43708e-05 0 -1.66091e-05 2.28715e-07 1.87373e-08
314 3 0.001 -0.0112375 0 -0.0367117 -5.75551e-06 0 -2.00531e-05 1.76372e-07 1.8582e-08
463 4 0.001 -0.00688198 0 -0.037241 -4.87267e-06 0 2.66407e-05 4.45469e-08 8.434e-09
464 4 0.001 -0.00678654 0 -0.0366123 -8.36755e-06 0 2.81807e-05 2.99748e-08 8.35207e-09
613 5 0.001 -0.00221482 0 -0.0372121 -1.14949e-05 0 -2.52642e-05 5.38883e-10 6.78754e-09
614 5 0.001 -0.00217717 0 -0.0365772 -6.48817e-06 0 -2.67957e-05 1.01616e-09 6.82856e-09
764 6 0.001 0.00242748 0 -0.0365705 -4.61121e-05 0 -1.67303e-06 4.1115e-08 7.09591e-09
763 6 0.001 0.00244767 0 -0.0372063 -5.79151e-05 0 -1.66377e-06 3.54686e-08 7.08223e-09
914 7 0.001 0.00702961 0 -0.0365855 3.0437e-05 0 3.57704e-06 1.26795e-07 4.7169e-09
913 7 0.001 0.00710515 0 -0.0372173 3.71861e-05 0 4.24356e-06 1.23254e-07 4.70979e-09
1063 8 0.001 0.0117177 0 -0.0372555 -2.05804e-05 0 -3.21922e-06 2.99559e-07 2.7275e-09
1064 8 0.001 0.0115783 0 -0.0366343 -1.95962e-05 0 -3.08909e-06 2.86941e-07 2.70739e-09
1213 9 0.001 0.0166758 0 -0.0372615 -1.54163e-06 0 -1.04974e-07 3.14761e-07 2.72142e-09
1214 9 0.001 0.0165302 0 -0.0366417 -1.51802e-06 0 -9.06941e-08 2.99893e-07 2.69899e-09
1363 10 0.001 0.0216733 0 -0.0372618 -1.02482e-06 0 -1.72949e-07 3.15818e-07 2.68001e-09
1364 10 0.001 0.0215274 0 -0.0366421 -1.29719e-06 0 -2.20918e-07 3.00866e-07 2.65779e-09
15 1 0.001 -0.0203952 0 -0.0362908 1.36638e-05 0 -1.93546e-05 5.47671e-07 1.67653e-08
16 1 0.001 -0.0201052 0 -0.0357256 1.77248e-05 0 -2.25121e-05 4.45623e-07 1.64136e-08
17 1 0.001 -0.0198033 0 -0.0351666 2.10881e-05 0 -2.53734e-05 3.50413e-07 1.60914e-08
165 2 0.001 -0.0155937 0 -0.0362315 -3.68181e-06 0 -7.7895e-06 3.56294e-07 2.33786e-08
166 2 0.001 -0.0153346 0 -0.0356519 -7.96973e-06 0 -6.17518e-06 2.71635e-07 2.3031e-08
167 2 0.001 -0.0150661 0 -0.0350767 -1.25353e-05 0 -4.24968e-06 1.96275e-07 2.27272e-08
315 3 0.001 -0.0110546 0 -0.0361035 1.81072e-06 0 -2.30943e-05 1.29523e-07 1.84509e-08
316 3 0.001 -0.0108648 0 -0.0354974 8.26276e-06 0 -2.55982e-05 8.90061e-08 1.83462e-08
317 3 0.001 -0.0106694 0 -0.0348931 1.24599e-05 0 -2.72491e-05 5.55864e-08 1.82699e-08
465 4 0.001 -0.00668771 0 -0.0359841 -1.08337e-05 0 2.94448e-05 1.82522e-08 8.27656e-09
466 4 0.001 -0.00658628 0 -0.0353563 -1.17223e-05 0 3.00446e-05 9.50568e-09 8.20816e-09
615 5 0.001 -0.00213997 0 -0.0359422 -1.86857e-06 0 -2.80907e-05 3.01214e-09 6.87502e-09
616 5 0.001 -0.00210377 0 -0.0353071 1.62652e-06 0 -2.90887e-05 6.50189e-09 6.92658e-09
766 6 0.001 0.00237463 0 -0.0352996 -1.41366e-05 0 -1.22424e-06 5.22877e-08 7.12383e-09
765 6 0.001 0.00240323 0 -0.035935 -3.1312e-05 0 -1.60758e-06 4.67333e-08 7.10977e-09
916 7 0.001 0.00685716 0 -0.0353246 1.4021e-05 0 1.47882e-06 1.32763e-07 4.72969e-09
915 7 0.001 0.00694697 0 -0.0359545 2.24947e-05 0 2.68184e-06 1.29991e-07 4.7236e-09
1067 8 0.001 0.0110984 0 -0.0347858 -1.29637e-05 0 -1.73035e-06 2.43953e-07 2.63886e-09
1066 8 0.001 0.0112684 0 -0.0353994 -1.56533e-05 0 -2.34516e-06 2.58999e-07 2.6628e-09
1065 8 0.001 0.0114284 0 -0.0360155 -1.79068e-05 0 -2.79498e-06 2.73376e-07 2.68573e-09
1215 9 0.001 0.0163739 0 -0.0360246 -1.40491e-06 0 -6.55155e-08 2.84313e-07 2.67557e-09
1216 9 0.001 0.0162072 0 -0.0354101 -1.19735e-06 0 -7.23617e-09 2.68143e-07 2.65136e-09
1217 9 0.001 0.0160305 0 -0.0347985 -9.18128e-07 0 8.28249e-08 2.51504e-07 2.62655e-09
1365 10 0.001 0.0213707 0 -0.036025 -1.50284e-06 0 -2.65635e-07 2.85212e-07 2.63461e-09
1366 10 0.001 0.0212036 0 -0.0354107 -1.63438e-06 0 -2.90565e-07 2.68973e-07 2.61063e-09
1367 10 0.001 0.0210265 0 -0.0347992 -1.70513e-06 0 -2.89429e-07 2.52269e-07 2.58605e-09
18 1 0.001 -0.0194911 0 -0.0346133 2.30173e-05 0 -2.73189e-05 2.63836e-07 1.58044e-08
19 1 0.001 -0.0191701 0 -0.0340651 2.28953e-05 0 -2.81674e-05 1.87555e-07 1.55574e-08
20 1 0.001 -0.0188416 0 -0.0335213 2.04382e-05 0 -2.75008e-05 1.23069e-07 1.5355e-08
168 2 0.001 -0.0147897 0 -0.0345052 -1.69324e-05 0 -2.25036e-06 1.31823e-07 2.24734e-08
169 2 0.001 -0.0145068 0 -0.0339368 -2.02131e-05 0 -5.36029e-07 7.9612e-08 2.22742e-08
170 2 0.001 -0.014219 0 -0.033371 -2.17581e-05 0 3.85432e-07 4.06769e-08 2.21329e-08
318 3 0.001 -0.0104696 0 -0.0342902 1.30779e-05 0 -2.75796e-05 2.99333e-08 1.82242e-08
319 3 0.001 -0.0102667 0 -0.0336884 1.11066e-05 0 -2.70725e-05 1.25977e-08 1.82109e-08
467 4 0.001 -0.00648302 0 -0.0347288 -1.04723e-05 0 3.00249e-05 3.81331e-09 8.14751e-09
468 4 0.001 -0.00637872 0 -0.0341015 -6.86086e-06 0 2.93477e-05 1.21093e-09 8.09504e-09
469 4 0.001 -0.00627415 0 -0.0334742 -1.36738e-06 0 2.81317e-05 1.70028e-09 8.05101e-09
617 5 0.001 -0.00206913 0 -0.034672 3.23889e-06 0 -2.97664e-05 1.14501e-08 6.9829e-09
618 5 0.001 -0.0020366 0 -0.0340368 2.77832e-06 0 -3.00805e-05 1.78066e-08 7.04357e-09
619 5 0.001 -0.0020067 0 -0.0334014 4.11508e-07 0 -2.9832e-05 2.55013e-08 7.10793e-09
769 6 0.001 0.00226043 0 -0.0333949 3.91465e-05 0 1.25372e-06 6.85958e-08 7.16787e-09
767 6 0.001 0.00234146 0 -0.0346644 4.18388e-06 0 -6.13143e-07 5.77701e-08 7.13813e-09
768 6 0.001 0.00230346 0 -0.0340295 2.21739e-05 0 2.92871e-07 6.31957e-08 7.15275e-09
917 7 0.001 0.0067601 0 -0.0346957 5.65985e-06 0 1.35514e-07 1.35028e-07 4.73502e-09
918 7 0.001 0.00665575 0 -0.034068 -2.37976e-06 0 -1.26807e-06 1.36704e-07 4.73934e-09
919 7 0.001 0.00654407 0 -0.0334415 -9.92341e-06 0 -2.56307e-06 1.37716e-07 4.74233e-09
1068 8 0.001 0.0109189 0 -0.034175 -9.96786e-06 0 -9.97617e-07 2.28392e-07 2.61421e-09
1069 8 0.001 0.0107303 0 -0.0335669 -6.85854e-06 0 -1.91934e-07 2.1247e-07 2.58916e-09
1219 9 0.001 0.0156485 0 -0.0335839 -1.82408e-07 0 2.81115e-07 2.17337e-07 2.57597e-09
1218 9 0.001 0.0158441 0 -0.0341897 -5.74904e-07 0 1.75544e-07 2.34526e-07 2.60135e-09
1368 10 0.001 0.0208397 0 -0.0341905 -1.69899e-06 0 -2.83527e-07 2.35223e-07 2.56105e-09
1369 10 0.001 0.0206436 0 -0.0335848 -1.62367e-06 0 -2.6004e-07 2.17962e-07 2.53584e-09
21 1 0.001 -0.0185072 0 -0.0329811 1.55959e-05 0 -2.52659e-05 7.16769e-08 1.52012e-08
22 1 0.001 -0.0181685 0 -0.0324436 8.82272e-06 0 -2.15639e-05 3.44391e-08 1.5099e-08
23 1 0.001 -0.0178268 0 -0.031908 2.67337e-08 0 -1.66125e-05 1.21384e-08 1.50508e-08
171 2 0.001 -0.0139278 0 -0.0328068 -2.15851e-05 0 4.29518e-07 1.57444e-08 2.2052e-08
172 2 0.001 -0.0136348 0 -0.0322436 -1.90595e-05 0 -6.57905e-07 5.23574e-09 2.20327e-08
320 3 0.001 -0.0100619 0 -0.0330872 6.53774e-06 0 -2.55308e-05 3.98368e-09 1.82315e-08
321 3 0.001 -0.0098565 0 -0.0324862 1.56153e-07 0 -2.3196e-05 4.32028e-09 1.82869e-08
322 3 0.001 -0.0096518 0 -0.0318849 -7.48646e-06 0 -2.0436e-05 1.36412e-08 1.8377e-08
470 4 0.001 -0.0061701 0 -0.0328468 5.4991e-06 0 2.67129e-05 5.25762e-09 8.01544e-09
471 4 0.001 -0.00606734 0 -0.0322192 1.28365e-05 0 2.47206e-05 1.18405e-08 7.98859e-09
620 5 0.001 -0.00197998 0 -0.032766 -3.29373e-06 0 -2.91682e-05 3.44402e-08 7.17512e-09
621 5 0.001 -0.00195696 0 -0.0321303 -7.45086e-06 0 -2.82354e-05 4.45041e-08 7.24436e-09
770 6 0.001 0.00221215 0 -0.0327607 5.40372e-05 0 1.93477e-06 7.40108e-08 7.18403e-09
771 6 0.001 0.00215843 0 -0.0321269 6.58998e-05 0 2.45254e-06 7.94816e-08 7.20177e-09
920 7 0.001 0.00642506 0 -0.0328164 -1.61804e-05 0 -3.67996e-06 1.37998e-07 4.74366e-09
921 7 0.001 0.00629872 0 -0.0321928 -2.0834e-05 0 -4.6047e-06 1.37502e-07 4.74314e-09
1070 8 0.001 0.0105327 0 -0.0329617 -3.7879e-06 0 6.50554e-07 1.96343e-07 2.56398e-09
1071 8 0.001 0.0103268 0 -0.0323593 -8.92788e-07 0 1.47398e-06 1.80162e-07 2.53894e-09
1072 8 0.001 0.0101128 0 -0.0317596 1.71567e-06 0 2.20715e-06 1.64071e-07 2.51431e-09
1220 9 0.001 0.015444 0 -0.032981 2.30656e-07 0 3.95579e-07 2.00067e-07 2.55062e-09
1222 9 0.001 0.0150098 0 -0.031784 9.77905e-07 0 6.32842e-07 1.65796e-07 2.50074e-09
1221 9 0.001 0.0152309 0 -0.032381 6.31255e-07 0 5.19665e-07 1.82844e-07 2.52548e-09
1372 10 0.001 0.0200035 0 -0.0317853 -9.89177e-07 0 -3.95107e-08 1.66164e-07 2.46083e-09
1371 10 0.001 0.0202251 0 -0.0323822 -1.26768e-06 0 -1.44302e-07 1.83304e-07 2.48554e-09
1370 10 0.001 0.0204386 0 -0.032982 -1.47964e-06 0 -2.17988e-07 2.00613e-07 2.51061e-09
24 1 0.001 -0.0174837 0 -0.0313732 -9.93184e-06 0 -1.09746e-05 5.24824e-09 1.50584e-08
25 1 0.001 -0.0171407 0 -0.0308384 -2.00275e-05 0 -5.16906e-06 1.3909e-08 1.51224e-08
26 1 0.001 -0.0167993 0 -0.0303026 -2.92072e-05 0 3.75041e-07 3.7918e-08 1.52419e-08
173 2 0.001 -0.0133414 0 -0.0316806 -1.448e-05 0 -2.61229e-06 9.2793e-09 2.20749e-08
174 2 0.001 -0.0130492 0 -0.0311169 -7.65629e-06 0 -5.86183e-06 2.77285e-08 2.2178e-08
175 2 0.001 -0.0127598 0 -0.0305519 -1.63413e-07 0 -9.31336e-06 6.0181e-08 2.23408e-08
323 3 0.001 -0.00944906 0 -0.0312831 -1.49726e-05 0 -1.75293e-05 3.17729e-08 1.85013e-08
324 3 0.001 -0.00924956 0 -0.0306801 -2.16885e-05 0 -1.49015e-05 5.83338e-08 1.86581e-08
472 4 0.001 -0.00596664 0 -0.0315913 1.98756e-05 0 2.2296e-05 2.13916e-08 7.97111e-09
473 4 0.001 -0.00586878 0 -0.0309629 2.51658e-05 0 1.99519e-05 3.3837e-08 7.96345e-09
474 4 0.001 -0.00577451 0 -0.030334 2.80383e-05 0 1.80638e-05 4.90817e-08 7.96555e-09
622 5 0.001 -0.00193816 0 -0.0314946 -1.20801e-05 0 -2.7002e-05 5.55489e-08 7.31481e-09
623 5 0.001 -0.00192408 0 -0.0308587 -1.63692e-05 0 -2.56454e-05 6.74084e-08 7.38564e-09
772 6 0.001 0.00209907 0 -0.0314937 7.34947e-05 0 2.79544e-06 8.50411e-08 7.22131e-09
773 6 0.001 0.00203389 0 -0.030861 7.64782e-05 0 2.72372e-06 9.0705e-08 7.24274e-09
922 7 0.001 0.00616508 0 -0.0315706 -2.37396e-05 0 -5.23225e-06 1.36198e-07 4.74072e-09
924 7 0.001 0.00587615 0 -0.0303312 -2.3999e-05 0 -5.1642e-06 1.31163e-07 4.72995e-09
923 7 0.001 0.0060242 0 -0.0309501 -2.47613e-05 0 -5.46434e-06 1.34079e-07 4.73634e-09
1074 8 0.001 0.00966219 0 -0.0305687 5.61806e-06 0 3.27743e-06 1.327e-07 2.46718e-09
1073 8 0.001 0.00989109 0 -0.0311628 3.91626e-06 0 2.81979e-06 1.48208e-07 2.49033e-09
1223 9 0.001 0.014781 0 -0.0311898 1.27743e-06 0 7.30989e-07 1.49047e-07 2.47658e-09
1224 9 0.001 0.0145451 0 -0.0305985 1.53734e-06 0 8.23157e-07 1.32717e-07 2.45316e-09
1373 10 0.001 0.0197743 0 -0.0311914 -6.62825e-07 0 8.01329e-08 1.49317e-07 2.43665e-09
1374 10 0.001 0.0195378 0 -0.0306002 -2.90986e-07 0 2.14551e-07 1.32885e-07 2.41317e-09
27 1 0.001 -0.0164609 0 -0.0297648 -3.6774e-05 0 4.94114e-06 7.67349e-08 1.5415e-08
28 1 0.001 -0.0161272 0 -0.0292243 -4.21506e-05 0 7.9465e-06 1.29503e-07 1.5639e-08
176 2 0.001 -0.0124745 0 -0.0299847 7.643e-06 0 -1.24731e-05 1.05994e-07 2.25606e-08
177 2 0.001 -0.012195 0 -0.0294147 1.46987e-05 0 -1.50299e-05 1.64294e-07 2.28342e-08
178 2 0.001 -0.0119227 0 -0.0288413 2.04864e-05 0 -1.69196e-05 2.3398e-07 2.31579e-08
325 3 0.001 -0.00905457 0 -0.0300757 -2.69276e-05 0 -1.27398e-05 9.27445e-08 1.88453e-08
326 3 0.001 -0.00886532 0 -0.0294695 -2.99732e-05 0 -1.11184e-05 1.34248e-07 1.90598e-08
327 3 0.001 -0.00868304 0 -0.0288611 -3.01126e-05 0 -1.05219e-05 1.8194e-07 1.9298e-08
475 4 0.001 -0.0056846 0 -0.0297044 2.78432e-05 0 1.65056e-05 6.69989e-08 7.97725e-09
476 4 0.001 -0.00559981 0 -0.0290741 2.42798e-05 0 1.49302e-05 8.74196e-08 7.99865e-09
624 5 0.001 -0.0019152 0 -0.0302228 -1.99088e-05 0 -2.4441e-05 7.98987e-08 7.45628e-09
626 5 0.001 -0.0019149 0 -0.0289508 -2.19662e-05 0 -2.14035e-05 1.05993e-07 7.59403e-09
625 5 0.001 -0.001912 0 -0.0295868 -2.1805e-05 0 -2.30503e-05 9.28256e-08 7.52606e-09
774 6 0.001 0.0019627 0 -0.0302289 7.49973e-05 0 2.21718e-06 9.64647e-08 7.26611e-09
776 6 0.001 0.00180157 0 -0.0289671 5.78578e-05 0 -4.12916e-07 1.08086e-07 7.31781e-09
775 6 0.001 0.00188532 0 -0.0295976 6.88083e-05 0 1.18586e-06 1.02282e-07 7.29126e-09
926 7 0.001 0.00555895 0 -0.0290987 -1.75987e-05 0 -3.32662e-06 1.23118e-07 4.71137e-09
925 7 0.001 0.00572102 0 -0.0297141 -2.15236e-05 0 -4.37953e-06 1.27489e-07 4.72155e-09
1075 8 0.001 0.00942648 0 -0.0299773 6.80187e-06 0 3.55871e-06 1.17662e-07 2.44504e-09
1077 8 0.001 0.00893633 0 -0.028802 7.78839e-06 0 3.57655e-06 8.94116e-08 2.40433e-09
1076 8 0.001 0.00918438 0 -0.0293884 7.49189e-06 0 3.64215e-06 1.03201e-07 2.42405e-09
1227 9 0.001 0.0137982 0 -0.0288406 1.97447e-06 0 9.85964e-07 8.73603e-08 2.3888e-09
1226 9 0.001 0.0140532 0 -0.029424 1.9033e-06 0 9.62764e-07 1.01766e-07 2.40913e-09
1225 9 0.001 0.0143023 0 -0.0300099 1.75374e-06 0 9.05679e-07 1.1692e-07 2.43063e-09
1377 10 0.001 0.0187895 0 -0.0288429 8.29391e-07 0 6.49788e-07 8.72423e-08 2.34857e-09
1375 10 0.001 0.0192946 0 -0.0300118 8.59382e-08 0 3.54178e-07 1.16988e-07 2.39057e-09
1376 10 0.001 0.019045 0 -0.0294261 4.60687e-07 0 5.0018e-07 1.01738e-07 2.36899e-09
29 1 0.001 -0.0157995 0 -0.02868 -4.4907e-05 0 9.2631e-06 1.95081e-07 1.59109e-08
30 1 0.001 -0.0154793 0 -0.0281313 -4.49991e-05 0 9.12191e-06 2.72086e-07 1.62261e-08
31 1 0.001 -0.0151682 0 -0.0275774 -4.18953e-05 0 7.25994e-06 3.58938e-07 1.65795e-08
179 2 0.001 -0.0116591 0 -0.0282638 2.49482e-05 0 -1.82529e-05 3.13725e-07 2.35274e-08
180 2 0.001 -0.0114058 0 -0.0276817 2.76346e-05 0 -1.84784e-05 4.01984e-07 2.39371e-08
328 3 0.001 -0.00850893 0 -0.0282504 -2.73653e-05 0 -1.07204e-05 2.34802e-07 1.95562e-08
329 3 0.001 -0.00834416 0 -0.0276371 -2.24909e-05 0 -1.13527e-05 2.91736e-07 1.98302e-08
477 4 0.001 -0.00552088 0 -0.0284431 1.78492e-05 0 1.37473e-05 1.10122e-07 8.02956e-09
478 4 0.001 -0.00544854 0 -0.0278113 9.47081e-06 0 1.27293e-05 1.34825e-07 8.06919e-09
628 5 0.001 -0.00194071 0 -0.0276791 -1.56799e-05 0 -1.74184e-05 1.32305e-07 7.72113e-09
627 5 0.001 -0.00192434 0 -0.0283149 -1.99663e-05 0 -1.9543e-05 1.19211e-07 7.65931e-09
777 6 0.001 0.00171128 0 -0.0283376 4.31935e-05 0 -2.38973e-06 1.13768e-07 7.34504e-09
778 6 0.001 0.00161429 0 -0.027709 2.59335e-05 0 -4.88672e-06 1.19188e-07 7.37215e-09
929 7 0.001 0.00503251 0 -0.0272638 -1.49571e-06 0 1.25554e-06 1.06649e-07 4.67308e-09
928 7 0.001 0.00521452 0 -0.0278736 -7.10235e-06 0 -3.66354e-07 1.12606e-07 4.68682e-09
927 7 0.001 0.00539006 0 -0.0284852 -1.26375e-05 0 -1.91717e-06 1.18127e-07 4.6997e-09
1079 8 0.001 0.00842411 0 -0.0276362 7.50387e-06 0 3.07208e-06 6.41861e-08 2.36909e-09
1078 8 0.001 0.00868276 0 -0.028218 7.75234e-06 0 3.37738e-06 7.63807e-08 2.38598e-09
1228 9 0.001 0.0135378 0 -0.0282595 1.97772e-06 0 9.87292e-07 7.37983e-08 2.36976e-09
1229 9 0.001 0.0132724 0 -0.0276808 1.91168e-06 0 9.42286e-07 6.11708e-08 2.35211e-09
1379 10 0.001 0.0182628 0 -0.0276835 1.43824e-06 0 9.0312e-07 6.0911e-08 2.31171e-09
1378 10 0.001 0.0185287 0 -0.0282621 1.16133e-06 0 7.91563e-07 7.36023e-08 2.32944e-09
32 1 0.001 -0.0148676 0 -0.0270178 -3.62915e-05 0 4.01377e-06 4.53905e-07 1.69658e-08
33 1 0.001 -0.014579 0 -0.026452 -2.8967e-05 0 1.19072e-07 5.55148e-07 1.7379e-08
34 1 0.001 -0.0143037 0 -0.0258796 -2.088e-05 0 -3.85313e-06 6.60749e-07 1.78128e-08
181 2 0.001 -0.0111641 0 -0.0270948 2.843e-05 0 -1.80325e-05 4.97003e-07 2.43805e-08
182 2 0.001 -0.0109356 0 -0.0265026 2.7273e-05 0 -1.66987e-05 5.96828e-07 2.48496e-08
183 2 0.001 -0.0107215 0 -0.0259051 2.45781e-05 0 -1.45715e-05 6.99336e-07 2.5335e-08
330 3 0.001 -0.00818986 0 -0.0270212 -1.63964e-05 0 -1.21679e-05 3.51589e-07 2.01155e-08
331 3 0.001 -0.00804711 0 -0.0264024 -1.01248e-05 0 -1.30717e-05 4.13178e-07 2.04078e-08
332 3 0.001 -0.00791694 0 -0.0257809 -5.02331e-06 0 -1.32921e-05 4.75296e-07 2.07021e-08
479 4 0.001 -0.00538351 0 -0.0271787 -1.29635e-07 0 1.18526e-05 1.61188e-07 8.11651e-09
481 4 0.001 -0.00527817 0 -0.0259112 -1.9034e-05 0 9.33675e-06 2.17274e-07 8.23001e-09
480 4 0.001 -0.0053265 0 -0.0265453 -9.96678e-06 0 1.05783e-05 1.88817e-07 8.17052e-09
631 5 0.001 -0.00203496 0 -0.0257736 5.83654e-06 0 -9.83646e-06 1.69427e-07 7.88051e-09
629 5 0.001 -0.00196438 0 -0.0270436 -9.45937e-06 0 -1.50059e-05 1.45121e-07 7.77882e-09
630 5 0.001 -0.00199569 0 -0.0264083 -2.01408e-06 0 -1.24658e-05 1.57531e-07 7.832e-09
779 6 0.001 0.00151045 0 -0.0270815 7.78505e-06 0 -7.59845e-06 1.2418e-07 7.39832e-09
781 6 0.001 0.00128174 0 -0.0258302 -2.6884e-05 0 -1.32915e-05 1.32158e-07 7.44437e-09
780 6 0.001 0.00139964 0 -0.0264552 -1.0385e-05 0 -1.04687e-05 1.28564e-07 7.42265e-09
931 7 0.001 0.00464986 0 -0.0260501 8.79961e-06 0 4.32464e-06 9.38207e-08 4.64407e-09
930 7 0.001 0.00484422 0 -0.026656 4.00788e-06 0 2.9453e-06 1.00356e-07 4.65872e-09
1080 8 0.001 0.00816083 0 -0.0270565 7.20523e-06 0 2.74814e-06 5.28984e-08 2.35372e-09
1082 8 0.001 0.00762215 0 -0.0259026 6.66022e-06 0 2.15003e-06 3.32939e-08 2.32782e-09
1081 8 0.001 0.00789336 0 -0.0264787 6.91114e-06 0 2.43319e-06 4.25818e-08 2.33995e-09
1232 9 0.001 0.0124512 0 -0.0259563 1.29226e-06 0 5.97152e-07 2.96836e-08 2.3085e-09
1231 9 0.001 0.0127286 0 -0.0265293 1.55292e-06 0 7.45419e-07 3.90421e-08 2.3214e-09
1230 9 0.001 0.0130025 0 -0.0271041 1.76527e-06 0 8.66274e-07 4.95603e-08 2.33596e-09
1380 10 0.001 0.0179925 0 -0.027107 1.64658e-06 0 9.87941e-07 4.92535e-08 2.2955e-09
1381 10 0.001 0.0177182 0 -0.0265325 1.77678e-06 0 1.00938e-06 3.87068e-08 2.28089e-09
1382 10 0.001 0.0174403 0 -0.0259596 1.82206e-06 0 9.81916e-07 2.93393e-08 2.26799e-09
35 1 0.001 -0.0140432 0 -0.0253003 -1.22904e-05 0 -7.81285e-06 7.68741e-07 1.82603e-08
36 1 0.001 -0.0137989 0 -0.0247141 -3.47792e-06 0 -1.15676e-05 8.77129e-07 1.87145e-08
184 2 0.001 -0.0105233 0 -0.0253022 2.04256e-05 0 -1.17437e-05 8.02264e-07 2.58255e-08
185 2 0.001 -0.0103423 0 -0.0246939 1.6284e-05 0 -8.92861e-06 9.03265e-07 2.63094e-08
333 3 0.001 -0.00780033 0 -0.0251568 -1.04731e-06 0 -1.32888e-05 5.36723e-07 2.09935e-08
334 3 0.001 -0.00769819 0 -0.0245301 1.3242e-06 0 -1.30178e-05 5.9624e-07 2.12772e-08
482 4 0.001 -0.00523917 0 -0.0252765 -2.6516e-05 0 8.06668e-06 2.4609e-07 8.29321e-09
483 4 0.001 -0.00521012 0 -0.0246412 -3.20615e-05 0 6.71789e-06 2.74787e-07 8.35843e-09
632 5 0.001 -0.00208248 0 -0.0251394 1.28206e-05 0 -7.18032e-06 1.80722e-07 7.92427e-09
633 5 0.001 -0.00213851 0 -0.0245059 1.81753e-05 0 -4.43579e-06 1.91336e-07 7.9631e-09
783 6 0.001 0.00102436 0 -0.0245845 -4.89543e-05 0 -1.66431e-05 1.36341e-07 7.47656e-09
782 6 0.001 0.00115666 0 -0.0252066 -4.02006e-05 0 -1.54953e-05 1.34795e-07 7.46265e-09
934 7 0.001 0.0040326 0 -0.0242436 1.92306e-05 0 6.84972e-06 7.362e-08 4.60198e-09
932 7 0.001 0.00444965 0 -0.025446 1.28187e-05 0 5.34731e-06 8.71331e-08 4.62953e-09
933 7 0.001 0.00424382 0 -0.0248439 1.62741e-05 0 6.16669e-06 8.03747e-08 4.61544e-09
1085 8 0.001 0.00679053 0 -0.0241831 6.40429e-06 0 1.54651e-06 1.20801e-08 2.30171e-09
1083 8 0.001 0.00734764 0 -0.0253282 6.48358e-06 0 1.90704e-06 2.50858e-08 2.31738e-09
1084 8 0.001 0.00707029 0 -0.024755 6.40329e-06 0 1.69205e-06 1.80021e-08 2.30866e-09
1233 9 0.001 0.0121706 0 -0.0253847 1.00872e-06 0 4.55863e-07 2.15443e-08 2.29734e-09
1235 9 0.001 0.0116021 0 -0.0242452 4.53983e-07 0 1.48478e-07 9.1222e-09 2.2804e-09
1234 9 0.001 0.0118874 0 -0.0248144 7.2647e-07 0 2.96901e-07 1.4676e-08 2.28795e-09
1385 10 0.001 0.0165901 0 -0.0242491 1.54179e-06 0 7.2942e-07 8.86366e-09 2.24007e-09
1384 10 0.001 0.0168758 0 -0.0248181 1.69354e-06 0 8.37059e-07 1.43714e-08 2.24753e-09
1383 10 0.001 0.0171593 0 -0.0253882 1.7892e-06 0 9.30247e-07 2.12106e-08 2.25685e-09
37 1 0.001 -0.013572 0 -0.024121 4.8559e-06 0 -1.4573e-05 9.8392e-07 1.91678e-08