ITEM: TIMESTEP
1500000
ITEM: NUMBER OF ATOMS
1500
ITEM: BOX BOUNDS ff ff ff
-2.5000000000000001e-02 2.5000000000000001e-02
-5.0000000000000001e-03 5.0000000000000001e-03
-5.0000000000000003e-02 5.0000000000000003e-02
ITEM: ATOMS id type radius x y z fx fy fz c_bendingE c_stretchingE
1 1 0.001 -0.0225 0 -0.04465 -0.131311 0 -3.8e-09 5.82164e-07 1.59293e-34
2 1 0.001 -0.0225 0 -0.0440124 0.131285 0 -0.0162353 1.15859e-06 1.09237e-08
151 2 0.001 -0.0175 0 -0.04465 -0.122525 0 -3.8e-09 5.06835e-07 1.59293e-34
152 2 0.001 -0.0175 0 -0.0440124 0.122837 0 -0.0179038 1.0054e-06 1.32675e-08
301 3 0.001 -0.0125 0 -0.04465 -0.096913 0 -3.8e-09 3.17043e-07 1.59293e-34
302 3 0.001 -0.0125 0 -0.0440124 0.0980813 0 -0.0175754 6.23052e-07 1.27574e-08
451 4 0.001 -0.0075 0 -0.04465 -0.0621219 0 -3.8e-09 1.30252e-07 1.59293e-34
452 4 0.001 -0.0075 0 -0.0440124 0.0644994 0 -0.0104979 2.49919e-07 4.53197e-09
601 5 0.001 -0.0025 0 -0.04465 -0.0323507 0 -3.8e-09 3.53208e-08 1.59293e-34
602 5 0.001 -0.0025 0 -0.0440124 0.0345294 0 -0.00934006 6.58606e-08 3.60342e-09
751 6 0.001 0.0025 0 -0.04465 -0.00895471 0 -3.8e-09 2.70616e-09 1.59293e-34
752 6 0.001 0.0025 0 -0.0440124 0.0111341 0 -0.00879431 4.24628e-09 3.20578e-09
901 7 0.001 0.0075 0 -0.04465 0.0183428 0 -3.8e-09 1.1355e-08 1.59293e-34
902 7 0.001 0.0075 0 -0.0440124 -0.0166008 0 -0.00806634 2.49006e-08 2.70755e-09
1051 8 0.001 0.0125 0 -0.04465 0.0515613 0 -3.8e-09 8.9728e-08 1.59293e-34
1052 8 0.001 0.0125 0 -0.0440124 -0.0510251 0 -0.00637942 1.80962e-07 1.6935e-09
1201 9 0.001 0.0175 0 -0.04465 0.0656378 0 -3.8e-09 1.45414e-07 1.59293e-34
1202 9 0.001 0.0175 0 -0.0440124 -0.065633 0 -0.00588203 2.90308e-07 1.43558e-09
1351 10 0.001 0.0225 0 -0.04465 0.065774 0 -3.8e-09 1.46018e-07 1.59293e-34
1352 10 0.001 0.0225 0 -0.0440124 -0.0657806 0 -0.00585322 2.91465e-07 1.42143e-09
3 1 0.001 -0.0224735 0 -0.0433781 -3.08082e-07 0 -1.08286e-06 1.72345e-06 2.17938e-08
4 1 0.001 -0.0224207 0 -0.0427454 -9.15918e-07 0 -2.0314e-06 1.68899e-06 2.16518e-08
153 2 0.001 -0.0174753 0 -0.0433783 -2.64292e-07 0 -2.014e-07 1.49019e-06 2.64579e-08
154 2 0.001 -0.0174262 0 -0.0427456 -7.02214e-07 0 -4.65497e-07 1.44921e-06 2.62672e-08
303 3 0.001 -0.0124805 0 -0.043378 -2.02909e-06 0 -5.06282e-07 9.14918e-07 2.5429e-08
304 3 0.001 -0.0124418 0 -0.0427445 -5.40288e-06 0 -6.90289e-07 8.72832e-07 2.52383e-08
453 4 0.001 -0.00748746 0 -0.0433767 2.9423e-06 0 -1.4144e-06 3.58685e-07 9.02116e-09
454 4 0.001 -0.00746289 0 -0.0427413 7.50259e-06 0 -2.69596e-06 3.26113e-07 8.93563e-09
603 5 0.001 -0.00249347 0 -0.0433764 7.97469e-08 0 1.83732e-07 9.18006e-08 7.18957e-09
604 5 0.001 -0.00248085 0 -0.0427405 5.1477e-07 0 3.84808e-07 7.80549e-08 7.15568e-09
753 6 0.001 0.00250181 0 -0.0433763 -6.1282e-07 0 -1.62571e-06 4.94124e-09 6.40927e-09
754 6 0.001 0.00250498 0 -0.0427402 -1.80726e-06 0 -3.38188e-06 2.41509e-09 6.40712e-09
903 7 0.001 0.00749629 0 -0.0433762 -6.58053e-07 0 7.26818e-07 4.07538e-08 5.42172e-09
904 7 0.001 0.00748854 0 -0.04274 -1.67829e-06 0 1.3264e-06 4.76512e-08 5.4349e-09
1053 8 0.001 0.0124896 0 -0.043376 1.15705e-06 0 1.11761e-07 2.73347e-07 3.39029e-09
1054 8 0.001 0.0124686 0 -0.0427398 3.05474e-06 0 2.50312e-07 2.76795e-07 3.39593e-09
1203 9 0.001 0.0174867 0 -0.0433759 -1.12511e-08 0 2.29974e-08 4.34143e-07 2.86932e-09
1204 9 0.001 0.0174602 0 -0.0427399 -1.74314e-08 0 4.18478e-08 4.30976e-07 2.86442e-09
1353 10 0.001 0.0224867 0 -0.0433759 4.89083e-08 0 -9.51667e-09 4.35805e-07 2.84094e-09
1354 10 0.001 0.0224601 0 -0.0427399 1.28588e-07 0 -1.28366e-08 4.32491e-07 2.83589e-09
5 1 0.001 -0.022342 0 -0.0421154 -1.75372e-06 0 -2.95208e-06 1.63792e-06 2.1443e-08
6 1 0.001 -0.0222379 0 -0.041489 -2.72931e-06 0 -3.75882e-06 1.57137e-06 2.1173e-08
7 1 0.001 -0.022109 0 -0.0408673 -3.72751e-06 0 -4.35017e-06 1.49081e-06 2.08488e-08
155 2 0.001 -0.017353 0 -0.0421152 -1.30511e-06 0 -6.47045e-07 1.39285e-06 2.60064e-08
156 2 0.001 -0.0172563 0 -0.0414879 -1.83035e-06 0 -1.04647e-06 1.32247e-06 2.56834e-08
157 2 0.001 -0.0171369 0 -0.0408646 -2.3102e-06 0 -1.30818e-06 1.23973e-06 2.5307e-08
305 3 0.001 -0.0123844 0 -0.0421124 -9.03578e-06 0 -6.35182e-07 8.22506e-07 2.50121e-08
306 3 0.001 -0.0123089 0 -0.0414822 -1.20811e-05 0 -6.90957e-07 7.65137e-07 2.47568e-08
307 3 0.001 -0.012216 0 -0.0408544 -1.41282e-05 0 -8.17048e-07 7.02052e-07 2.4479e-08
455 4 0.001 -0.00742687 0 -0.0421065 1.23535e-05 0 -4.04909e-06 2.92986e-07 8.85065e-09
456 4 0.001 -0.00738002 0 -0.0414723 1.64195e-05 0 -5.4654e-06 2.59718e-07 8.76718e-09
457 4 0.001 -0.00732296 0 -0.040839 1.88192e-05 0 -6.79345e-06 2.26735e-07 8.68631e-09
605 5 0.001 -0.00246265 0 -0.0421047 1.01962e-06 0 5.99384e-07 6.50114e-08 7.12323e-09
606 5 0.001 -0.00243933 0 -0.0414691 1.80677e-06 0 9.17061e-07 5.28226e-08 7.09246e-09
607 5 0.001 -0.00241142 0 -0.0408337 2.75006e-06 0 1.14474e-06 4.16307e-08 7.06367e-09
755 6 0.001 0.00250907 0 -0.0421041 -3.56395e-06 0 -5.07093e-06 8.75178e-10 6.40977e-09
756 6 0.001 0.00251363 0 -0.041468 -5.48927e-06 0 -6.81509e-06 3.35896e-10 6.41725e-09
757 6 0.001 0.0025182 0 -0.0408318 -7.51327e-06 0 -8.4604e-06 7.97538e-10 6.42953e-09
905 7 0.001 0.00747641 0 -0.0421039 -2.71848e-06 0 1.89937e-06 5.48215e-08 5.44785e-09
906 7 0.001 0.00745957 0 -0.0414679 -3.9614e-06 0 2.45447e-06 6.21839e-08 5.4604e-09
907 7 0.001 0.00743774 0 -0.040832 -5.45916e-06 0 3.00475e-06 6.96535e-08 5.47235e-09
1055 8 0.001 0.0124371 0 -0.0421041 5.25356e-06 0 4.4369e-07 2.79172e-07 3.39976e-09
1056 8 0.001 0.012395 0 -0.0414689 7.3549e-06 0 6.50472e-07 2.80479e-07 3.40181e-09
1057 8 0.001 0.0123423 0 -0.0408346 8.99752e-06 0 8.52035e-07 2.80728e-07 3.40215e-09
1206 9 0.001 0.0173677 0 -0.0414701 -3.17049e-08 0 7.0557e-08 4.19924e-07 2.84737e-09
1207 9 0.001 0.017302 0 -0.0408369 -4.34782e-08 0 9.57677e-08 4.12127e-07 2.83537e-09
1205 9 0.001 0.0174205 0 -0.0421045 -2.1722e-08 0 5.98211e-08 4.26224e-07 2.85709e-09
1355 10 0.001 0.0224204 0 -0.0421045 2.17801e-07 0 -1.31647e-08 4.27598e-07 2.82844e-09
1356 10 0.001 0.0223675 0 -0.0414701 2.93204e-07 0 -2.32489e-08 4.21165e-07 2.81868e-09
1357 10 0.001 0.0223016 0 -0.0408369 3.44018e-07 0 -2.58086e-08 4.13243e-07 2.80669e-09
8 1 0.001 -0.0219562 0 -0.040251 -5.07192e-06 0 -4.81617e-06 1.39798e-06 2.04789e-08
9 1 0.001 -0.0217805 0 -0.0396408 -6.50251e-06 0 -5.12698e-06 1.29487e-06 2.00726e-08
158 2 0.001 -0.0169956 0 -0.0402458 -2.64608e-06 0 -1.52478e-06 1.14657e-06 2.4887e-08
159 2 0.001 -0.0168335 0 -0.0396321 -2.64635e-06 0 -1.70814e-06 1.04514e-06 2.44342e-08
308 3 0.001 -0.0121065 0 -0.0402291 -1.4321e-05 0 -1.09602e-06 6.34668e-07 2.41856e-08
309 3 0.001 -0.0119813 0 -0.0396068 -1.23901e-05 0 -1.77718e-06 5.64453e-07 2.38832e-08
458 4 0.001 -0.00725641 0 -0.0402066 1.88078e-05 0 -7.74346e-06 1.94484e-07 8.60902e-09
459 4 0.001 -0.00718106 0 -0.0395752 1.60933e-05 0 -8.28741e-06 1.63427e-07 8.53631e-09
608 5 0.001 -0.00237944 0 -0.0401984 3.79048e-06 0 1.24739e-06 3.1567e-08 7.03731e-09
609 5 0.001 -0.00234392 0 -0.0395633 4.77562e-06 0 1.38399e-06 2.27508e-08 7.0137e-09
758 6 0.001 0.00252234 0 -0.0401957 -9.43214e-06 0 -9.92634e-06 2.24586e-09 6.44639e-09
759 6 0.001 0.0025256 0 -0.0395596 -1.10853e-05 0 -1.13512e-05 4.65234e-09 6.4676e-09
908 7 0.001 0.00741061 0 -0.0401963 -7.08039e-06 0 3.54449e-06 7.71416e-08 5.48348e-09
909 7 0.001 0.00737791 0 -0.0395609 -8.81106e-06 0 3.97516e-06 8.45573e-08 5.49362e-09
1058 8 0.001 0.012279 0 -0.0402012 9.97775e-06 0 1.0281e-06 2.79933e-07 3.40083e-09
1059 8 0.001 0.0122051 0 -0.039569 1.01665e-05 0 1.13369e-06 2.7811e-07 3.39788e-09
1208 9 0.001 0.0172234 0 -0.0402051 -4.46002e-08 0 1.31858e-07 4.02892e-07 2.82118e-09
1209 9 0.001 0.0171322 0 -0.0395751 -3.23789e-08 0 1.59067e-07 3.92293e-07 2.80491e-09
1358 10 0.001 0.0222229 0 -0.0402052 3.70214e-07 0 -2.48091e-08 4.03895e-07 2.79257e-09
1359 10 0.001 0.0221315 0 -0.0395751 3.56594e-07 0 -3.44516e-08 3.93193e-07 2.77646e-09
10 1 0.001 -0.021583 0 -0.0390373 -7.79675e-06 0 -5.21522e-06 1.18367e-06 1.96396e-08
11 1 0.001 -0.0213648 0 -0.0384409 -9.02704e-06 0 -5.01047e-06 1.06668e-06 1.91897e-08
12 1 0.001 -0.0211273 0 -0.0378519 -9.82896e-06 0 -4.81026e-06 9.46286e-07 1.87325e-08
160 2 0.001 -0.0166516 0 -0.039024 -2.43112e-06 0 -1.96529e-06 9.37748e-07 2.39597e-08
161 2 0.001 -0.0164512 0 -0.0384217 -2.35005e-06 0 -2.45907e-06 8.26804e-07 2.34751e-08
162 2 0.001 -0.0162336 0 -0.0378253 -2.5078e-06 0 -2.98492e-06 7.14761e-07 2.29921e-08
310 3 0.001 -0.0118414 0 -0.0389877 -9.05951e-06 0 -2.73877e-06 4.92896e-07 2.35781e-08
311 3 0.001 -0.0116878 0 -0.0383717 -4.54144e-06 0 -3.96056e-06 4.21484e-07 2.32766e-08
460 4 0.001 -0.00709767 0 -0.0389448 1.12446e-05 0 -8.35973e-06 1.34026e-07 8.46926e-09
461 4 0.001 -0.00700703 0 -0.0383154 4.62015e-06 0 -8.06122e-06 1.06727e-07 8.40891e-09
610 5 0.001 -0.0023054 0 -0.0389285 5.88102e-06 0 1.45733e-06 1.52887e-08 6.99309e-09
611 5 0.001 -0.00226445 0 -0.0382937 6.96503e-06 0 1.49717e-06 9.27355e-09 6.97576e-09
760 6 0.001 0.00252754 0 -0.0389235 -1.19198e-05 0 -1.27439e-05 7.97529e-09 6.49301e-09
761 6 0.001 0.00252771 0 -0.0382874 -1.22497e-05 0 -1.40416e-05 1.21614e-08 6.5224e-09
910 7 0.001 0.00733937 0 -0.0389259 -1.0572e-05 0 4.40654e-06 9.18083e-08 5.50259e-09
911 7 0.001 0.00729476 0 -0.0382912 -1.21146e-05 0 4.83486e-06 9.8803e-08 5.51017e-09
1060 8 0.001 0.0121207 0 -0.0389381 9.57149e-06 0 1.14549e-06 2.75276e-07 3.39333e-09
1061 8 0.001 0.0120258 0 -0.0383087 8.3038e-06 0 1.06338e-06 2.71447e-07 3.38719e-09
1210 9 0.001 0.0170285 0 -0.038947 8.77845e-09 0 1.82904e-07 3.80411e-07 2.78674e-09
1211 9 0.001 0.0169126 0 -0.038321 7.59832e-08 0 2.17464e-07 3.6734e-07 2.76681e-09
1361 10 0.001 0.0219116 0 -0.0383211 2.438e-07 0 -7.59253e-08 3.68065e-07 2.73884e-09
1360 10 0.001 0.0220277 0 -0.038947 3.12088e-07 0 -5.76576e-08 3.81219e-07 2.7585e-09
13 1 0.001 -0.0208718 0 -0.0372705 -1.02732e-05 0 -4.68523e-06 8.2489e-07 1.82777e-08
14 1 0.001 -0.0205997 0 -0.0366966 -1.02647e-05 0 -4.59317e-06 7.04861e-07 1.78343e-08
163 2 0.001 -0.0160002 0 -0.037235 -2.71725e-06 0 -3.47447e-06 6.04061e-07 2.25216e-08
164 2 0.001 -0.0157523 0 -0.0366505 -3.04218e-06 0 -4.11952e-06 4.97088e-07 2.20737e-08
312 3 0.001 -0.0115216 0 -0.0377591 9.02545e-07 0 -5.28781e-06 3.51684e-07 2.29842e-08
313 3 0.001 -0.011344 0 -0.0371496 6.70092e-06 0 -6.84966e-06 2.84927e-07 2.27063e-08
314 3 0.001 -0.0111562 0 -0.0365432 1.25379e-05 0 -8.5644e-06 2.22587e-07 2.24485e-08
462 4 0.001 -0.00690992 0 -0.0376869 -3.00715e-06 0 -7.41183e-06 8.19449e-08 8.35627e-09
463 4 0.001 -0.00680718 0 -0.0370593 -1.07575e-05 0 -6.43183e-06 6.00446e-08 8.31204e-09
464 4 0.001 -0.00669962 0 -0.0364326 -1.7662e-05 0 -5.3343e-06 4.13307e-08 8.2767e-09
612 5 0.001 -0.00222162 0 -0.0376591 7.95301e-06 0 1.49774e-06 4.78372e-09 6.96194e-09
613 5 0.001 -0.00217749 0 -0.0370246 8.07268e-06 0 1.45832e-06 1.88227e-09 6.95189e-09
614 5 0.001 -0.00213262 0 -0.0363901 7.45157e-06 0 1.46608e-06 6.15515e-10 6.94579e-09
762 6 0.001 0.00252569 0 -0.0376513 -1.17663e-05 0 -1.51985e-05 1.7148e-08 6.55547e-09
764 6 0.001 0.00251342 0 -0.0363791 -7.98692e-06 0 -1.70471e-05 2.92395e-08 6.63124e-09
763 6 0.001 0.00252107 0 -0.0370152 -1.02604e-05 0 -1.62163e-05 2.28654e-08 6.59188e-09
912 7 0.001 0.00724385 0 -0.037657 -1.33409e-05 0 5.15184e-06 1.05453e-07 5.51622e-09
914 7 0.001 0.00712235 0 -0.0363904 -1.48316e-05 0 5.61936e-06 1.17389e-07 5.5235e-09
913 7 0.001 0.00718644 0 -0.0370234 -1.42173e-05 0 5.3651e-06 1.11674e-07 5.5207e-09
1062 8 0.001 0.0119206 0 -0.0376809 6.49726e-06 0 8.6952e-07 2.66641e-07 3.37945e-09
1063 8 0.001 0.0118052 0 -0.037055 4.36717e-06 0 5.8226e-07 2.60877e-07 3.37013e-09
1064 8 0.001 0.0116797 0 -0.0364309 2.1312e-06 0 2.44053e-07 2.5418e-07 3.35923e-09
1212 9 0.001 0.0167848 0 -0.0376973 1.61093e-07 0 2.58226e-07 3.53181e-07 2.7453e-09
1213 9 0.001 0.0166452 0 -0.0370762 2.58727e-07 0 2.94993e-07 3.38044e-07 2.7224e-09
1214 9 0.001 0.0164943 0 -0.0364577 3.57213e-07 0 3.35774e-07 3.22044e-07 2.6983e-09
1362 10 0.001 0.0217836 0 -0.0376974 1.56507e-07 0 -9.40631e-08 3.53831e-07 2.71764e-09
1363 10 0.001 0.0216439 0 -0.0370763 5.8454e-08 0 -1.25159e-07 3.38624e-07 2.69508e-09
1364 10 0.001 0.0214928 0 -0.0364579 -2.88023e-08 0 -1.51272e-07 3.22558e-07 2.67136e-09
15 1 0.001 -0.0203126 0 -0.03613 -9.68871e-06 0 -4.57985e-06 5.88493e-07 1.74102e-08
16 1 0.001 -0.0200118 0 -0.0355706 -8.91543e-06 0 -4.4255e-06 4.77964e-07 1.70126e-08
17 1 0.001 -0.0196988 0 -0.0350178 -8.21566e-06 0 -4.09128e-06 3.75306e-07 1.66478e-08
165 2 0.001 -0.0154915 0 -0.0360716 -3.15554e-06 0 -5.01791e-06 3.96106e-07 2.16579e-08
166 2 0.001 -0.0152193 0 -0.035498 -2.56445e-06 0 -6.22795e-06 3.03223e-07 2.12823e-08
167 2 0.001 -0.0149372 0 -0.0349292 -1.15455e-06 0 -7.78639e-06 2.20346e-07 2.09539e-08
315 3 0.001 -0.0109594 0 -0.0359396 1.7843e-05 0 -1.0041e-05 1.65961e-07 2.22157e-08
316 3 0.001 -0.0107549 0 -0.0353385 2.17921e-05 0 -1.10126e-05 1.16256e-07 2.20122e-08
465 4 0.001 -0.0065881 0 -0.0358065 -2.285e-05 0 -4.42428e-06 2.60388e-08 8.25061e-09
466 4 0.001 -0.00647347 0 -0.035181 -2.57384e-05 0 -3.79608e-06 1.43343e-08 8.23403e-09
615 5 0.001 -0.0020876 0 -0.0357556 6.27453e-06 0 1.50621e-06 1.011e-09 6.94373e-09
616 5 0.001 -0.00204301 0 -0.0351211 4.89509e-06 0 1.57204e-06 3.07534e-09 6.94572e-09
766 6 0.001 0.00248748 0 -0.0351072 -2.04084e-06 0 -1.85397e-05 4.36495e-08 6.71781e-09
765 6 0.001 0.00250235 0 -0.0357431 -5.24117e-06 0 -1.78487e-05 3.61934e-08 6.67329e-09
916 7 0.001 0.00697348 0 -0.0351267 -1.48685e-05 0 6.11914e-06 1.27031e-07 5.52355e-09
915 7 0.001 0.00705141 0 -0.0357581 -1.51279e-05 0 5.8357e-06 1.22528e-07 5.52448e-09
1066 8 0.001 0.0113991 0 -0.0351892 -1.75669e-06 0 -3.63381e-07 2.38127e-07 3.33277e-09
1065 8 0.001 0.0115442 0 -0.035809 2.23454e-08 0 -8.37961e-08 2.46583e-07 3.34677e-09
1215 9 0.001 0.0163324 0 -0.035842 4.50416e-07 0 3.78726e-07 3.05305e-07 2.6732e-09
1216 9 0.001 0.0161597 0 -0.0352292 5.20579e-07 0 4.06432e-07 2.87952e-07 2.64731e-09
1365 10 0.001 0.0213306 0 -0.0358422 -9.73175e-08 0 -1.62926e-07 3.05753e-07 2.64664e-09
1366 10 0.001 0.0211577 0 -0.0352295 -1.39663e-07 0 -1.70891e-07 2.88335e-07 2.62114e-09
18 1 0.001 -0.0193753 0 -0.0344711 -7.48319e-06 0 -3.65983e-06 2.82377e-07 1.63214e-08
19 1 0.001 -0.0190427 0 -0.0339298 -7.06639e-06 0 -3.04187e-06 2.00834e-07 1.60382e-08
20 1 0.001 -0.0187026 0 -0.0333933 -6.55372e-06 0 -2.37384e-06 1.32114e-07 1.58021e-08
168 2 0.001 -0.0146468 0 -0.0343646 6.88917e-07 0 -9.67363e-06 1.49158e-07 2.06785e-08
169 2 0.001 -0.0143496 0 -0.0338034 2.6258e-06 0 -1.16429e-05 9.10987e-08 2.0461e-08
317 3 0.001 -0.010544 0 -0.0347397 2.39997e-05 0 -1.13974e-05 7.45612e-08 2.18422e-08
318 3 0.001 -0.010328 0 -0.0341427 2.4333e-05 0 -1.10804e-05 4.18253e-08 2.17091e-08
319 3 0.001 -0.0101084 0 -0.033547 2.30085e-05 0 -1.01742e-05 1.88285e-08 2.16162e-08
467 4 0.001 -0.00635658 0 -0.0345559 -2.61005e-05 0 -3.43236e-06 6.3165e-09 8.22689e-09
468 4 0.001 -0.00623829 0 -0.0339311 -2.34786e-05 0 -3.54319e-06 2.0265e-09 8.22901e-09
469 4 0.001 -0.00611944 0 -0.0333063 -1.79291e-05 0 -4.1507e-06 1.4586e-09 8.24019e-09
617 5 0.001 -0.00199942 0 -0.0344865 3.50838e-06 0 1.57812e-06 6.79307e-09 6.95178e-09
618 5 0.001 -0.00195741 0 -0.0338519 2.19614e-06 0 1.58458e-06 1.21265e-08 6.96185e-09
767 6 0.001 0.00246841 0 -0.0344714 1.3219e-06 0 -1.91056e-05 5.15295e-08 6.76452e-09
768 6 0.001 0.0024448 0 -0.0338358 4.19527e-06 0 -1.95916e-05 5.97543e-08 6.81317e-09
917 7 0.001 0.00688845 0 -0.0344962 -1.39067e-05 0 6.53218e-06 1.3085e-07 5.52059e-09
918 7 0.001 0.00679621 0 -0.0338667 -1.18776e-05 0 6.94953e-06 1.3395e-07 5.51564e-09
919 7 0.001 0.00669671 0 -0.0332383 -8.98519e-06 0 7.49711e-06 1.36311e-07 5.5088e-09
1067 8 0.001 0.0112444 0 -0.0345718 -3.07956e-06 0 -5.67503e-07 2.28866e-07 3.31731e-09
1068 8 0.001 0.0110803 0 -0.0339567 -3.89431e-06 0 -6.67041e-07 2.18864e-07 3.30049e-09
1069 8 0.001 0.0109073 0 -0.0333442 -4.22061e-06 0 -6.55126e-07 2.08199e-07 3.28245e-09
1219 9 0.001 0.015581 0 -0.0334092 5.86556e-07 0 4.22985e-07 2.33524e-07 2.56703e-09
1218 9 0.001 0.0157836 0 -0.0340128 5.98197e-07 0 4.20412e-07 2.51929e-07 2.59402e-09
1217 9 0.001 0.0159766 0 -0.0346195 5.70557e-07 0 4.16088e-07 2.70116e-07 2.62085e-09
1367 10 0.001 0.0209744 0 -0.0346198 -1.59961e-07 0 -1.77493e-07 2.70432e-07 2.59504e-09
1368 10 0.001 0.0207811 0 -0.0340132 -1.69932e-07 0 -1.78748e-07 2.52176e-07 2.56856e-09
1369 10 0.001 0.0205783 0 -0.0334097 -1.6589e-07 0 -1.64891e-07 2.33702e-07 2.54189e-09
21 1 0.001 -0.0183564 0 -0.0328606 -5.83763e-06 0 -1.81313e-06 7.74083e-08 1.56164e-08
22 1 0.001 -0.0180057 0 -0.0323308 -4.99307e-06 0 -1.02187e-06 3.76547e-08 1.54832e-08
23 1 0.001 -0.017652 0 -0.0318031 -3.8392e-06 0 -3.33361e-07 1.3523e-08 1.54037e-08
170 2 0.001 -0.0140473 0 -0.0332451 4.75576e-06 0 -1.36239e-05 4.73465e-08 2.03052e-08
171 2 0.001 -0.0137413 0 -0.0326887 6.59929e-06 0 -1.52956e-05 1.88074e-08 2.02139e-08
172 2 0.001 -0.0134332 0 -0.0321334 7.6244e-06 0 -1.67912e-05 6.10124e-09 2.01891e-08
320 3 0.001 -0.00988642 0 -0.0329521 1.96512e-05 0 -8.49924e-06 6.15432e-09 2.15659e-08
321 3 0.001 -0.0096635 0 -0.0323576 1.48512e-05 0 -6.13751e-06 4.16503e-09 2.15596e-08
322 3 0.001 -0.00944102 0 -0.031763 9.24189e-06 0 -3.46566e-06 1.29822e-08 2.15976e-08
470 4 0.001 -0.00600089 0 -0.0326816 -1.00846e-05 0 -5.07205e-06 4.57224e-09 8.26014e-09
471 4 0.001 -0.00588349 0 -0.0320566 -9.37682e-07 0 -6.06414e-06 1.13028e-08 8.28849e-09
619 5 0.001 -0.00191757 0 -0.033217 1.08499e-06 0 1.49817e-06 1.90161e-08 6.97586e-09
620 5 0.001 -0.00188045 0 -0.0325821 4.46418e-07 0 1.27885e-06 2.73825e-08 6.99374e-09
621 5 0.001 -0.00184662 0 -0.0319469 3.39901e-07 0 1.06181e-06 3.71281e-08 7.01534e-09
771 6 0.001 0.00234323 0 -0.0319303 8.01573e-06 0 -2.00845e-05 8.56662e-08 6.96686e-09
769 6 0.001 0.00241628 0 -0.0332003 6.46335e-06 0 -1.98998e-05 6.82429e-08 6.86341e-09
770 6 0.001 0.00238254 0 -0.0325652 7.74999e-06 0 -2.00247e-05 7.69104e-08 6.91479e-09
920 7 0.001 0.00658988 0 -0.0326111 -5.27998e-06 0 8.07597e-06 1.37929e-07 5.50024e-09
921 7 0.001 0.0064757 0 -0.0319852 -1.0439e-06 0 8.69506e-06 1.38817e-07 5.49021e-09
1070 8 0.001 0.0107254 0 -0.0327342 -4.16383e-06 0 -5.59515e-07 1.96956e-07 3.26336e-09
1071 8 0.001 0.0105349 0 -0.0321268 -3.83814e-06 0 -3.76688e-07 1.85233e-07 3.24341e-09
1220 9 0.001 0.0153692 0 -0.0328088 5.42885e-07 0 4.09512e-07 2.15036e-07 2.54006e-09
1221 9 0.001 0.0151486 0 -0.0322116 4.70885e-07 0 3.7993e-07 1.96597e-07 2.51331e-09
1371 10 0.001 0.0201455 0 -0.0322122 -1.13687e-07 0 -1.35891e-07 1.96636e-07 2.48877e-09
1370 10 0.001 0.0203663 0 -0.0328094 -1.45947e-07 0 -1.50893e-07 2.15144e-07 2.51523e-09
24 1 0.001 -0.0172968 0 -0.0312763 -2.55703e-06 0 3.21515e-07 5.41281e-09 1.53788e-08
25 1 0.001 -0.0169416 0 -0.0307495 -1.16058e-06 0 9.51802e-07 1.34495e-08 1.54087e-08
173 2 0.001 -0.0131247 0 -0.0315784 7.67026e-06 0 -1.78266e-05 9.54928e-09 2.02328e-08
174 2 0.001 -0.0128174 0 -0.0310227 6.32694e-06 0 -1.80684e-05 2.91606e-08 2.03452e-08
175 2 0.001 -0.0125127 0 -0.0304656 3.46563e-06 0 -1.75325e-05 6.46185e-08 2.05259e-08
323 3 0.001 -0.00922035 0 -0.0311677 3.29522e-06 0 -7.5825e-07 3.24746e-08 2.16797e-08
324 3 0.001 -0.0090029 0 -0.0305712 -2.70923e-06 0 1.83599e-06 6.22551e-08 2.18047e-08
472 4 0.001 -0.00576807 0 -0.0314312 8.26941e-06 0 -7.03541e-06 2.15686e-08 8.32495e-09
473 4 0.001 -0.00565548 0 -0.0308053 1.63756e-05 0 -7.73756e-06 3.5272e-08 8.36938e-09
622 5 0.001 -0.00181663 0 -0.0313116 9.23766e-07 0 7.05596e-07 4.81401e-08 7.04044e-09
623 5 0.001 -0.00179102 0 -0.030676 1.89706e-06 0 3.86544e-07 6.02934e-08 7.06882e-09
772 6 0.001 0.00229806 0 -0.0312959 7.27209e-06 0 -2.01114e-05 9.44134e-08 7.01923e-09
773 6 0.001 0.00224674 0 -0.0306619 5.79089e-06 0 -2.00503e-05 1.03048e-07 7.07146e-09
922 7 0.001 0.00635416 0 -0.0313606 3.19885e-06 0 9.41186e-06 1.38995e-07 5.47887e-09
923 7 0.001 0.00622528 0 -0.0307376 7.15762e-06 0 9.97639e-06 1.38496e-07 5.46642e-09
1074 8 0.001 0.00991551 0 -0.0303205 -2.53009e-06 0 2.38806e-07 1.48203e-07 3.18021e-09
1072 8 0.001 0.0103363 0 -0.031522 -3.37242e-06 0 -1.50345e-07 1.73129e-07 3.22276e-09
1073 8 0.001 0.0101297 0 -0.0309199 -2.90912e-06 0 6.48489e-08 1.6075e-07 3.20163e-09
1222 9 0.001 0.0149197 0 -0.0316175 3.72134e-07 0 3.32983e-07 1.78339e-07 2.48697e-09
1223 9 0.001 0.0146829 0 -0.0310265 2.63872e-07 0 2.75705e-07 1.6039e-07 2.46123e-09
1224 9 0.001 0.0144387 0 -0.0304385 1.68718e-07 0 2.13654e-07 1.42877e-07 2.43626e-09
1372 10 0.001 0.0199163 0 -0.0316182 -6.8031e-08 0 -1.10901e-07 1.78312e-07 2.46271e-09
1373 10 0.001 0.0196793 0 -0.0310273 -2.72222e-09 0 -6.80867e-08 1.60303e-07 2.43722e-09
1374 10 0.001 0.0194348 0 -0.0304394 8.10522e-08 0 -1.46202e-08 1.42736e-07 2.41247e-09
26 1 0.001 -0.0165879 0 -0.0302218 1.206e-07 0 1.48619e-06 3.74849e-08 1.54931e-08
27 1 0.001 -0.0162372 0 -0.029692 1.34401e-06 0 2.03664e-06 7.70988e-08 1.56312e-08
28 1 0.001 -0.015891 0 -0.0291594 2.25964e-06 0 2.7802e-06 1.31602e-07 1.58212e-08
176 2 0.001 -0.0122124 0 -0.0299062 -3.80594e-07 0 -1.61807e-05 1.15269e-07 2.07727e-08
177 2 0.001 -0.0119179 0 -0.0293436 -5.34915e-06 0 -1.3981e-05 1.80118e-07 2.10818e-08
178 2 0.001 -0.0116309 0 -0.0287772 -1.07895e-05 0 -1.15919e-05 2.57829e-07 2.14485e-08
325 3 0.001 -0.00879002 0 -0.029973 -8.40005e-06 0 4.2651e-06 1.01687e-07 2.19702e-08
326 3 0.001 -0.00858309 0 -0.0293728 -1.28262e-05 0 5.98393e-06 1.49901e-07 2.2173e-08
327 3 0.001 -0.00838346 0 -0.0287702 -1.60468e-05 0 7.29644e-06 2.05818e-07 2.24089e-08
474 4 0.001 -0.00554654 0 -0.0301788 2.24035e-05 0 -7.9204e-06 5.22954e-08 8.42151e-09
475 4 0.001 -0.00544208 0 -0.0295515 2.54334e-05 0 -7.46519e-06 7.24916e-08 8.48096e-09
476 4 0.001 -0.00534291 0 -0.0289234 2.56707e-05 0 -6.36644e-06 9.56727e-08 8.54717e-09
624 5 0.001 -0.00177033 0 -0.0300403 3.30921e-06 0 -1.97826e-08 7.34525e-08 7.1002e-09
626 5 0.001 -0.00174573 0 -0.0287685 5.69834e-06 0 -8.87431e-07 1.02202e-07 7.17103e-09
625 5 0.001 -0.00175507 0 -0.0294044 4.49462e-06 0 -4.36205e-07 8.7473e-08 7.13436e-09
774 6 0.001 0.002189 0 -0.0300285 3.61525e-06 0 -1.99366e-05 1.11461e-07 7.12302e-09
776 6 0.001 0.00205326 0 -0.0287637 -1.85871e-06 0 -1.96888e-05 1.27165e-07 7.22224e-09
775 6 0.001 0.00212458 0 -0.0293957 9.19888e-07 0 -1.97981e-05 1.19539e-07 7.17342e-09
924 7 0.001 0.00608908 0 -0.0301161 1.03172e-05 0 1.03204e-05 1.37354e-07 5.45316e-09
926 7 0.001 0.00579494 0 -0.0288781 1.25435e-05 0 9.89231e-06 1.33274e-07 5.42513e-09
925 7 0.001 0.00594561 0 -0.0294963 1.21272e-05 0 1.03072e-05 1.35603e-07 5.43933e-09
1075 8 0.001 0.00969404 0 -0.0297237 -2.25632e-06 0 3.66981e-07 1.35593e-07 3.15871e-09
1076 8 0.001 0.00946566 0 -0.0291295 -2.12828e-06 0 4.24061e-07 1.23027e-07 3.13731e-09
1226 9 0.001 0.0139297 0 -0.0292713 6.29451e-08 0 1.30014e-07 1.09642e-07 2.38927e-09
1225 9 0.001 0.0141874 0 -0.0298535 9.62243e-08 0 1.60554e-07 1.25922e-07 2.41223e-09
1375 10 0.001 0.0191833 0 -0.0298545 1.86242e-07 0 4.66879e-08 1.25736e-07 2.38863e-09
1376 10 0.001 0.0189253 0 -0.0292724 3.0031e-07 0 1.09966e-07 1.0942e-07 2.36585e-09
29 1 0.001 -0.0155509 0 -0.0286228 2.7556e-06 0 3.84389e-06 2.0004e-07 1.60605e-08
30 1 0.001 -0.0152182 0 -0.0280816 2.88606e-06 0 5.15157e-06 2.81202e-07 1.63457e-08
31 1 0.001 -0.0148947 0 -0.027535 2.53691e-06 0 6.60438e-06 3.73625e-07 1.66727e-08
179 2 0.001 -0.011353 0 -0.0282064 -1.63089e-05 0 -9.33098e-06 3.46747e-07 2.18668e-08
180 2 0.001 -0.0110857 0 -0.0276305 -2.15171e-05 0 -7.28805e-06 4.44923e-07 2.23296e-08
328 3 0.001 -0.00819243 0 -0.0281647 -1.7939e-05 0 8.33906e-06 2.68181e-07 2.26725e-08
329 3 0.001 -0.00801129 0 -0.0275563 -1.85748e-05 0 9.01136e-06 3.35585e-07 2.29575e-08
477 4 0.001 -0.00524986 0 -0.0282944 2.32405e-05 0 -4.83993e-06 1.216e-07 8.61946e-09
478 4 0.001 -0.00516371 0 -0.0276643 1.8022e-05 0 -3.06732e-06 1.49976e-07 8.69719e-09
628 5 0.001 -0.00174676 0 -0.0274964 6.63404e-06 0 -2.01098e-06 1.33134e-07 7.25085e-09
627 5 0.001 -0.00174281 0 -0.0281324 6.41812e-06 0 -1.39271e-06 1.17479e-07 7.20993e-09
777 6 0.001 0.00197482 0 -0.0281325 -4.11233e-06 0 -1.96195e-05 1.34226e-07 7.26917e-09
778 6 0.001 0.00188908 0 -0.0275023 -6.05714e-06 0 -1.94948e-05 1.40615e-07 7.31392e-09
928 7 0.001 0.00547235 0 -0.0276472 9.20397e-06 0 8.04411e-06 1.26975e-07 5.39588e-09
927 7 0.001 0.00563716 0 -0.0282617 1.14775e-05 0 9.14865e-06 1.30391e-07 5.41064e-09
1077 8 0.001 0.00923071 0 -0.0285379 -2.10434e-06 0 4.28191e-07 1.10607e-07 3.11619e-09
1079 8 0.001 0.0087426 0 -0.0273621 -1.90521e-06 0 4.50731e-07 8.66053e-08 3.07549e-09
1078 8 0.001 0.00898956 0 -0.0279488 -2.06996e-06 0 4.20693e-07 9.84334e-08 3.09553e-09
1227 9 0.001 0.0136658 0 -0.0286918 6.88591e-08 0 1.23679e-07 9.41494e-08 2.36753e-09
1228 9 0.001 0.0133964 0 -0.028115 1.09378e-07 0 1.35035e-07 7.95512e-08 2.34715e-09
1229 9 0.001 0.0131218 0 -0.0275405 1.85873e-07 0 1.58444e-07 6.59474e-08 2.32823e-09
1377 10 0.001 0.0186613 0 -0.0286931 4.21095e-07 0 1.75227e-07 9.3903e-08 2.34428e-09
1379 10 0.001 0.0181169 0 -0.0275419 6.43033e-07 0 3.12001e-07 6.56828e-08 2.30529e-09
1378 10 0.001 0.0183916 0 -0.0281163 5.37966e-07 0 2.4168e-07 7.92906e-08 2.32405e-09
32 1 0.001 -0.0145816 0 -0.0269822 2.00927e-06 0 8.19071e-06 4.75619e-07 1.70362e-08
33 1 0.001 -0.0142807 0 -0.0264228 1.53946e-06 0 9.69243e-06 5.85281e-07 1.743e-08
34 1 0.001 -0.0139934 0 -0.0258564 1.62791e-06 0 1.06844e-05 7.00537e-07 1.78471e-08
181 2 0.001 -0.0108306 0 -0.0270492 -2.52669e-05 0 -5.94399e-06 5.50158e-07 2.28278e-08
182 2 0.001 -0.0105891 0 -0.0264621 -2.68777e-05 0 -5.32889e-06 6.60063e-07 2.33512e-08
183 2 0.001 -0.0103628 0 -0.025869 -2.56339e-05 0 -5.51333e-06 7.72134e-07 2.38883e-08
330 3 0.001 -0.0078413 0 -0.0269447 -1.80757e-05 0 9.24638e-06 4.0652e-07 2.32577e-08
331 3 0.001 -0.00768364 0 -0.0263298 -1.68538e-05 0 9.26663e-06 4.794e-07 2.35664e-08
479 4 0.001 -0.00508525 0 -0.0270333 1.04257e-05 0 -1.12027e-06 1.80435e-07 8.7795e-09
481 4 0.001 -0.00495444 0 -0.0257684 -7.67394e-06 0 2.98578e-06 2.45828e-07 8.95242e-09
480 4 0.001 -0.00501525 0 -0.0264013 1.65655e-06 0 9.7542e-07 2.12549e-07 8.86511e-09
629 5 0.001 -0.00175804 0 -0.0268605 6.15413e-06 0 -2.59147e-06 1.4899e-07 7.29341e-09
630 5 0.001 -0.00177706 0 -0.0262248 5.08441e-06 0 -3.18383e-06 1.6486e-07 7.33714e-09
779 6 0.001 0.00179589 0 -0.0268731 -7.34759e-06 0 -1.91431e-05 1.46235e-07 7.35602e-09
780 6 0.001 0.0016951 0 -0.0262451 -7.58902e-06 0 -1.86925e-05 1.51004e-07 7.39516e-09
929 7 0.001 0.00530064 0 -0.0270346 5.89155e-06 0 6.53745e-06 1.23042e-07 5.3809e-09
931 7 0.001 0.00493703 0 -0.0258152 -2.92926e-06 0 2.48176e-06 1.13674e-07 5.35063e-09
930 7 0.001 0.00512215 0 -0.0264239 1.74316e-06 0 4.65199e-06 1.18603e-07 5.3658e-09
1080 8 0.001 0.0084902 0 -0.0267777 -1.49439e-06 0 5.74607e-07 7.52181e-08 3.05626e-09
1082 8 0.001 0.00797066 0 -0.0256154 5.74806e-07 0 1.39474e-06 5.41351e-08 3.02074e-09
1081 8 0.001 0.00823275 0 -0.0261955 -6.90992e-07 0 8.82224e-07 6.43649e-08 3.03796e-09
1232 9 0.001 0.0122723 0 -0.0258297 4.64844e-07 0 2.58779e-07 3.19871e-08 2.2814e-09
1231 9 0.001 0.0125593 0 -0.0263981 3.76123e-07 0 2.24744e-07 4.20848e-08 2.29527e-09
1230 9 0.001 0.0128427 0 -0.0269683 2.81338e-07 0 1.84044e-07 5.34303e-08 2.31091e-09
1382 10 0.001 0.0172668 0 -0.0258314 7.70641e-07 0 4.15683e-07 3.17622e-08 2.25881e-09
1380 10 0.001 0.0178375 0 -0.0269698 7.24615e-07 0 3.65765e-07 5.31711e-08 2.2881e-09
1381 10 0.001 0.017554 0 -0.0263996 7.67355e-07 0 4.03702e-07 4.18394e-08 2.27257e-09
35 1 0.001 -0.0137211 0 -0.0252826 2.3452e-06 0 1.13355e-05 8.19177e-07 1.828e-08
36 1 0.001 -0.0134653 0 -0.0247012 3.50955e-06 0 1.15782e-05 9.38905e-07 1.87201e-08
184 2 0.001 -0.010153 0 -0.02527 -2.16326e-05 0 -6.34976e-06 8.83825e-07 2.44269e-08
185 2 0.001 -0.00996115 0 -0.0246649 -1.54084e-05 0 -7.87148e-06 9.92623e-07 2.49554e-08
332 3 0.001 -0.00753946 0 -0.0257116 -1.50019e-05 0 9.13529e-06 5.526e-07 2.38765e-08
333 3 0.001 -0.00740983 0 -0.0250902 -1.27207e-05 0 8.87945e-06 6.24495e-07 2.4181e-08
334 3 0.001 -0.00729575 0 -0.0244658 -1.02198e-05 0 8.32043e-06 6.93494e-07 2.44732e-08
482 4 0.001 -0.00490355 0 -0.0251345 -1.66332e-05 0 4.91593e-06 2.79733e-07 9.03967e-09
483 4 0.001 -0.00486324 0 -0.0245 -2.41894e-05 0 6.54579e-06 3.13699e-07 9.12497e-09
631 5 0.001 -0.00180423 0 -0.0255893 3.33369e-06 0 -3.69563e-06 1.8055e-07 7.38142e-09
632 5 0.001 -0.00183992 0 -0.0249543 1.05962e-06 0 -4.27771e-06 1.95859e-07 7.42567e-09
633 5 0.001 -0.00188448 0 -0.0243198 -1.84577e-06 0 -4.9672e-06 2.10582e-07 7.46934e-09
781 6 0.001 0.00158661 0 -0.0256184 -6.45897e-06 0 -1.78787e-05 1.54855e-07 7.43107e-09
783 6 0.001 0.00134623 0 -0.0243694 -1.4112e-06 0 -1.55478e-05 1.59653e-07 7.49234e-09
782 6 0.001 0.00147034 0 -0.0249931 -4.40455e-06 0 -1.68159e-05 1.57746e-07 7.46349e-09
932 7 0.001 0.00474544 0 -0.0252084 -7.75065e-06 0 2.42729e-07 1.08273e-07 5.3354e-09
933 7 0.001 0.00454755 0 -0.0246037 -1.23936e-05 0 -2.06888e-06 1.02422e-07 5.32011e-09
1083 8 0.001 0.00770432 0 -0.0250372 2.26738e-06 0 2.10691e-06 4.46135e-08 3.00476e-09
1084 8 0.001 0.00743415 0 -0.0244608 4.30813e-06 0 2.98068e-06 3.58784e-08 2.99014e-09
1233 9 0.001 0.0119821 0 -0.025263 5.42716e-07 0 2.93053e-07 2.32043e-08 2.26937e-09
1234 9 0.001 0.0116892 0 -0.0246976 5.91542e-07 0 3.21736e-07 1.57944e-08 2.25925e-09
1384 10 0.001 0.0166835 0 -0.0246994 6.86296e-07 0 3.98262e-07 1.56261e-08 2.23683e-09
1383 10 0.001 0.0169765 0 -0.0252647 7.45378e-07 0 4.13184e-07 2.30056e-08 2.24687e-09
37 1 0.001 -0.0132275 0 -0.0241124 5.04085e-06 0 1.15811e-05 1.05738e-06 1.91589e-08
38 1 0.001 -0.0130089 0 -0.0235161 6.79985e-06 0 1.13824e-05 1.17227e-06 1.9587e-08
39 1 0.001 -0.0128108 0 -0.0229128 8.5737e-06 0 1.11312e-05 1.28127e-06 1.99952e-08
186 2 0.001 -0.0097884 0 -0.0240542 -7.13884e-06 0 -9.98887e-06 1.09612e-06 2.5463e-08
187 2 0.001 -0.00963595 0 -0.0234381 2.05924e-06 0 -1.21715e-05 1.19205e-06 2.59398e-08