ITEM: TIMESTEP
1700000
ITEM: NUMBER OF ATOMS
1500
ITEM: BOX BOUNDS ff ff ff
-2.5000000000000001e-02 2.5000000000000001e-02
-5.0000000000000001e-03 5.0000000000000001e-03
-5.0000000000000003e-02 5.0000000000000003e-02
ITEM: ATOMS id type radius x y z fx fy fz c_bendingE c_stretchingE
1 1 0.001 -0.0225 0 -0.04427 -0.14047 0 -3.8e-09 6.66247e-07 1.59293e-34
151 2 0.001 -0.0175 0 -0.04427 -0.133709 0 -3.8e-09 6.03627e-07 1.59293e-34
301 3 0.001 -0.0125 0 -0.04427 -0.110091 0 -3.8e-09 4.09156e-07 1.59293e-34
451 4 0.001 -0.0075 0 -0.04427 -0.0736417 0 -3.8e-09 1.83045e-07 1.59293e-34
601 5 0.001 -0.0025 0 -0.04427 -0.0417572 0 -3.8e-09 5.88481e-08 1.59293e-34
751 6 0.001 0.0025 0 -0.04427 -0.0165588 0 -3.8e-09 9.25365e-09 1.59293e-34
901 7 0.001 0.0075 0 -0.04427 0.00827553 0 -3.8e-09 2.31123e-09 1.59293e-34
1051 8 0.001 0.0125 0 -0.04427 0.0366835 0 -3.8e-09 4.54157e-08 1.59293e-34
1201 9 0.001 0.0175 0 -0.04427 0.0701552 0 -3.8e-09 1.66121e-07 1.59293e-34
1351 10 0.001 0.0225 0 -0.04427 0.0701364 0 -3.8e-09 1.66032e-07 1.59293e-34
2 1 0.001 -0.0225 0 -0.0436324 0.140326 0 -0.0163994 1.32696e-06 1.115e-08
3 1 0.001 -0.0224717 0 -0.0429982 4.58231e-07 0 -6.50555e-08 1.97534e-06 2.22427e-08
4 1 0.001 -0.0224152 0 -0.0423658 1.20292e-06 0 -1.78623e-07 1.93865e-06 2.20854e-08
152 2 0.001 -0.0175 0 -0.0436324 0.133929 0 -0.018243 1.19835e-06 1.37755e-08
153 2 0.001 -0.0174731 0 -0.0429984 4.12883e-07 0 -2.70223e-07 1.77744e-06 2.74636e-08
154 2 0.001 -0.0174194 0 -0.0423661 1.06094e-06 0 -6.44982e-07 1.73096e-06 2.72431e-08
302 3 0.001 -0.0125 0 -0.0436324 0.110914 0 -0.0195648 8.07241e-07 1.5823e-08
303 3 0.001 -0.0124778 0 -0.0429985 -9.50747e-07 0 6.70302e-07 1.18959e-06 3.15421e-08
304 3 0.001 -0.0124338 0 -0.0423656 -2.662e-06 0 1.49973e-06 1.1428e-06 3.12997e-08
452 4 0.001 -0.0075 0 -0.0436324 0.0763688 0 -0.0108157 3.51616e-07 4.79598e-09
453 4 0.001 -0.00748513 0 -0.0429968 -1.06474e-06 0 4.48388e-07 5.05221e-07 9.52972e-09
454 4 0.001 -0.007456 0 -0.0423616 -2.76366e-06 0 8.95221e-07 4.60537e-07 9.40375e-09
602 5 0.001 -0.0025 0 -0.0436324 0.0442533 0 -0.0093533 1.1056e-07 3.60511e-09
603 5 0.001 -0.00249157 0 -0.0429964 -5.14453e-07 0 -2.06124e-07 1.55314e-07 7.18469e-09
604 5 0.001 -0.00247522 0 -0.0423606 -1.31484e-06 0 -3.87976e-07 1.34524e-07 7.13465e-09
752 6 0.001 0.0025 0 -0.0436324 0.0188438 0 -0.00918549 1.60886e-08 3.49302e-09
753 6 0.001 0.00250334 0 -0.0429964 2.49798e-07 0 -1.19553e-07 2.08371e-08 6.97803e-09
754 6 0.001 0.00250956 0 -0.0423603 5.45044e-07 0 -3.05037e-07 1.46022e-08 6.96339e-09
902 7 0.001 0.0075 0 -0.0436324 -0.00621766 0 -0.00831712 5.89654e-09 2.8751e-09
903 7 0.001 0.00749833 0 -0.0429962 -8.35343e-07 0 -2.79233e-07 1.10112e-08 5.75497e-09
904 7 0.001 0.00749457 0 -0.04236 -2.31993e-06 0 -5.82313e-07 1.55813e-08 5.76551e-09
1052 8 0.001 0.0125 0 -0.0436324 -0.0354067 0 -0.0069219 9.38357e-08 1.99711e-09
1053 8 0.001 0.0124926 0 -0.042996 4.64067e-07 0 -9.08146e-08 1.45138e-07 4.00229e-09
1054 8 0.001 0.0124775 0 -0.0423598 1.19907e-06 0 -1.70846e-07 1.5376e-07 4.01812e-09
1202 9 0.001 0.0175 0 -0.0436324 -0.0701576 0 -0.00588204 3.31611e-07 1.43542e-09
1203 9 0.001 0.0174858 0 -0.042996 2.9908e-08 0 1.23196e-08 4.95857e-07 2.86867e-09
1204 9 0.001 0.0174575 0 -0.04236 8.50217e-08 0 2.53346e-08 4.92133e-07 2.86294e-09
1352 10 0.001 0.0225 0 -0.0436324 -0.0701389 0 -0.00587808 3.31434e-07 1.43348e-09
1353 10 0.001 0.0224858 0 -0.042996 8.20389e-09 0 -8.106e-09 4.95592e-07 2.86482e-09
1354 10 0.001 0.0224575 0 -0.04236 2.67876e-08 0 -1.3476e-08 4.9187e-07 2.85912e-09
5 1 0.001 -0.022331 0 -0.0417366 2.00514e-06 0 -3.75682e-07 1.88258e-06 2.18462e-08
6 1 0.001 -0.0222195 0 -0.0411115 2.71829e-06 0 -6.29444e-07 1.80836e-06 2.15315e-08
155 2 0.001 -0.0173395 0 -0.0417366 1.65404e-06 0 -9.64597e-07 1.66564e-06 2.69349e-08
156 2 0.001 -0.017234 0 -0.0411108 2.26722e-06 0 -1.27602e-06 1.58306e-06 2.65478e-08
305 3 0.001 -0.0123684 0 -0.0417347 -4.6909e-06 0 2.33455e-06 1.08338e-06 3.09921e-08
306 3 0.001 -0.0122823 0 -0.0411061 -6.99608e-06 0 3.19158e-06 1.01288e-06 3.06287e-08
455 4 0.001 -0.00741326 0 -0.0417273 -4.81714e-06 0 1.31448e-06 4.15024e-07 9.27586e-09
456 4 0.001 -0.00735764 0 -0.0410939 -6.85747e-06 0 1.78663e-06 3.69331e-07 9.14803e-09
605 5 0.001 -0.00245153 0 -0.041725 -2.37697e-06 0 -5.2046e-07 1.14519e-07 7.08701e-09
606 5 0.001 -0.00242106 0 -0.0410897 -3.47552e-06 0 -6.40745e-07 9.55384e-08 7.04229e-09
755 6 0.001 0.00251818 0 -0.0417243 8.16225e-07 0 -5.2773e-07 9.43285e-09 6.95162e-09
756 6 0.001 0.00252871 0 -0.0410883 1.23782e-06 0 -7.25712e-07 5.38947e-09 6.94286e-09
905 7 0.001 0.00748833 0 -0.0417239 -4.16269e-06 0 -9.08367e-07 2.08597e-08 5.778e-09
906 7 0.001 0.0074792 0 -0.0410877 -6.09076e-06 0 -1.21328e-06 2.67819e-08 5.7923e-09
1055 8 0.001 0.0124546 0 -0.0417238 2.02319e-06 0 -2.42451e-07 1.61947e-07 4.03332e-09
1056 8 0.001 0.0124235 0 -0.0410881 2.73625e-06 0 -3.14741e-07 1.6963e-07 4.04778e-09
1206 9 0.001 0.0173587 0 -0.0410907 2.4255e-07 0 4.47432e-08 4.79311e-07 2.84325e-09
1205 9 0.001 0.0174151 0 -0.0417248 1.60013e-07 0 3.51909e-08 4.86603e-07 2.85444e-09
1355 10 0.001 0.0224151 0 -0.0417248 5.90622e-08 0 -1.87089e-08 4.86344e-07 2.85067e-09
1356 10 0.001 0.0223587 0 -0.0410907 1.03515e-07 0 -2.39445e-08 4.79056e-07 2.83955e-09
7 1 0.001 -0.0220816 0 -0.0404918 3.2515e-06 0 -8.71721e-07 1.71762e-06 2.11499e-08
8 1 0.001 -0.0219181 0 -0.0398782 3.5837e-06 0 -1.00386e-06 1.61235e-06 2.07113e-08
157 2 0.001 -0.0171037 0 -0.0404897 2.81509e-06 0 -1.587e-06 1.48521e-06 2.60927e-08
158 2 0.001 -0.0169495 0 -0.0398741 3.28809e-06 0 -1.86077e-06 1.37442e-06 2.5582e-08
307 3 0.001 -0.0121762 0 -0.0404807 -9.18348e-06 0 4.06409e-06 9.33111e-07 3.02202e-08
308 3 0.001 -0.0120511 0 -0.0398587 -1.11947e-05 0 4.97684e-06 8.46116e-07 2.97777e-08
457 4 0.001 -0.00728987 0 -0.0404616 -8.62166e-06 0 2.25297e-06 3.24096e-07 9.02208e-09
458 4 0.001 -0.00721076 0 -0.0398307 -9.93313e-06 0 2.66841e-06 2.79939e-07 8.89975e-09
607 5 0.001 -0.00238441 0 -0.0404547 -4.55968e-06 0 -7.46388e-07 7.78083e-08 7.00103e-09
608 5 0.001 -0.00234218 0 -0.03982 -5.49107e-06 0 -8.62664e-07 6.15352e-08 6.96371e-09
757 6 0.001 0.00254065 0 -0.0404524 1.68506e-06 0 -8.85881e-07 2.51989e-09 6.93716e-09
758 6 0.001 0.00255352 0 -0.0398165 2.10833e-06 0 -1.10197e-06 8.59049e-10 6.93463e-09
907 7 0.001 0.0074668 0 -0.0404516 -7.82725e-06 0 -1.51137e-06 3.32734e-08 5.80819e-09
908 7 0.001 0.00745075 0 -0.0398157 -9.19281e-06 0 -1.79112e-06 4.02518e-08 5.82546e-09
1057 8 0.001 0.0123843 0 -0.0404529 3.1708e-06 0 -3.93593e-07 1.76748e-07 4.0614e-09
1058 8 0.001 0.0123365 0 -0.0398183 3.23546e-06 0 -4.92107e-07 1.83241e-07 4.07407e-09
1207 9 0.001 0.0172884 0 -0.040458 3.20244e-07 0 5.78595e-08 4.70315e-07 2.8295e-09
1208 9 0.001 0.0172045 0 -0.0398269 3.84175e-07 0 7.06324e-08 4.59688e-07 2.8133e-09
1357 10 0.001 0.0222885 0 -0.040458 1.60079e-07 0 -2.48042e-08 4.70065e-07 2.82587e-09
1358 10 0.001 0.0222046 0 -0.0398269 2.24335e-07 0 -2.3937e-08 4.59442e-07 2.80975e-09
9 1 0.001 -0.0217301 0 -0.0392717 3.56008e-06 0 -1.03627e-06 1.49484e-06 2.02269e-08
10 1 0.001 -0.0215188 0 -0.0386729 3.23449e-06 0 -1.00206e-06 1.36761e-06 1.97086e-08
11 1 0.001 -0.0212856 0 -0.0380822 2.63665e-06 0 -8.62425e-07 1.23334e-06 1.91689e-08
159 2 0.001 -0.0167726 0 -0.0392645 3.69994e-06 0 -2.06273e-06 1.25332e-06 2.50292e-08
160 2 0.001 -0.0165743 0 -0.0386616 3.66391e-06 0 -2.1949e-06 1.12474e-06 2.44485e-08
161 2 0.001 -0.0163559 0 -0.0380656 3.17708e-06 0 -2.14113e-06 9.9163e-07 2.38546e-08
309 3 0.001 -0.0119079 0 -0.0392406 -1.28295e-05 0 5.79949e-06 7.54065e-07 2.93132e-08
310 3 0.001 -0.0117479 0 -0.0386267 -1.37589e-05 0 6.49928e-06 6.59216e-07 2.88384e-08
311 3 0.001 -0.0115721 0 -0.038017 -1.38201e-05 0 6.86226e-06 5.63847e-07 2.8365e-08
459 4 0.001 -0.00712114 0 -0.0392012 -1.07627e-05 0 3.02259e-06 2.37445e-07 8.78261e-09
460 4 0.001 -0.00702186 0 -0.0385731 -1.09861e-05 0 3.22084e-06 1.97163e-07 8.67212e-09
461 4 0.001 -0.0069138 0 -0.0379465 -1.0472e-05 0 3.29911e-06 1.596e-07 8.56955e-09
609 5 0.001 -0.00229501 0 -0.0391857 -6.11396e-06 0 -9.96061e-07 4.6905e-08 6.93076e-09
610 5 0.001 -0.00224353 0 -0.0385517 -6.30733e-06 0 -1.17764e-06 3.40799e-08 6.90253e-09
611 5 0.001 -0.00218839 0 -0.037918 -6.12966e-06 0 -1.36197e-06 2.3198e-08 6.87932e-09
759 6 0.001 0.00256681 0 -0.0391805 2.3658e-06 0 -1.31312e-06 4.28704e-10 6.93536e-09
760 6 0.001 0.00258003 0 -0.0385446 2.49557e-06 0 -1.46487e-06 1.23706e-09 6.93932e-09
761 6 0.001 0.00259267 0 -0.0379087 2.45231e-06 0 -1.60812e-06 3.27834e-09 6.94645e-09
909 7 0.001 0.00743068 0 -0.0391798 -1.0031e-05 0 -2.07077e-06 4.76286e-08 5.8439e-09
910 7 0.001 0.00740623 0 -0.0385441 -1.0216e-05 0 -2.35416e-06 5.53117e-08 5.86332e-09
911 7 0.001 0.00737706 0 -0.0379085 -9.72373e-06 0 -2.55678e-06 6.3208e-08 5.88348e-09
1059 8 0.001 0.0122802 0 -0.0391843 2.87639e-06 0 -6.26009e-07 1.89051e-07 4.08567e-09
1060 8 0.001 0.0122152 0 -0.0385512 2.10937e-06 0 -8.0185e-07 1.94124e-07 4.0961e-09
1061 8 0.001 0.0121414 0 -0.0379191 1.02572e-06 0 -1.02224e-06 1.98408e-07 4.10523e-09
1209 9 0.001 0.017107 0 -0.0391978 4.31994e-07 0 8.28665e-08 4.47514e-07 2.7948e-09
1210 9 0.001 0.0169964 0 -0.0385709 4.60098e-07 0 9.01506e-08 4.33888e-07 2.77418e-09
1211 9 0.001 0.0168726 0 -0.0379464 4.61758e-07 0 9.44365e-08 4.18916e-07 2.75162e-09
1361 10 0.001 0.0218728 0 -0.0379463 4.08575e-07 0 -3.83274e-09 4.18682e-07 2.74836e-09
1359 10 0.001 0.0221072 0 -0.0391978 2.92556e-07 0 -2.03706e-08 4.47272e-07 2.79134e-09
1360 10 0.001 0.0219965 0 -0.0385708 3.58088e-07 0 -1.50524e-08 4.3365e-07 2.77082e-09
12 1 0.001 -0.0210317 0 -0.0375001 1.85064e-06 0 -5.96763e-07 1.09484e-06 1.86201e-08
13 1 0.001 -0.0207588 0 -0.0369266 9.27004e-07 0 -1.70437e-07 9.54917e-07 1.80736e-08
14 1 0.001 -0.0204683 0 -0.0363618 -9.95557e-08 0 3.33688e-07 8.16383e-07 1.75406e-08
162 2 0.001 -0.0161188 0 -0.0374768 2.14629e-06 0 -1.81487e-06 8.57036e-07 2.32614e-08
163 2 0.001 -0.0158647 0 -0.036895 7.86358e-07 0 -1.2733e-06 7.23974e-07 2.26823e-08
164 2 0.001 -0.015595 0 -0.0363203 -8.21552e-07 0 -5.65859e-07 5.95377e-07 2.21296e-08
312 3 0.001 -0.011382 0 -0.0374116 -1.31007e-05 0 6.97223e-06 4.70202e-07 2.79039e-08
313 3 0.001 -0.0111788 0 -0.0368105 -1.16114e-05 0 6.76027e-06 3.80443e-07 2.74652e-08
462 4 0.001 -0.00679788 0 -0.0373212 -9.20898e-06 0 3.18754e-06 1.25215e-07 8.47598e-09
463 4 0.001 -0.00667501 0 -0.0366973 -7.3525e-06 0 2.92766e-06 9.4417e-08 8.39236e-09
612 5 0.001 -0.00213026 0 -0.0372846 -5.51197e-06 0 -1.56458e-06 1.43731e-08 6.86132e-09
613 5 0.001 -0.00206978 0 -0.0366514 -4.67927e-06 0 -1.769e-06 7.6945e-09 6.84867e-09
762 6 0.001 0.00260423 0 -0.0372727 2.29846e-06 0 -1.69463e-06 6.5325e-09 6.95668e-09
763 6 0.001 0.00261423 0 -0.0366367 1.89384e-06 0 -1.75956e-06 1.0965e-08 6.96987e-09
912 7 0.001 0.00734286 0 -0.0372733 -8.67435e-06 0 -2.71085e-06 7.12253e-08 5.90414e-09
913 7 0.001 0.00730331 0 -0.0366383 -7.13667e-06 0 -2.81396e-06 7.92741e-08 5.92509e-09
1062 8 0.001 0.0120587 0 -0.0372881 -2.55928e-07 0 -1.2879e-06 2.01854e-07 4.11295e-09
1063 8 0.001 0.0119671 0 -0.0366583 -1.64355e-06 0 -1.57803e-06 2.0442e-07 4.11917e-09
1212 9 0.001 0.0167362 0 -0.0373245 4.35875e-07 0 9.17702e-08 4.02714e-07 2.72732e-09
1213 9 0.001 0.0165873 0 -0.0367056 3.85525e-07 0 8.14517e-08 3.85406e-07 2.70148e-09
1362 10 0.001 0.0217364 0 -0.0373245 4.44514e-07 0 4.65542e-09 4.02486e-07 2.72416e-09
1363 10 0.001 0.0215875 0 -0.0367055 4.58943e-07 0 4.41499e-09 3.85184e-07 2.69843e-09
15 1 0.001 -0.0201617 0 -0.0358055 -1.1804e-06 0 8.63504e-07 6.81947e-07 1.70311e-08
16 1 0.001 -0.0198408 0 -0.0352573 -2.19406e-06 0 1.34403e-06 5.54179e-07 1.65541e-08
165 2 0.001 -0.0153114 0 -0.0357523 -2.38503e-06 0 1.76753e-07 4.74029e-07 2.16147e-08
166 2 0.001 -0.0150155 0 -0.0351905 -3.75252e-06 0 9.19559e-07 3.62503e-07 2.11471e-08
314 3 0.001 -0.010964 0 -0.0362134 -9.53571e-06 0 6.21164e-06 2.96607e-07 2.70582e-08
315 3 0.001 -0.0107389 0 -0.03562 -6.94174e-06 0 5.35416e-06 2.20565e-07 2.6691e-08
316 3 0.001 -0.0105052 0 -0.03503 -4.11171e-06 0 4.36505e-06 1.54001e-07 2.63708e-08
464 4 0.001 -0.00654614 0 -0.0360746 -5.0597e-06 0 2.53935e-06 6.75681e-08 8.31947e-09
465 4 0.001 -0.00641221 0 -0.0354529 -2.44034e-06 0 2.0833e-06 4.49806e-08 8.25793e-09
466 4 0.001 -0.0062742 0 -0.0348321 2.55512e-07 0 1.53827e-06 2.69181e-08 8.20829e-09
614 5 0.001 -0.00200764 0 -0.0360184 -3.75505e-06 0 -1.97541e-06 3.22789e-09 6.84149e-09
615 5 0.001 -0.00194451 0 -0.0353855 -2.85323e-06 0 -2.21505e-06 1.01541e-09 6.83988e-09
764 6 0.001 0.00262215 0 -0.0360007 1.2479e-06 0 -1.83614e-06 1.65264e-08 6.98591e-09
765 6 0.001 0.00262753 0 -0.0353647 4.16326e-07 0 -1.85082e-06 2.31529e-08 7.00462e-09
914 7 0.001 0.00725811 0 -0.0360038 -5.2916e-06 0 -2.89623e-06 8.72687e-08 5.94616e-09
915 7 0.001 0.007207 0 -0.0353696 -3.3367e-06 0 -2.94945e-06 9.51274e-08 5.96719e-09
1064 8 0.001 0.0118665 0 -0.0360299 -3.0078e-06 0 -1.87482e-06 2.06069e-07 4.12376e-09
1066 8 0.001 0.0116383 0 -0.0347777 -5.21653e-06 0 -2.41842e-06 2.06514e-07 4.12777e-09
1065 8 0.001 0.0117569 0 -0.035403 -4.22532e-06 0 -2.16028e-06 2.06773e-07 4.12665e-09
1214 9 0.001 0.0164263 0 -0.0360896 3.11657e-07 0 6.83161e-08 3.67124e-07 2.67432e-09
1215 9 0.001 0.0162536 0 -0.0354769 2.22449e-07 0 4.71581e-08 3.48003e-07 2.64607e-09
1216 9 0.001 0.0160694 0 -0.0348674 1.25494e-07 0 2.07522e-08 3.28189e-07 2.61694e-09
1364 10 0.001 0.0214266 0 -0.0360896 4.50921e-07 0 1.84856e-09 3.6691e-07 2.67139e-09
1365 10 0.001 0.0212539 0 -0.0354768 4.24619e-07 0 -5.88505e-09 3.47801e-07 2.64327e-09
1366 10 0.001 0.0210698 0 -0.0348673 3.79097e-07 0 -1.83399e-08 3.28001e-07 2.61429e-09
17 1 0.001 -0.0195072 0 -0.0347167 -2.98668e-06 0 1.71815e-06 4.35464e-07 1.61173e-08
18 1 0.001 -0.0191623 0 -0.0341831 -3.31252e-06 0 1.84499e-06 3.27969e-07 1.57272e-08
19 1 0.001 -0.018808 0 -0.0336558 -3.24744e-06 0 1.69423e-06 2.33606e-07 1.53891e-08
167 2 0.001 -0.0147091 0 -0.0346344 -4.78994e-06 0 1.57616e-06 2.63114e-07 2.07351e-08
168 2 0.001 -0.0143938 0 -0.0340832 -5.41237e-06 0 2.12491e-06 1.77884e-07 2.03852e-08
169 2 0.001 -0.0140712 0 -0.0335363 -5.79455e-06 0 2.55627e-06 1.08506e-07 2.01029e-08
317 3 0.001 -0.0102642 0 -0.0344429 -1.23103e-06 0 3.15958e-06 9.83728e-08 2.61035e-08
318 3 0.001 -0.0100176 0 -0.0338581 1.49282e-06 0 1.9281e-06 5.49009e-08 2.58941e-08
467 4 0.001 -0.00613307 0 -0.0342121 2.72775e-06 0 1.02545e-06 1.35951e-08 8.17103e-09
468 4 0.001 -0.00598979 0 -0.0335925 4.75301e-06 0 5.33114e-07 5.17627e-09 8.14653e-09
616 5 0.001 -0.00188106 0 -0.0347526 -2.03783e-06 0 -2.44892e-06 1.07562e-09 6.84389e-09
617 5 0.001 -0.00181796 0 -0.0341196 -1.26625e-06 0 -2.64275e-06 3.4033e-09 6.85349e-09
618 5 0.001 -0.00175589 0 -0.0334866 -4.54442e-07 0 -2.78783e-06 7.96941e-09 6.86856e-09
766 6 0.001 0.00262987 0 -0.0347286 -5.29804e-07 0 -1.85278e-06 3.07661e-08 7.02575e-09
767 6 0.001 0.00262871 0 -0.0340926 -1.64898e-06 0 -1.84545e-06 3.92737e-08 7.04906e-09
768 6 0.001 0.00262358 0 -0.0334565 -2.91507e-06 0 -1.8109e-06 4.85704e-08 7.07426e-09
916 7 0.001 0.00714971 0 -0.034736 -1.48836e-06 0 -2.92399e-06 1.02773e-07 5.98798e-09
918 7 0.001 0.00701569 0 -0.0334708 1.38966e-06 0 -2.85417e-06 1.17129e-07 6.02806e-09
917 7 0.001 0.00708602 0 -0.0341031 1.28893e-07 0 -2.88076e-06 1.1013e-07 6.00832e-09
1068 8 0.001 0.0113742 0 -0.0335326 -6.28551e-06 0 -2.7675e-06 2.03092e-07 4.12459e-09
1067 8 0.001 0.0115107 0 -0.0341542 -5.91226e-06 0 -2.62239e-06 2.05285e-07 4.12708e-09
1218 9 0.001 0.0156686 0 -0.0336589 -6.44198e-08 0 -2.91355e-08 2.87065e-07 2.55701e-09
1217 9 0.001 0.0158743 0 -0.0342614 2.60784e-08 0 -4.95637e-09 3.07826e-07 2.58718e-09
1367 10 0.001 0.0208747 0 -0.0342613 3.20599e-07 0 -3.34477e-08 3.07656e-07 2.58467e-09
1368 10 0.001 0.0206691 0 -0.0336588 2.50676e-07 0 -5.36264e-08 2.86915e-07 2.55466e-09
20 1 0.001 -0.0184457 0 -0.0331339 -2.65719e-06 0 1.24544e-06 1.54018e-07 1.51071e-08
21 1 0.001 -0.018077 0 -0.0326164 -1.65736e-06 0 5.88931e-07 9.05674e-08 1.48845e-08
22 1 0.001 -0.0177037 0 -0.0321024 -4.26999e-07 0 -2.40797e-07 4.43224e-08 1.47235e-08
170 2 0.001 -0.0137432 0 -0.0329925 -5.89373e-06 0 2.82343e-06 5.63352e-08 1.9892e-08
171 2 0.001 -0.0134113 0 -0.0324512 -5.60427e-06 0 2.83839e-06 2.2366e-08 1.97557e-08
172 2 0.001 -0.0130772 0 -0.0319111 -5.07883e-06 0 2.63351e-06 7.22826e-09 1.96957e-08
319 3 0.001 -0.00976684 0 -0.0332751 4.02689e-06 0 6.71829e-07 2.45412e-08 2.57466e-08
320 3 0.001 -0.00951346 0 -0.0326932 6.15175e-06 0 -5.10958e-07 7.9718e-09 2.56638e-08
321 3 0.001 -0.00925904 0 -0.0321118 7.6354e-06 0 -1.48753e-06 5.57946e-09 2.56473e-08
469 4 0.001 -0.00584537 0 -0.0329731 6.26948e-06 0 1.34157e-07 1.77354e-09 8.1351e-09
470 4 0.001 -0.00570077 0 -0.0323539 7.17948e-06 0 -6.0972e-08 3.44371e-09 8.13685e-09
619 5 0.001 -0.00169552 0 -0.0328534 2.32493e-07 0 -2.87596e-06 1.47211e-08 6.88893e-09
620 5 0.001 -0.00163752 0 -0.03222 9.3165e-07 0 -2.96687e-06 2.35821e-08 6.9144e-09
769 6 0.001 0.00261404 0 -0.0328206 -4.27349e-06 0 -1.80519e-06 5.85388e-08 7.10105e-09
770 6 0.001 0.00259964 0 -0.0321847 -5.64491e-06 0 -1.79099e-06 6.90505e-08 7.12909e-09
920 7 0.001 0.00685438 0 -0.0322088 2.59196e-06 0 -2.93956e-06 1.29782e-07 6.06519e-09
919 7 0.001 0.00693854 0 -0.0328393 2.22786e-06 0 -2.87731e-06 1.23702e-07 6.04706e-09
1069 8 0.001 0.0112289 0 -0.032913 -6.34197e-06 0 -2.84636e-06 1.99951e-07 4.12031e-09
1070 8 0.001 0.0110748 0 -0.0322955 -6.1334e-06 0 -2.85487e-06 1.95891e-07 4.11431e-09
1219 9 0.001 0.0154527 0 -0.0330599 -1.39781e-07 0 -4.96519e-08 2.66058e-07 2.52665e-09
1220 9 0.001 0.0152271 0 -0.0324646 -1.93628e-07 0 -5.80878e-08 2.44956e-07 2.49633e-09
1221 9 0.001 0.0149922 0 -0.0318728 -2.25788e-07 0 -5.79779e-08 2.23913e-07 2.46626e-09
1371 10 0.001 0.0199929 0 -0.0318726 -5.39908e-09 0 -1.26664e-07 2.23839e-07 2.46443e-09
1370 10 0.001 0.0202277 0 -0.0324644 8.21945e-08 0 -1.01379e-07 2.44856e-07 2.49432e-09
1369 10 0.001 0.0204532 0 -0.0330598 1.68669e-07 0 -7.686e-08 2.65932e-07 2.52447e-09
23 1 0.001 -0.0173271 0 -0.0315906 9.96262e-07 0 -1.20603e-06 1.60582e-08 1.46258e-08
24 1 0.001 -0.016949 0 -0.03108 2.45098e-06 0 -2.15771e-06 6.25186e-09 1.45924e-08
25 1 0.001 -0.0165707 0 -0.0305694 3.80201e-06 0 -2.97816e-06 1.50804e-08 1.46235e-08
173 2 0.001 -0.0127427 0 -0.0313714 -4.44521e-06 0 2.345e-06 1.11827e-08 1.97127e-08
174 2 0.001 -0.0124093 0 -0.0308309 -3.73886e-06 0 1.99402e-06 3.41212e-08 1.98065e-08
175 2 0.001 -0.0120788 0 -0.0302886 -3.04842e-06 0 1.60943e-06 7.55695e-08 1.99756e-08
322 3 0.001 -0.00900515 0 -0.0315301 8.39182e-06 0 -2.18906e-06 1.7449e-08 2.56977e-08
323 3 0.001 -0.00875332 0 -0.0309475 8.3153e-06 0 -2.51824e-06 4.33561e-08 2.58142e-08
324 3 0.001 -0.00850513 0 -0.0303634 7.40397e-06 0 -2.53022e-06 8.27637e-08 2.5995e-08
471 4 0.001 -0.00555699 0 -0.0317344 7.4931e-06 0 -8.7379e-08 1.01849e-08 8.1517e-09
472 4 0.001 -0.00541501 0 -0.0311145 7.23428e-06 0 4.27639e-08 2.19336e-08 8.17952e-09
473 4 0.001 -0.00527582 0 -0.030494 6.46501e-06 0 2.44489e-07 3.85621e-08 8.22007e-09
621 5 0.001 -0.00158255 0 -0.0315863 1.50665e-06 0 -3.05812e-06 3.44533e-08 6.94478e-09
622 5 0.001 -0.00153126 0 -0.0309523 2.04945e-06 0 -3.15172e-06 4.72131e-08 6.97985e-09
623 5 0.001 -0.00148429 0 -0.030318 2.42214e-06 0 -3.21448e-06 6.17188e-08 7.0193e-09
771 6 0.001 0.00257999 0 -0.0315489 -6.81844e-06 0 -1.78475e-06 7.9969e-08 7.15805e-09
773 6 0.001 0.00252327 0 -0.0302781 -7.86255e-06 0 -1.74801e-06 1.02452e-07 7.21719e-09
772 6 0.001 0.00255466 0 -0.0309134 -7.65851e-06 0 -1.76531e-06 9.11513e-08 7.18753e-09
921 7 0.001 0.00676304 0 -0.0315792 2.46123e-06 0 -2.98851e-06 1.35306e-07 6.08223e-09
922 7 0.001 0.0066644 0 -0.0309507 1.92639e-06 0 -3.07324e-06 1.40212e-07 6.09797e-09
923 7 0.001 0.00655833 0 -0.0303235 1.04235e-06 0 -3.24037e-06 1.44443e-07 6.11224e-09
1071 8 0.001 0.0109122 0 -0.0316803 -5.70783e-06 0 -2.80975e-06 1.90953e-07 4.10666e-09
1072 8 0.001 0.010741 0 -0.0310673 -5.12873e-06 0 -2.72635e-06 1.85186e-07 4.09747e-09
1073 8 0.001 0.0105616 0 -0.0304567 -4.46559e-06 0 -2.60691e-06 1.7865e-07 4.08689e-09
1222 9 0.001 0.0147485 0 -0.0312846 -2.39769e-07 0 -5.79397e-08 2.03079e-07 2.43666e-09
1223 9 0.001 0.0144965 0 -0.0306999 -2.36148e-07 0 -4.39756e-08 1.82602e-07 2.40773e-09
1372 10 0.001 0.0197493 0 -0.0312844 -8.0037e-08 0 -1.5154e-07 2.03032e-07 2.43501e-09
1373 10 0.001 0.0194973 0 -0.0306997 -1.43159e-07 0 -1.66486e-07 1.82581e-07 2.40626e-09
26 1 0.001 -0.0161941 0 -0.0300578 4.96702e-06 0 -3.53457e-06 4.24191e-08 1.47189e-08
27 1 0.001 -0.0158205 0 -0.0295438 5.83659e-06 0 -3.81804e-06 8.78401e-08 1.48776e-08
28 1 0.001 -0.0154516 0 -0.0290265 6.23346e-06 0 -3.75856e-06 1.50611e-07 1.50979e-08
176 2 0.001 -0.0117528 0 -0.0297437 -2.48246e-06 0 1.32617e-06 1.34693e-07 2.02176e-08
177 2 0.001 -0.0114331 0 -0.0291951 -1.91553e-06 0 1.14315e-06 2.10305e-07 2.05289e-08
325 3 0.001 -0.00826211 0 -0.0297772 5.65841e-06 0 -2.24145e-06 1.34823e-07 2.62368e-08
326 3 0.001 -0.00802582 0 -0.0291882 3.12353e-06 0 -1.66986e-06 1.98382e-07 2.65352e-08
474 4 0.001 -0.0051404 0 -0.0298726 5.28272e-06 0 5.35241e-07 5.98771e-08 8.27298e-09
475 4 0.001 -0.00500973 0 -0.0292503 3.80854e-06 0 8.79671e-07 8.56196e-08 8.33768e-09
624 5 0.001 -0.00144227 0 -0.0296833 2.62036e-06 0 -3.24057e-06 7.78067e-08 7.06274e-09
625 5 0.001 -0.00140582 0 -0.0290483 2.52326e-06 0 -3.2266e-06 9.52934e-08 7.10975e-09
774 6 0.001 0.00248547 0 -0.0296432 -7.4586e-06 0 -1.61415e-06 1.13728e-07 7.24662e-09
775 6 0.001 0.00244092 0 -0.0290087 -6.41086e-06 0 -1.37371e-06 1.24839e-07 7.27537e-09
924 7 0.001 0.00644474 0 -0.0296975 -1.34151e-07 0 -3.46764e-06 1.47946e-07 6.12493e-09
925 7 0.001 0.00632356 0 -0.029073 -1.42606e-06 0 -3.72591e-06 1.50672e-07 6.13589e-09
1075 8 0.001 0.0101784 0 -0.0292429 -3.16623e-06 0 -2.35559e-06 1.63545e-07 4.06207e-09
1074 8 0.001 0.010374 0 -0.0298486 -3.79519e-06 0 -2.47803e-06 1.71412e-07 4.07504e-09
1224 9 0.001 0.0142366 0 -0.0301187 -2.14689e-07 0 -2.44773e-08 1.62627e-07 2.37966e-09
1226 9 0.001 0.0136952 0 -0.0289661 -1.4122e-07 0 3.42124e-08 1.24738e-07 2.32683e-09
1225 9 0.001 0.0139694 0 -0.0295408 -1.80261e-07 0 3.32384e-10 1.43294e-07 2.35264e-09
1376 10 0.001 0.0186962 0 -0.0289658 -2.33386e-07 0 -1.89302e-07 1.24778e-07 2.32588e-09
1374 10 0.001 0.0192375 0 -0.0301184 -1.90172e-07 0 -1.79687e-07 1.62629e-07 2.37836e-09
1375 10 0.001 0.0189703 0 -0.0295405 -2.19416e-07 0 -1.90884e-07 1.43317e-07 2.35151e-09
29 1 0.001 -0.0150889 0 -0.0285049 6.1323e-06 0 -3.3277e-06 2.29695e-07 1.53776e-08
30 1 0.001 -0.0147341 0 -0.0279779 5.49467e-06 0 -2.48928e-06 3.23753e-07 1.57134e-08
31 1 0.001 -0.0143888 0 -0.0274447 4.3671e-06 0 -1.29472e-06 4.31151e-07 1.61009e-08
178 2 0.001 -0.0111212 0 -0.028642 -1.45639e-06 0 9.80857e-07 3.00883e-07 2.09045e-08
179 2 0.001 -0.0108189 0 -0.0280837 -1.03275e-06 0 8.38016e-07 4.04585e-07 2.13384e-08
180 2 0.001 -0.0105278 0 -0.0275194 -7.41422e-07 0 7.18969e-07 5.19279e-07 2.18234e-08
327 3 0.001 -0.00779776 0 -0.028596 1.34167e-07 0 -9.98861e-07 2.71999e-07 2.68843e-08
328 3 0.001 -0.00757944 0 -0.0280001 -2.96557e-06 0 -2.95929e-07 3.53967e-07 2.72768e-08
329 3 0.001 -0.00737232 0 -0.0274003 -6.20399e-06 0 3.81073e-07 4.4235e-07 2.77041e-08
476 4 0.001 -0.00488477 0 -0.0286268 2.19693e-06 0 1.30775e-06 1.15466e-07 8.41339e-09
477 4 0.001 -0.00476646 0 -0.028002 5.47326e-07 0 1.6831e-06 1.49031e-07 8.49918e-09
478 4 0.001 -0.00465575 0 -0.0273758 -9.32962e-07 0 1.9916e-06 1.85873e-07 8.59405e-09
626 5 0.001 -0.00137556 0 -0.028413 2.03197e-06 0 -3.22581e-06 1.13976e-07 7.15987e-09
627 5 0.001 -0.00135205 0 -0.0277774 1.22262e-06 0 -3.19861e-06 1.33635e-07 7.2126e-09
777 6 0.001 0.00233029 0 -0.0277415 -2.49574e-06 0 -6.21175e-07 1.46047e-07 7.32935e-09
776 6 0.001 0.00238929 0 -0.0283748 -4.74064e-06 0 -1.04221e-06 1.35653e-07 7.30305e-09
926 7 0.001 0.00619472 0 -0.02845 -2.76564e-06 0 -3.9935e-06 1.5258e-07 6.14497e-09
928 7 0.001 0.00591401 0 -0.0272091 -4.97705e-06 0 -4.42667e-06 1.53826e-07 6.15709e-09
927 7 0.001 0.00605821 0 -0.0278287 -3.97432e-06 0 -4.24604e-06 1.53639e-07 6.15207e-09
1077 8 0.001 0.00976442 0 -0.0280393 -2.15648e-06 0 -2.19234e-06 1.46242e-07 4.03348e-09
1078 8 0.001 0.00954644 0 -0.0274414 -1.77865e-06 0 -2.1493e-06 1.36973e-07 4.01819e-09
1076 8 0.001 0.00997516 0 -0.0286398 -2.62064e-06 0 -2.25708e-06 1.55128e-07 4.04816e-09
1227 9 0.001 0.0134147 0 -0.0283946 -9.89514e-08 0 6.76334e-08 1.07085e-07 2.3024e-09
1228 9 0.001 0.0131283 0 -0.0278259 -6.01861e-08 0 9.94185e-08 9.04583e-08 2.27949e-09
1229 9 0.001 0.0128365 0 -0.02726 -2.19366e-08 0 1.33667e-07 7.49692e-08 2.25824e-09
1377 10 0.001 0.0184157 0 -0.0283942 -2.28449e-07 0 -1.81141e-07 1.07139e-07 2.30161e-09
1379 10 0.001 0.0178376 0 -0.0272596 -1.8693e-07 0 -1.47302e-07 7.50369e-08 2.25777e-09
1378 10 0.001 0.0181294 0 -0.0278255 -2.12106e-07 0 -1.67115e-07 9.05207e-08 2.27887e-09
32 1 0.001 -0.0140545 0 -0.0269044 2.83243e-06 0 1.91424e-07 5.49973e-07 1.65346e-08
33 1 0.001 -0.013733 0 -0.0263566 1.11682e-06 0 1.8204e-06 6.78041e-07 1.70078e-08
34 1 0.001 -0.0134258 0 -0.0258006 -6.25306e-07 0 3.42745e-06 8.12944e-07 1.75124e-08
181 2 0.001 -0.0102496 0 -0.0269487 -5.51985e-07 0 6.85958e-07 6.42567e-07 2.23506e-08
182 2 0.001 -0.00998595 0 -0.0263712 -5.93759e-07 0 6.95309e-07 7.71835e-07 2.29102e-08
183 2 0.001 -0.00973839 0 -0.0257867 -6.76161e-07 0 7.16454e-07 9.04288e-07 2.34907e-08
330 3 0.001 -0.00717782 0 -0.0267963 -9.08554e-06 0 8.80305e-07 5.35024e-07 2.81563e-08
331 3 0.001 -0.00699732 0 -0.026188 -1.13404e-05 0 1.15173e-06 6.29727e-07 2.86227e-08
479 4 0.001 -0.00455356 0 -0.0267482 -2.17168e-06 0 2.21809e-06 2.255e-07 8.69683e-09
480 4 0.001 -0.00446076 0 -0.0261191 -2.92578e-06 0 2.41175e-06 2.67377e-07 8.80613e-09
628 5 0.001 -0.00133587 0 -0.0271415 1.62197e-07 0 -3.14531e-06 1.54031e-07 7.26734e-09
629 5 0.001 -0.00132757 0 -0.0265056 -1.15287e-06 0 -3.15703e-06 1.74914e-07 7.32349e-09
630 5 0.001 -0.00132766 0 -0.0258695 -2.60902e-06 0 -3.17834e-06 1.96019e-07 7.38042e-09
778 6 0.001 0.00226365 0 -0.027109 2.24055e-07 0 -1.22905e-07 1.5591e-07 7.35401e-09
779 6 0.001 0.00218912 0 -0.0264774 3.13135e-06 0 4.0271e-07 1.65143e-07 7.37686e-09
780 6 0.001 0.0021065 0 -0.0258467 6.05081e-06 0 1.0124e-06 1.73658e-07 7.39771e-09
930 7 0.001 0.00560266 0 -0.0259755 -5.95533e-06 0 -4.63278e-06 1.51556e-07 6.16072e-09
929 7 0.001 0.00576215 0 -0.0265913 -5.64493e-06 0 -4.57516e-06 1.53131e-07 6.15996e-09
1079 8 0.001 0.00932149 0 -0.026846 -1.45178e-06 0 -2.1177e-06 1.27409e-07 4.00246e-09
1080 8 0.001 0.00908984 0 -0.0262533 -1.12227e-06 0 -2.0808e-06 1.17639e-07 3.98646e-09
1231 9 0.001 0.0122388 0 -0.0261355 2.76342e-08 0 1.9147e-07 4.78129e-08 2.22115e-09
1230 9 0.001 0.0125398 0 -0.0266966 9.66258e-09 0 1.64317e-07 6.07223e-08 2.23875e-09
1381 10 0.001 0.0172401 0 -0.026135 -1.23025e-07 0 -1.0082e-07 4.78804e-08 2.22099e-09
1380 10 0.001 0.017541 0 -0.0266961 -1.56053e-07 0 -1.25202e-07 6.07916e-08 2.23844e-09
35 1 0.001 -0.0131346 0 -0.0252362 -2.30426e-06 0 4.91724e-06 9.5208e-07 1.80392e-08
36 1 0.001 -0.0128608 0 -0.0246631 -3.76165e-06 0 6.17706e-06 1.0927e-06 1.8578e-08
184 2 0.001 -0.0095085 0 -0.025195 -8.63312e-07 0 8.03963e-07 1.03701e-06 2.40796e-08
185 2 0.001 -0.00929776 0 -0.0245963 -1.10729e-06 0 9.41922e-07 1.16703e-06 2.46634e-08
332 3 0.001 -0.00683211 0 -0.0255754 -1.282e-05 0 1.25435e-06 7.24123e-07 2.90916e-08
333 3 0.001 -0.00668343 0 -0.0249586 -1.33023e-05 0 1.16515e-06 8.15863e-07 2.95508e-08
334 3 0.001 -0.00655242 0 -0.0243379 -1.27159e-05 0 7.55698e-07 9.02653e-07 2.99885e-08
481 4 0.001 -0.00437824 0 -0.0254886 -3.16105e-06 0 2.54968e-06 3.10935e-07 8.92042e-09
482 4 0.001 -0.00430682 0 -0.0248568 -2.95982e-06 0 2.63587e-06 3.55582e-07 9.03815e-09
483 4 0.001 -0.0042473 0 -0.0242237 -2.25574e-06 0 2.67472e-06 4.00712e-07 9.15768e-09
631 5 0.001 -0.00133663 0 -0.0252336 -3.8957e-06 0 -3.20846e-06 2.17078e-07 7.43742e-09
632 5 0.001 -0.00135496 0 -0.0245978 -4.87438e-06 0 -3.25263e-06 2.37817e-07 7.49378e-09
781 6 0.001 0.00201558 0 -0.0252173 8.66188e-06 0 1.59873e-06 1.81379e-07 7.41642e-09
782 6 0.001 0.00191621 0 -0.0245891 1.07855e-05 0 2.09383e-06 1.88239e-07 7.43291e-09
932 7 0.001 0.00526108 0 -0.0247499 -5.47885e-06 0 -4.43758e-06 1.4584e-07 6.15596e-09
931 7 0.001 0.0054356 0 -0.0253617 -5.89734e-06 0 -4.58614e-06 1.49116e-07 6.15936e-09
1083 8 0.001 0.00835769 0 -0.02449 2.42251e-08 0 -1.88549e-06 8.80036e-08 3.93855e-09
1081 8 0.001 0.00885179 0 -0.025663 -7.75574e-07 0 -2.03247e-06 1.07754e-07 3.97036e-09
1082 8 0.001 0.00860764 0 -0.0250753 -3.91353e-07 0 -1.96631e-06 9.78452e-08 3.95433e-09
1232 9 0.001 0.011934 0 -0.0255765 3.19233e-08 0 2.11515e-07 3.63264e-08 2.20552e-09
1233 9 0.001 0.0116258 0 -0.0250193 2.31611e-08 0 2.21452e-07 2.63386e-08 2.19194e-09
1234 9 0.001 0.0113148 0 -0.0244637 7.43222e-09 0 2.23345e-07 1.79148e-08 2.18049e-09
1382 10 0.001 0.0169353 0 -0.025576 -9.23414e-08 0 -7.79087e-08 3.63895e-08 2.20552e-09
1384 10 0.001 0.0163161 0 -0.0244632 -3.80202e-08 0 -3.85551e-08 1.79626e-08 2.18081e-09
1383 10 0.001 0.0166271 0 -0.0250188 -6.42729e-08 0 -5.63907e-08 2.63949e-08 2.1921e-09
37 1 0.001 -0.0126062 0 -0.0240813 -4.88356e-06 0 7.20219e-06 1.23197e-06 1.91176e-08
38 1 0.001 -0.0123721 0 -0.0234909 -5.51942e-06 0 7.95892e-06 1.36703e-06 1.96461e-08
39 1 0.001 -0.01216 0 -0.0228924 -5.55339e-06 0 8.46606e-06 1.49507e-06 2.01512e-08
186 2 0.001 -0.00910758 0 -0.0239907 -1.48903e-06 0 1.1354e-06 1.29139e-06 2.52279e-08
187 2 0.001 -0.00893927 0 -0.0233788 -2.06549e-06 0 1.36016e-06 1.40718e-06 2.57588e-08
188 2 0.001 -0.00879403 0 -0.022761 -2.78097e-06 0 1.52467e-06 1.51169e-06 2.62421e-08
335 3 0.001 -0.00644011 0 -0.0237135 -1.09592e-05 0 2.22556e-07 9.82321e-07 3.03931e-08
336 3 0.001 -0.00634742 0 -0.0230859 -8.2563e-06 0 -2.77238e-07 1.05288e-06 3.07538e-08
484 4 0.001 -0.00420044 0 -0.0235896 -1.04859e-06 0 2.73363e-06 4.45713e-07 9.27734e-09