ITEM: TIMESTEP
900000
ITEM: NUMBER OF ATOMS
1500
ITEM: BOX BOUNDS ff ff ff
-2.5000000000000001e-02 2.5000000000000001e-02
-5.0000000000000001e-03 5.0000000000000001e-03
-5.0000000000000003e-02 5.0000000000000003e-02
ITEM: ATOMS id type radius x y z fx fy fz c_bendingE c_stretchingE
1 1 0.001 -0.0225 0 -0.04579 -0.0847568 0 -3.8e-09 2.42482e-07 1.59293e-34
151 2 0.001 -0.0175 0 -0.04579 -0.0887334 0 -3.8e-09 2.65773e-07 1.59293e-34
301 3 0.001 -0.0125 0 -0.04579 -0.0781453 0 -3.8e-09 2.06121e-07 1.59293e-34
451 4 0.001 -0.0075 0 -0.04579 -0.0513014 0 -3.8e-09 8.88256e-08 1.59293e-34
601 5 0.001 -0.0025 0 -0.04579 -0.0174802 0 -3.8e-09 1.03121e-08 1.59293e-34
751 6 0.001 0.0025 0 -0.04579 0.0151479 0 -3.8e-09 7.74383e-09 1.59293e-34
901 7 0.001 0.0075 0 -0.04579 0.0353519 0 -3.8e-09 4.21783e-08 1.59293e-34
1051 8 0.001 0.0125 0 -0.04579 0.0632606 0 -3.8e-09 1.35071e-07 1.59293e-34
1201 9 0.001 0.0175 0 -0.04579 0.0516291 0 -3.8e-09 8.99639e-08 1.59293e-34
1351 10 0.001 0.0225 0 -0.04579 0.0515592 0 -3.8e-09 8.97206e-08 1.59293e-34
2 1 0.001 -0.0225 0 -0.0451524 0.0846698 0 -0.0137443 4.83353e-07 7.83833e-09
3 1 0.001 -0.0224829 0 -0.0445173 2.73095e-06 0 1.2723e-06 7.2052e-07 1.56608e-08
152 2 0.001 -0.0175 0 -0.0451524 0.090491 0 -0.0122335 5.19142e-07 6.15714e-09
153 2 0.001 -0.0174821 0 -0.0445171 -2.39848e-06 0 -1.45167e-06 7.58519e-07 1.22529e-08
302 3 0.001 -0.0125 0 -0.0451524 0.0816726 0 -0.00963913 3.92902e-07 3.78466e-09
303 3 0.001 -0.0124842 0 -0.0445166 -1.4351e-05 0 -5.90276e-07 5.60294e-07 7.49804e-09
452 4 0.001 -0.0075 0 -0.0451524 0.0532254 0 -0.0116742 1.70503e-07 5.62535e-09
453 4 0.001 -0.00748964 0 -0.0445168 9.44469e-07 0 1.98404e-06 2.44754e-07 1.12155e-08
602 5 0.001 -0.0025 0 -0.0451524 0.019246 0 -0.00722049 1.86071e-08 2.15817e-09
603 5 0.001 -0.00249647 0 -0.044516 1.01231e-07 0 -2.16148e-06 2.50708e-08 4.31219e-09
752 6 0.001 0.0025 0 -0.0451524 -0.0144838 0 -0.0068378 1.61452e-08 1.94256e-09
753 6 0.001 0.00249694 0 -0.044516 -1.63125e-06 0 -4.13191e-07 2.51912e-08 3.88709e-09
902 7 0.001 0.0075 0 -0.0451524 -0.033969 0 -0.00892918 8.74651e-08 3.32065e-09
903 7 0.001 0.00749286 0 -0.0445164 1.15479e-06 0 3.12686e-07 1.35708e-07 6.65173e-09
1052 8 0.001 0.0125 0 -0.0451524 -0.0639502 0 -0.00552701 2.66749e-07 1.26116e-09
1053 8 0.001 0.0124872 0 -0.0445159 4.60258e-07 0 7.40793e-08 3.94627e-07 2.51455e-09
1202 9 0.001 0.0175 0 -0.0451524 -0.0517849 0 -0.00570599 1.79062e-07 1.3499e-09
1203 9 0.001 0.0174896 0 -0.0445159 1.01067e-07 0 4.37617e-07 2.66979e-07 2.69731e-09
1352 10 0.001 0.0225 0 -0.0451524 -0.0516026 0 -0.00582997 1.78959e-07 1.41012e-09
1353 10 0.001 0.0224896 0 -0.0445159 1.89745e-07 0 -5.18307e-07 2.67389e-07 2.81902e-09
4 1 0.001 -0.0224488 0 -0.043883 6.45862e-06 0 2.33579e-06 7.09457e-07 1.56162e-08
5 1 0.001 -0.0223978 0 -0.0432497 1.01511e-05 0 3.2696e-06 6.92297e-07 1.55467e-08
6 1 0.001 -0.0223301 0 -0.042618 1.31396e-05 0 4.12361e-06 6.69301e-07 1.54531e-08
154 2 0.001 -0.0174467 0 -0.0438825 -6.84362e-06 0 -2.95074e-06 7.16786e-07 1.21254e-08
155 2 0.001 -0.0173944 0 -0.0432491 -1.32199e-05 0 -4.25248e-06 6.71053e-07 1.19899e-08
156 2 0.001 -0.0173256 0 -0.0426172 -2.11152e-05 0 -5.01336e-06 6.22127e-07 1.18492e-08
304 3 0.001 -0.0124534 0 -0.0438813 -3.87077e-05 0 -1.62855e-07 5.02472e-07 7.35769e-09
305 3 0.001 -0.0124084 0 -0.0432469 -6.89269e-05 0 1.06437e-06 4.45519e-07 7.22347e-09
306 3 0.001 -0.0123501 0 -0.0426136 -0.000101932 0 3.49667e-06 3.90398e-07 7.09834e-09
454 4 0.001 -0.00746936 0 -0.0438815 2.16369e-06 0 3.86313e-06 2.22584e-07 1.11424e-08
455 4 0.001 -0.00743961 0 -0.0432465 3.09312e-06 0 5.85092e-06 1.99911e-07 1.10641e-08
456 4 0.001 -0.0074009 0 -0.0426121 3.4055e-06 0 7.99495e-06 1.77067e-07 1.09816e-08
604 5 0.001 -0.00248977 0 -0.0438797 -9.34101e-07 0 -4.3972e-06 1.95943e-08 4.3058e-09
605 5 0.001 -0.00248027 0 -0.0432434 -3.7696e-06 0 -6.46383e-06 1.47264e-08 4.30317e-09
606 5 0.001 -0.00246835 0 -0.0426071 -8.68717e-06 0 -8.51137e-06 1.05153e-08 4.30434e-09
754 6 0.001 0.00249069 0 -0.0438796 -3.70983e-06 0 -6.95473e-07 2.71169e-08 3.89114e-09
755 6 0.001 0.00248113 0 -0.0432432 -4.33493e-06 0 -1.13458e-06 2.8981e-08 3.89544e-09
756 6 0.001 0.00246815 0 -0.0426069 -2.44609e-06 0 -1.3067e-06 3.07652e-08 3.89995e-09
904 7 0.001 0.00747832 0 -0.0438804 2.17386e-06 0 3.87857e-07 1.44547e-07 6.67198e-09
905 7 0.001 0.00745614 0 -0.0432447 2.71682e-06 0 6.09659e-07 1.52837e-07 6.69082e-09
906 7 0.001 0.00742612 0 -0.0426093 2.15113e-06 0 7.10324e-07 1.60489e-07 6.70799e-09
1054 8 0.001 0.0124618 0 -0.0438797 1.20965e-06 0 2.03068e-07 3.83256e-07 2.49814e-09
1055 8 0.001 0.0124239 0 -0.0432442 2.31903e-06 0 3.78997e-07 3.70756e-07 2.4801e-09
1056 8 0.001 0.0123739 0 -0.0426095 3.78014e-06 0 4.37744e-07 3.57232e-07 2.46068e-09
1206 9 0.001 0.0173962 0 -0.0426084 1.89833e-06 0 1.31775e-06 2.53673e-07 2.67495e-09
1204 9 0.001 0.0174687 0 -0.0438796 3.87464e-07 0 8.85299e-07 2.63445e-07 2.69143e-09
1205 9 0.001 0.0174376 0 -0.0432437 9.057e-07 0 1.10902e-06 2.58996e-07 2.68391e-09
1354 10 0.001 0.0224688 0 -0.0438796 6.56773e-07 0 -8.51029e-07 2.64971e-07 2.81601e-09
1355 10 0.001 0.0224376 0 -0.0432438 1.11732e-06 0 -1.26676e-06 2.61597e-07 2.81194e-09
1356 10 0.001 0.0223962 0 -0.0426085 1.38754e-06 0 -1.75728e-06 2.57298e-07 2.80694e-09
7 1 0.001 -0.0222462 0 -0.0419882 1.41031e-05 0 5.36488e-06 6.40854e-07 1.53368e-08
8 1 0.001 -0.0221463 0 -0.0413608 1.21055e-05 0 7.17951e-06 6.07475e-07 1.51995e-08
157 2 0.001 -0.0172412 0 -0.0419873 -2.98333e-05 0 -5.65551e-06 5.70864e-07 1.17064e-08
158 2 0.001 -0.0171418 0 -0.0413595 -3.99251e-05 0 -6.19526e-06 5.18146e-07 1.15652e-08
307 3 0.001 -0.0122792 0 -0.0419815 -0.000134026 0 6.28831e-06 3.37966e-07 6.9849e-09
308 3 0.001 -0.0121969 0 -0.0413507 -0.000162135 0 8.69936e-06 2.88921e-07 6.8857e-09
457 4 0.001 -0.00735378 0 -0.0419781 2.90731e-06 0 1.02386e-05 1.54395e-07 1.08957e-08
458 4 0.001 -0.00729879 0 -0.0413448 2.01075e-06 0 1.28968e-05 1.32239e-07 1.08071e-08
607 5 0.001 -0.0024544 0 -0.0419709 -1.47468e-05 0 -1.07696e-05 7.00141e-09 4.30956e-09
608 5 0.001 -0.00243879 0 -0.0413347 -2.13963e-05 0 -1.2965e-05 4.21377e-09 4.31904e-09
758 6 0.001 0.00243152 0 -0.0413345 6.50714e-06 0 -1.24529e-06 3.40588e-08 3.90887e-09
757 6 0.001 0.00245164 0 -0.0419706 9.33534e-07 0 -1.25476e-06 3.24584e-08 3.90443e-09
907 7 0.001 0.00738806 0 -0.0419744 -8.30289e-07 0 5.90601e-07 1.67405e-07 6.72335e-09
908 7 0.001 0.00734179 0 -0.04134 -6.20614e-06 0 3.56524e-07 1.73484e-07 6.73657e-09
1057 8 0.001 0.0123119 0 -0.0419758 5.64263e-06 0 6.30712e-07 3.42797e-07 2.44015e-09
1058 8 0.001 0.0122381 0 -0.0413434 7.74815e-06 0 9.19654e-07 3.27575e-07 2.41865e-09
1207 9 0.001 0.0173448 0 -0.0419738 3.15975e-06 0 1.78766e-06 2.47524e-07 2.66458e-09
1208 9 0.001 0.0172834 0 -0.0413402 4.31809e-06 0 2.22703e-06 2.40606e-07 2.65281e-09
1357 10 0.001 0.0223446 0 -0.041974 1.30316e-06 0 -2.03597e-06 2.52107e-07 2.80098e-09
1358 10 0.001 0.0222829 0 -0.0413403 8.90913e-07 0 -2.3633e-06 2.46062e-07 2.79402e-09
9 1 0.001 -0.022031 0 -0.040736 7.26915e-06 0 9.4427e-06 5.69811e-07 1.5044e-08
10 1 0.001 -0.0219009 0 -0.0401141 -8.38582e-07 0 1.24521e-05 5.28623e-07 1.48737e-08
11 1 0.001 -0.0217564 0 -0.0394954 -1.17906e-05 0 1.59856e-05 4.84763e-07 1.46929e-08
159 2 0.001 -0.0170281 0 -0.0407341 -5.12346e-05 0 -5.75086e-06 4.64853e-07 1.14285e-08
160 2 0.001 -0.016901 0 -0.0401113 -6.25954e-05 0 -5.10387e-06 4.11845e-07 1.12986e-08
161 2 0.001 -0.0167613 0 -0.0394912 -7.30339e-05 0 -4.51507e-06 3.59934e-07 1.11783e-08
309 3 0.001 -0.0121038 0 -0.0407215 -0.000182899 0 1.05919e-05 2.43764e-07 6.80232e-09
310 3 0.001 -0.012001 0 -0.0400938 -0.000195137 0 1.12707e-05 2.02788e-07 6.73538e-09
311 3 0.001 -0.0118893 0 -0.0394676 -0.000198341 0 1.0263e-05 1.66101e-07 6.68502e-09
459 4 0.001 -0.00723655 0 -0.0407122 1.48104e-06 0 1.56528e-05 1.10932e-07 1.07164e-08
460 4 0.001 -0.00716767 0 -0.0400802 1.72939e-06 0 1.81874e-05 9.07917e-08 1.06246e-08
461 4 0.001 -0.0070928 0 -0.0394489 2.4266e-06 0 2.08137e-05 7.21129e-08 1.05326e-08
609 5 0.001 -0.00242192 0 -0.0406985 -2.88002e-05 0 -1.52611e-05 2.1665e-09 4.33289e-09
610 5 0.001 -0.00240418 0 -0.0400624 -3.70883e-05 0 -1.75463e-05 8.57348e-10 4.35122e-09
611 5 0.001 -0.00238593 0 -0.0394262 -4.50195e-05 0 -1.9852e-05 2.66686e-10 4.37403e-09
761 6 0.001 0.00234859 0 -0.039427 3.94886e-05 0 8.29884e-08 3.84534e-08 3.92282e-09
760 6 0.001 0.00238007 0 -0.0400627 2.63488e-05 0 -6.09367e-07 3.70285e-08 3.91807e-09
759 6 0.001 0.00240769 0 -0.0406985 1.53012e-05 0 -1.12601e-06 3.55751e-08 3.91342e-09
909 7 0.001 0.00728719 0 -0.0407062 -1.37266e-05 0 -1.48325e-07 1.78608e-07 6.7472e-09
910 7 0.001 0.00722412 0 -0.0400733 -2.3409e-05 0 -9.61772e-07 1.82652e-07 6.75479e-09
911 7 0.001 0.00715252 0 -0.0394412 -3.41346e-05 0 -2.11278e-06 1.85485e-07 6.75889e-09
1059 8 0.001 0.012153 0 -0.0407124 9.9417e-06 0 1.24315e-06 3.11693e-07 2.39643e-09
1060 8 0.001 0.0120567 0 -0.0400831 1.1909e-05 0 1.48466e-06 2.9528e-07 2.37373e-09
1061 8 0.001 0.0119497 0 -0.0394554 1.33297e-05 0 1.6007e-06 2.78464e-07 2.35085e-09
1209 9 0.001 0.0172122 0 -0.0407075 5.26771e-06 0 2.60812e-06 2.3298e-07 2.63982e-09
1211 9 0.001 0.017041 0 -0.0394458 6.34614e-06 0 2.98594e-06 2.15864e-07 2.61094e-09
1210 9 0.001 0.0171313 0 -0.040076 5.95864e-06 0 2.832e-06 2.24711e-07 2.62579e-09
1359 10 0.001 0.0222114 0 -0.0407077 -8.91201e-08 0 -2.67626e-06 2.39202e-07 2.78608e-09
1360 10 0.001 0.02213 0 -0.0400763 -1.57932e-06 0 -3.02943e-06 2.31569e-07 2.77715e-09
1361 10 0.001 0.0220391 0 -0.0394462 -3.65894e-06 0 -3.40762e-06 2.23206e-07 2.76721e-09
12 1 0.001 -0.0215985 0 -0.03888 -2.35739e-05 0 2.00033e-05 4.39134e-07 1.45057e-08
13 1 0.001 -0.0214276 0 -0.038268 -3.5463e-05 0 2.4444e-05 3.92648e-07 1.43158e-08
162 2 0.001 -0.0166098 0 -0.0388738 -8.16414e-05 0 -3.65895e-06 3.09857e-07 1.10696e-08
163 2 0.001 -0.0164476 0 -0.0382592 -8.81431e-05 0 -2.98626e-06 2.6226e-07 1.09737e-08
312 3 0.001 -0.0117696 0 -0.0388428 -0.00019293 0 7.78294e-06 1.33658e-07 6.65072e-09
313 3 0.001 -0.0116427 0 -0.0382195 -0.000180006 0 3.99291e-06 1.05305e-07 6.63117e-09
462 4 0.001 -0.0070126 0 -0.0388183 3.94219e-06 0 2.3753e-05 5.51629e-08 1.04408e-08
463 4 0.001 -0.00692776 0 -0.0381883 5.78436e-06 0 2.65282e-05 4.01822e-08 1.03494e-08
612 5 0.001 -0.00236756 0 -0.0387901 -5.1996e-05 0 -2.19264e-05 3.57579e-10 4.40111e-09
613 5 0.001 -0.00234943 0 -0.038154 -5.69332e-05 0 -2.42338e-05 1.07756e-09 4.43232e-09
763 6 0.001 0.00227376 0 -0.0381563 6.60201e-05 0 1.98984e-06 4.14015e-08 3.93296e-09
762 6 0.001 0.00231317 0 -0.0387915 5.3517e-05 0 1.06672e-06 3.98944e-08 3.92773e-09
913 7 0.001 0.0069835 0 -0.0381804 -5.46152e-05 0 -4.66457e-06 1.87025e-07 6.75481e-09
912 7 0.001 0.00707231 0 -0.0388102 -4.47121e-05 0 -3.44994e-06 1.86979e-07 6.75909e-09
1062 8 0.001 0.0118322 0 -0.0388297 1.39871e-05 0 1.71764e-06 2.61367e-07 2.32794e-09
1063 8 0.001 0.0117046 0 -0.0382059 1.36511e-05 0 1.65769e-06 2.441e-07 2.30511e-09
1212 9 0.001 0.0169415 0 -0.038817 6.37726e-06 0 3.08341e-06 2.06505e-07 2.59539e-09
1213 9 0.001 0.0168329 0 -0.0381896 6.19958e-06 0 3.05242e-06 1.96699e-07 2.57927e-09
1363 10 0.001 0.0218293 0 -0.0381904 -8.30833e-06 0 -4.53418e-06 2.04474e-07 2.7445e-09
1362 10 0.001 0.0219388 0 -0.0388176 -5.96715e-06 0 -3.885e-06 2.14158e-07 2.75629e-09
14 1 0.001 -0.0212447 0 -0.0376594 -4.62424e-05 0 2.88164e-05 3.46188e-07 1.41266e-08
15 1 0.001 -0.0210506 0 -0.0370544 -5.53074e-05 0 3.25491e-05 3.00578e-07 1.39417e-08
16 1 0.001 -0.020846 0 -0.0364528 -6.17094e-05 0 3.54902e-05 2.56557e-07 1.37641e-08
164 2 0.001 -0.0162755 0 -0.0376472 -9.17854e-05 0 -3.32024e-06 2.17693e-07 1.0892e-08
165 2 0.001 -0.0160944 0 -0.0370379 -9.36451e-05 0 -4.17975e-06 1.76611e-07 1.08261e-08
166 2 0.001 -0.0159053 0 -0.036431 -9.32428e-05 0 -5.68829e-06 1.3938e-07 1.07765e-08
314 3 0.001 -0.0115095 0 -0.0375975 -0.000159745 0 -1.61634e-06 8.08248e-08 6.62511e-09
315 3 0.001 -0.0113708 0 -0.0369768 -0.000133386 0 -8.81294e-06 5.99717e-08 6.63141e-09
464 4 0.001 -0.00683897 0 -0.0375588 7.86086e-06 0 2.91831e-05 2.73823e-08 1.02593e-08
465 4 0.001 -0.00674694 0 -0.0369297 1.04335e-05 0 3.19157e-05 1.69456e-08 1.0171e-08
614 5 0.001 -0.00233191 0 -0.0375179 -5.98596e-05 0 -2.68516e-05 2.36222e-09 4.46779e-09
615 5 0.001 -0.00231532 0 -0.0368817 -6.03443e-05 0 -2.9154e-05 4.1399e-09 4.5073e-09
765 6 0.001 0.00218262 0 -0.0368867 8.14484e-05 0 2.87954e-06 4.48012e-08 3.94558e-09
764 6 0.001 0.00223026 0 -0.0375214 7.55385e-05 0 2.65215e-06 4.30235e-08 3.93878e-09
915 7 0.001 0.00678011 0 -0.0369246 -6.90407e-05 0 -6.56081e-06 1.82474e-07 6.73082e-09
914 7 0.001 0.00688608 0 -0.0375518 -6.3087e-05 0 -5.70063e-06 1.85539e-07 6.74547e-09
1064 8 0.001 0.0115673 0 -0.0375841 1.23396e-05 0 1.37111e-06 2.26767e-07 2.28248e-09
1065 8 0.001 0.0114207 0 -0.0369645 1.03001e-05 0 7.69863e-07 2.0946e-07 2.2602e-09
1214 9 0.001 0.0167156 0 -0.0375639 5.73363e-06 0 3.007e-06 1.86511e-07 2.56272e-09
1215 9 0.001 0.0165898 0 -0.0369398 4.92385e-06 0 2.98615e-06 1.76008e-07 2.54577e-09
1364 10 0.001 0.0217109 0 -0.0375649 -1.03114e-05 0 -4.91765e-06 1.94209e-07 2.73187e-09
1365 10 0.001 0.0215838 0 -0.0369411 -1.16566e-05 0 -5.1203e-06 1.8343e-07 2.71831e-09
17 1 0.001 -0.0206318 0 -0.0358545 -6.39757e-05 0 3.71839e-05 2.14767e-07 1.35958e-08
18 1 0.001 -0.0204089 0 -0.0352595 -6.1835e-05 0 3.70822e-05 1.75747e-07 1.34385e-08
167 2 0.001 -0.0157091 0 -0.0358264 -8.96924e-05 0 -7.73986e-06 1.06283e-07 1.07434e-08
168 2 0.001 -0.0155067 0 -0.0352237 -8.42109e-05 0 -1.03874e-05 7.75321e-08 1.07263e-08
316 3 0.001 -0.0112273 0 -0.036357 -0.000103058 0 -1.73519e-05 4.25077e-08 6.64912e-09
317 3 0.001 -0.0110798 0 -0.0357383 -7.23928e-05 0 -2.62304e-05 2.82326e-08 6.67747e-09
318 3 0.001 -0.0109291 0 -0.0351203 -4.23012e-05 0 -3.48761e-05 1.70032e-08 6.71561e-09
466 4 0.001 -0.00665238 0 -0.036301 1.31809e-05 0 3.47191e-05 9.0242e-09 1.00845e-08
467 4 0.001 -0.00655604 0 -0.0356726 1.45325e-05 0 3.7941e-05 3.7399e-09 9.99989e-09
468 4 0.001 -0.00645864 0 -0.0350444 1.36676e-05 0 4.13938e-05 1.1818e-09 9.9174e-09
616 5 0.001 -0.0023 0 -0.0362456 -5.80456e-05 0 -3.10582e-05 6.33677e-09 4.55022e-09
617 5 0.001 -0.00228627 0 -0.0356094 -5.28931e-05 0 -3.30808e-05 8.88208e-09 4.59616e-09
618 5 0.001 -0.00227442 0 -0.0349731 -4.49207e-05 0 -3.51556e-05 1.1713e-08 4.64508e-09
766 6 0.001 0.00213073 0 -0.0362524 8.28016e-05 0 2.72897e-06 4.6762e-08 3.9536e-09
768 6 0.001 0.00201389 0 -0.0349849 7.09295e-05 0 1.63942e-06 5.12494e-08 3.97279e-09
767 6 0.001 0.00207452 0 -0.0356185 7.89944e-05 0 2.47993e-06 4.89152e-08 3.96271e-09
916 7 0.001 0.00666569 0 -0.0362989 -7.18169e-05 0 -7.07989e-06 1.77832e-07 6.711e-09
917 7 0.001 0.00654293 0 -0.0356748 -7.07929e-05 0 -6.85756e-06 1.7167e-07 6.6862e-09
918 7 0.001 0.00641201 0 -0.0350523 -6.60903e-05 0 -6.02154e-06 1.64097e-07 6.65688e-09
1068 8 0.001 0.0109289 0 -0.0351189 3.57244e-06 0 -1.27301e-06 1.58562e-07 2.19657e-09
1067 8 0.001 0.0111011 0 -0.0357319 5.51995e-06 0 -6.80164e-07 1.75272e-07 2.21721e-09
1066 8 0.001 0.0112652 0 -0.0363471 7.89622e-06 0 7.19992e-09 1.92266e-07 2.23843e-09
1216 9 0.001 0.0164557 0 -0.0363174 4.06201e-06 0 3.02157e-06 1.65256e-07 2.52841e-09
1217 9 0.001 0.0163136 0 -0.0356968 3.40378e-06 0 2.93606e-06 1.54321e-07 2.51077e-09
1218 9 0.001 0.0161638 0 -0.035078 3.06429e-06 0 2.66365e-06 1.43274e-07 2.49314e-09
1366 10 0.001 0.0214482 0 -0.0363191 -1.23354e-05 0 -5.11251e-06 1.72213e-07 2.70388e-09
1367 10 0.001 0.0213045 0 -0.0356988 -1.20639e-05 0 -4.91521e-06 1.60646e-07 2.68866e-09
1368 10 0.001 0.021153 0 -0.0350805 -1.06393e-05 0 -4.48864e-06 1.48827e-07 2.67287e-09
19 1 0.001 -0.0201782 0 -0.0346673 -5.57545e-05 0 3.53564e-05 1.39935e-07 1.32934e-08
20 1 0.001 -0.0199405 0 -0.034078 -4.57726e-05 0 3.19732e-05 1.07685e-07 1.31611e-08
21 1 0.001 -0.0196967 0 -0.0334911 -3.24536e-05 0 2.71762e-05 7.92862e-08 1.3042e-08
169 2 0.001 -0.015299 0 -0.0346229 -7.65788e-05 0 -1.37367e-05 5.32765e-08 1.07252e-08
170 2 0.001 -0.0150871 0 -0.0340236 -6.63585e-05 0 -1.83687e-05 3.36165e-08 1.07403e-08
171 2 0.001 -0.0148717 0 -0.0334255 -5.45434e-05 0 -2.36736e-05 1.86132e-08 1.07717e-08
319 3 0.001 -0.0107759 0 -0.0345029 -1.46699e-05 0 -4.31154e-05 8.74281e-09 6.763e-09
320 3 0.001 -0.0106211 0 -0.033886 8.6319e-06 0 -4.99671e-05 3.43855e-09 6.81932e-09
469 4 0.001 -0.00636093 0 -0.0344161 1.10154e-05 0 4.48555e-05 1.40166e-09 9.8375e-09
470 4 0.001 -0.00626364 0 -0.0337879 6.44395e-06 0 4.86883e-05 4.4068e-09 9.76034e-09
619 5 0.001 -0.00226474 0 -0.0343369 -3.38537e-05 0 -3.70503e-05 1.47789e-08 4.69682e-09
620 5 0.001 -0.00225749 0 -0.0337006 -1.88226e-05 0 -3.88074e-05 1.80462e-08 4.75116e-09
770 6 0.001 0.00187896 0 -0.0337192 4.38447e-05 0 -1.46263e-06 5.63015e-08 3.99556e-09
769 6 0.001 0.00194874 0 -0.0343518 5.87747e-05 0 3.50965e-07 5.37301e-08 3.98378e-09
920 7 0.001 0.00612653 0 -0.0338125 -4.73233e-05 0 -1.60136e-06 1.45419e-07 6.58673e-09
919 7 0.001 0.00627313 0 -0.0344315 -5.80698e-05 0 -4.1563e-06 1.55278e-07 6.62353e-09
1070 8 0.001 0.0105619 0 -0.0338994 2.7265e-06 0 -1.49455e-06 1.26369e-07 2.15727e-09
1069 8 0.001 0.0107491 0 -0.0345081 2.54408e-06 0 -1.49011e-06 1.42229e-07 2.17655e-09
1220 9 0.001 0.0158425 0 -0.0338459 2.89585e-06 0 2.57534e-06 1.21134e-07 2.45833e-09
1219 9 0.001 0.0160067 0 -0.034461 2.80747e-06 0 2.55676e-06 1.32187e-07 2.47565e-09
1369 10 0.001 0.020994 0 -0.034464 -8.25492e-06 0 -3.65696e-06 1.36865e-07 2.65665e-09
1370 10 0.001 0.0208277 0 -0.0338495 -4.98343e-06 0 -2.67997e-06 1.24875e-07 2.6402e-09
22 1 0.001 -0.0194478 0 -0.0329063 -1.67172e-05 0 2.11621e-05 5.4981e-08 1.29362e-08
23 1 0.001 -0.0191946 0 -0.0323234 4.42168e-07 0 1.41272e-05 3.49839e-08 1.28442e-08
172 2 0.001 -0.0146539 0 -0.0328282 -4.18015e-05 0 -2.90295e-05 8.30032e-09 1.08191e-08
173 2 0.001 -0.0144346 0 -0.0322316 -2.90665e-05 0 -3.4609e-05 2.69266e-09 1.08822e-08
321 3 0.001 -0.0104652 0 -0.0332693 2.71139e-05 0 -5.55055e-05 1.13223e-09 6.88432e-09
322 3 0.001 -0.0103092 0 -0.0326527 3.95819e-05 0 -5.96836e-05 1.90406e-09 6.95836e-09
323 3 0.001 -0.0101537 0 -0.0320359 4.56374e-05 0 -6.24741e-05 5.85072e-09 7.04221e-09
471 4 0.001 -0.00616752 0 -0.0331594 2.12135e-07 0 5.28192e-05 1.01534e-08 9.68566e-09
472 4 0.001 -0.00607331 0 -0.0325306 -7.50749e-06 0 5.67678e-05 1.85418e-08 9.61341e-09
473 4 0.001 -0.00598175 0 -0.0319014 -1.52929e-05 0 6.01481e-05 2.94145e-08 9.54385e-09
622 5 0.001 -0.00225133 0 -0.032428 2.29597e-05 0 -4.12288e-05 2.51636e-08 4.867e-09
621 5 0.001 -0.00225294 0 -0.0330643 3.37533e-07 0 -4.03713e-05 2.15031e-08 4.808e-09
773 6 0.001 0.0016408 0 -0.0318249 -6.18113e-06 0 -8.0236e-06 6.3739e-08 4.03284e-09
772 6 0.001 0.00172509 0 -0.0324557 1.05738e-05 0 -5.62504e-06 6.14007e-08 4.0204e-09
771 6 0.001 0.00180445 0 -0.0330872 2.76407e-05 0 -3.41994e-06 5.88883e-08 4.00788e-09
923 7 0.001 0.00564328 0 -0.0319665 -6.25502e-06 0 8.77586e-06 1.12031e-07 6.46541e-09
922 7 0.001 0.0058113 0 -0.03258 -2.05927e-05 0 4.88378e-06 1.23543e-07 6.50685e-09
921 7 0.001 0.00597249 0 -0.0331954 -3.45497e-05 0 1.32586e-06 1.34757e-07 6.54752e-09
1071 8 0.001 0.010368 0 -0.033293 4.25293e-06 0 -1.14469e-06 1.11084e-07 2.13894e-09
1073 8 0.001 0.00996145 0 -0.0320861 1.0692e-05 0 9.59009e-07 8.26634e-08 2.10558e-09
1072 8 0.001 0.0101677 0 -0.0326885 6.92328e-06 0 -2.37242e-07 9.64808e-08 2.12166e-09
1223 9 0.001 0.0153107 0 -0.0320114 7.27984e-06 0 3.68965e-06 8.89495e-08 2.40843e-09
1222 9 0.001 0.0154941 0 -0.0326211 5.18867e-06 0 3.23577e-06 9.94366e-08 2.42457e-09
1221 9 0.001 0.0156715 0 -0.0332326 3.65083e-06 0 2.76496e-06 1.10191e-07 2.44127e-09
1373 10 0.001 0.0202894 0 -0.032017 8.3143e-06 0 1.79457e-06 8.99128e-08 2.59173e-09
1371 10 0.001 0.0206547 0 -0.0332368 -1.08382e-06 0 -1.51749e-06 1.12975e-07 2.62381e-09
1372 10 0.001 0.0204751 0 -0.032626 3.3696e-06 0 8.31109e-08 1.01283e-07 2.60761e-09
24 1 0.001 -0.0189381 0 -0.031742 1.7952e-05 0 7.07133e-06 1.94965e-08 1.27661e-08
25 1 0.001 -0.0186791 0 -0.0311616 3.44129e-05 0 5.80578e-07 8.71641e-09 1.2702e-08
26 1 0.001 -0.0184186 0 -0.030582 4.83367e-05 0 -5.1492e-06 2.83928e-09 1.26525e-08
174 2 0.001 -0.0142147 0 -0.0316352 -1.71349e-05 0 -3.95068e-05 1.79014e-09 1.0961e-08
175 2 0.001 -0.013995 0 -0.0310387 -5.86087e-06 0 -4.33988e-05 5.57633e-09 1.10544e-08
176 2 0.001 -0.0137765 0 -0.0304417 4.07197e-06 0 -4.66801e-05 1.40138e-08 1.11618e-08
324 3 0.001 -0.00999961 0 -0.0314188 4.66437e-05 0 -6.40699e-05 1.30613e-08 7.13662e-09
325 3 0.001 -0.00984762 0 -0.0308012 4.39405e-05 0 -6.46458e-05 2.35947e-08 7.24205e-09
474 4 0.001 -0.00589354 0 -0.0312718 -2.31898e-05 0 6.32856e-05 4.25585e-08 9.47693e-09
475 4 0.001 -0.0058094 0 -0.0306415 -3.14742e-05 0 6.61158e-05 5.77092e-08 9.4122e-09
623 5 0.001 -0.0022529 0 -0.0317916 4.68186e-05 0 -4.17793e-05 2.90675e-08 4.92791e-09
624 5 0.001 -0.00225788 0 -0.0311554 6.97274e-05 0 -4.16886e-05 3.32771e-08 4.99058e-09
625 5 0.001 -0.00226652 0 -0.0305191 9.06481e-05 0 -4.16256e-05 3.78708e-08 5.05515e-09
775 6 0.001 0.00145705 0 -0.0305654 -3.50768e-05 0 -1.33435e-05 6.74826e-08 4.05685e-09
774 6 0.001 0.00155147 0 -0.0311948 -2.15754e-05 0 -1.04575e-05 6.57999e-08 4.04496e-09
925 7 0.001 0.0052882 0 -0.0307448 1.93099e-05 0 1.56111e-05 8.9055e-08 6.38392e-09
924 7 0.001 0.0054688 0 -0.0313548 7.31414e-06 0 1.23691e-05 1.00462e-07 6.42414e-09
1075 8 0.001 0.00953313 0 -0.0308868 2.01333e-05 0 4.63531e-06 5.77772e-08 2.07735e-09
1074 8 0.001 0.00974978 0 -0.0314856 1.52262e-05 0 2.62092e-06 6.97321e-08 2.09081e-09
1225 9 0.001 0.0149269 0 -0.0307972 1.24746e-05 0 5.10522e-06 6.90883e-08 2.37841e-09
1224 9 0.001 0.0151215 0 -0.0314035 9.76973e-06 0 4.3679e-06 7.88085e-08 2.39301e-09
1375 10 0.001 0.0199012 0 -0.0308044 1.75857e-05 0 5.3502e-06 6.85492e-08 2.56168e-09
1374 10 0.001 0.020098 0 -0.0314098 1.31474e-05 0 3.63445e-06 7.89696e-08 2.57638e-09
27 1 0.001 -0.0181574 0 -0.0300026 5.87944e-05 0 -9.24744e-06 2.05164e-09 1.26182e-08
28 1 0.001 -0.0178966 0 -0.029423 6.59169e-05 0 -1.16312e-05 6.51619e-09 1.25998e-08
29 1 0.001 -0.017637 0 -0.0288429 6.93827e-05 0 -1.24351e-05 1.63521e-08 1.25974e-08
177 2 0.001 -0.0135601 0 -0.0298441 1.25101e-05 0 -4.96195e-05 2.7037e-08 1.12834e-08
178 2 0.001 -0.0133468 0 -0.0292453 1.82852e-05 0 -5.13277e-05 4.45427e-08 1.14193e-08
326 3 0.001 -0.00969856 0 -0.0301829 3.78174e-05 0 -6.41688e-05 3.74599e-08 7.3586e-09
327 3 0.001 -0.00955322 0 -0.0295637 2.85378e-05 0 -6.28264e-05 5.46001e-08 7.48611e-09
328 3 0.001 -0.00941242 0 -0.0289435 1.6882e-05 0 -6.10496e-05 7.48795e-08 7.62441e-09
476 4 0.001 -0.00573002 0 -0.0300107 -3.91032e-05 0 6.86754e-05 7.45566e-08 9.34899e-09
477 4 0.001 -0.00565607 0 -0.0293792 -4.57942e-05 0 7.05335e-05 9.27546e-08 9.28671e-09
626 5 0.001 -0.00227907 0 -0.029883 0.000107673 0 -4.12372e-05 4.29364e-08 5.12192e-09
627 5 0.001 -0.00229576 0 -0.0292469 0.000119102 0 -4.05578e-05 4.8561e-08 5.19092e-09
776 6 0.001 0.00135746 0 -0.0299368 -4.59834e-05 0 -1.60989e-05 6.86964e-08 4.06863e-09
777 6 0.001 0.00125267 0 -0.0293091 -5.39358e-05 0 -1.84314e-05 6.93666e-08 4.08015e-09
926 7 0.001 0.00510187 0 -0.0301366 2.94198e-05 0 1.84576e-05 7.79967e-08 6.34533e-09
928 7 0.001 0.00471355 0 -0.028925 4.31091e-05 0 2.211e-05 5.75053e-08 6.27492e-09
927 7 0.001 0.00491019 0 -0.02953 3.72202e-05 0 2.0531e-05 6.74403e-08 6.30888e-09
1078 8 0.001 0.00885788 0 -0.0290999 3.29188e-05 0 9.63723e-06 2.84522e-08 2.04617e-09
1077 8 0.001 0.00908671 0 -0.0296941 2.95841e-05 0 8.18123e-06 3.70871e-08 2.05495e-09
1076 8 0.001 0.00931195 0 -0.0302897 2.50963e-05 0 6.4956e-06 4.68757e-08 2.06534e-09
1228 9 0.001 0.0143146 0 -0.028988 1.78361e-05 0 6.55579e-06 4.30909e-08 2.3407e-09
1226 9 0.001 0.0147273 0 -0.0301926 1.50685e-05 0 5.73595e-06 5.98571e-08 2.36478e-09
1227 9 0.001 0.0145231 0 -0.0295896 1.6907e-05 0 6.19932e-06 5.11748e-08 2.35223e-09
1376 10 0.001 0.0196994 0 -0.0302005 2.15616e-05 0 6.87136e-06 5.8733e-08 2.54783e-09
1378 10 0.001 0.0192823 0 -0.0289974 2.69127e-05 0 9.5645e-06 4.11671e-08 2.5229e-09
1377 10 0.001 0.0194929 0 -0.0295983 2.48197e-05 0 8.29761e-06 4.95883e-08 2.53493e-09
30 1 0.001 -0.0173796 0 -0.0282618 6.94327e-05 0 -1.22068e-05 3.16142e-08 1.26122e-08
31 1 0.001 -0.0171254 0 -0.0276793 6.62313e-05 0 -1.05107e-05 5.22723e-08 1.26447e-08
179 2 0.001 -0.0131374 0 -0.0286451 2.15569e-05 0 -5.21649e-05 6.63778e-08 1.15693e-08
180 2 0.001 -0.0129328 0 -0.0280433 2.29407e-05 0 -5.25009e-05 9.23282e-08 1.17332e-08
181 2 0.001 -0.0127339 0 -0.0274396 2.11771e-05 0 -5.15118e-05 1.22106e-07 1.19105e-08
329 3 0.001 -0.00927694 0 -0.0283221 2.69826e-06 0 -5.88029e-05 9.80726e-08 7.77312e-09
330 3 0.001 -0.00914759 0 -0.0276994 -1.36447e-05 0 -5.60786e-05 1.23857e-07 7.93135e-09
478 4 0.001 -0.00558817 0 -0.028747 -5.20845e-05 0 7.14768e-05 1.11931e-07 9.22528e-09
479 4 0.001 -0.00552695 0 -0.0281141 -5.6565e-05 0 7.14837e-05 1.31698e-07 9.16474e-09
480 4 0.001 -0.00547298 0 -0.0274806 -5.83247e-05 0 7.07094e-05 1.51673e-07 9.10492e-09
628 5 0.001 -0.00231687 0 -0.028611 0.000124961 0 -3.98349e-05 5.48225e-08 5.26218e-09
630 5 0.001 -0.00237343 0 -0.0273398 0.000119229 0 -3.85727e-05 6.94617e-08 5.41177e-09
629 5 0.001 -0.00234266 0 -0.0279753 0.000124868 0 -3.92231e-05 6.1779e-08 5.33582e-09
780 6 0.001 0.000907008 0 -0.0274314 -6.78489e-05 0 -2.55217e-05 6.76458e-08 4.1136e-09
779 6 0.001 0.00102743 0 -0.0280563 -6.52231e-05 0 -2.33053e-05 6.88688e-08 4.10248e-09
778 6 0.001 0.00114266 0 -0.0286822 -6.06088e-05 0 -2.09211e-05 6.94365e-08 4.09138e-09
930 7 0.001 0.00430697 0 -0.0277195 5.1211e-05 0 2.38618e-05 3.98341e-08 6.21536e-09
929 7 0.001 0.00451234 0 -0.0283216 4.76266e-05 0 2.33118e-05 4.82817e-08 6.24363e-09
1081 8 0.001 0.00815435 0 -0.0273239 3.30229e-05 0 9.87919e-06 9.59876e-09 2.02962e-09
1080 8 0.001 0.00839125 0 -0.027915 3.49236e-05 0 1.03772e-05 1.47116e-08 2.03354e-09
1079 8 0.001 0.00862591 0 -0.0285069 3.48181e-05 0 1.03842e-05 2.09925e-08 2.03901e-09
1230 9 0.001 0.0138861 0 -0.0277888 1.61509e-05 0 5.5758e-06 2.88622e-08 2.32095e-09
1229 9 0.001 0.0141021 0 -0.0283878 1.76375e-05 0 6.36284e-06 3.56438e-08 2.33023e-09
1380 10 0.001 0.01885 0 -0.0277997 2.70785e-05 0 1.06988e-05 2.66308e-08 2.50134e-09
1379 10 0.001 0.0190679 0 -0.028398 2.77313e-05 0 1.04095e-05 3.35067e-08 2.5117e-09
32 1 0.001 -0.0168753 0 -0.0270951 5.98965e-05 0 -7.56897e-06 7.81923e-08 1.26948e-08
33 1 0.001 -0.0166304 0 -0.0265086 5.07311e-05 0 -3.54845e-06 1.0912e-07 1.27618e-08
34 1 0.001 -0.0163915 0 -0.0259197 3.8805e-05 0 1.66772e-06 1.4467e-07 1.28446e-08
182 2 0.001 -0.0125417 0 -0.0268338 1.73105e-05 0 -4.94925e-05 1.55342e-07 1.20997e-08
183 2 0.001 -0.0123571 0 -0.0262257 1.11632e-05 0 -4.68429e-05 1.91573e-07 1.22993e-08
331 3 0.001 -0.00902514 0 -0.0270754 -3.08624e-05 0 -5.32161e-05 1.51813e-07 8.09772e-09
332 3 0.001 -0.00891037 0 -0.0264499 -4.80058e-05 0 -5.0262e-05 1.81427e-07 8.27033e-09
333 3 0.001 -0.00880401 0 -0.0258229 -6.41891e-05 0 -4.7662e-05 2.1211e-07 8.44701e-09
482 4 0.001 -0.00538891 0 -0.0262117 -5.32606e-05 0 6.74738e-05 1.90814e-07 8.98615e-09
481 4 0.001 -0.0054268 0 -0.0268464 -5.69251e-05 0 6.92039e-05 1.71489e-07 9.04553e-09
632 5 0.001 -0.00245111 0 -0.0260697 9.27861e-05 0 -3.88565e-05 8.69488e-08 5.57068e-09
631 5 0.001 -0.00240948 0 -0.0267045 0.000108958 0 -3.84985e-05 7.78673e-08 5.49005e-09
782 6 0.001 0.000650848 0 -0.0261846 -6.62255e-05 0 -2.91619e-05 6.32748e-08 4.1368e-09
781 6 0.001 0.000781455 0 -0.0268075 -6.81685e-05 0 -2.75691e-05 6.5772e-08 4.12497e-09
933 7 0.001 0.00366974 0 -0.0259206 5.62156e-05 0 2.41553e-05 1.94911e-08 6.14968e-09
932 7 0.001 0.00388528 0 -0.0265191 5.54639e-05 0 2.42905e-05 2.54219e-08 6.16855e-09
931 7 0.001 0.00409781 0 -0.0271187 5.38203e-05 0 2.41524e-05 3.22058e-08 6.19039e-09
1083 8 0.001 0.00767564 0 -0.0261438 2.51373e-05 0 6.89323e-06 2.78906e-09 2.02602e-09
1082 8 0.001 0.00791567 0 -0.0267336 2.95951e-05 0 8.63101e-06 5.63323e-09 2.0271e-09
1233 9 0.001 0.0132204 0 -0.0259985 5.48525e-06 0 9.28001e-07 1.26879e-08 2.30025e-09
1232 9 0.001 0.0134449 0 -0.0265943 9.80477e-06 0 2.89331e-06 1.7371e-08 2.30591e-09
1231 9 0.001 0.0136669 0 -0.027191 1.34238e-05 0 4.50339e-06 2.27664e-08 2.31284e-09
1381 10 0.001 0.018629 0 -0.0272027 2.5114e-05 0 1.054e-05 2.05517e-08 2.49181e-09
1383 10 0.001 0.0181794 0 -0.0260113 1.77718e-05 0 8.54492e-06 1.07933e-08 2.47536e-09
1382 10 0.001 0.0184053 0 -0.0266065 2.19393e-05 0 9.76205e-06 1.52731e-08 2.48313e-09
35 1 0.001 -0.0161597 0 -0.025328 2.43417e-05 0 7.75404e-06 1.84312e-07 1.29412e-08
36 1 0.001 -0.0159359 0 -0.0247332 8.27014e-06 0 1.43444e-05 2.27374e-07 1.3049e-08
184 2 0.001 -0.0121808 0 -0.025615 3.90401e-06 0 -4.32098e-05 2.30247e-07 1.25067e-08
185 2 0.001 -0.0120138 0 -0.0250018 -2.73163e-06 0 -3.96896e-05 2.70731e-07 1.27191e-08
186 2 0.001 -0.0118569 0 -0.024386 -8.26613e-06 0 -3.66445e-05 3.1233e-07 1.29338e-08
334 3 0.001 -0.00870678 0 -0.0251945 -7.91719e-05 0 -4.5481e-05 2.43212e-07 8.62557e-09
335 3 0.001 -0.00861934 0 -0.0245646 -9.23881e-05 0 -4.36325e-05 2.74048e-07 8.8035e-09
484 4 0.001 -0.00533985 0 -0.0249409 -4.18868e-05 0 6.27202e-05 2.26866e-07 8.86658e-09
483 4 0.001 -0.00535979 0 -0.0255765 -4.83875e-05 0 6.53716e-05 2.09357e-07 8.92643e-09
485 4 0.001 -0.00532948 0 -0.0243051 -3.4291e-05 0 5.98711e-05 2.43133e-07 8.80692e-09
634 5 0.001 -0.00255239 0 -0.0248013 4.47172e-05 0 -4.00659e-05 1.06674e-07 5.73603e-09
633 5 0.001 -0.00249864 0 -0.0254352 7.09158e-05 0 -3.93859e-05 9.66054e-08 5.65306e-09
785 6 0.001 0.000229884 0 -0.0243224 -4.93626e-05 0 -3.11922e-05 5.26292e-08 4.17663e-09
784 6 0.001 0.00037492 0 -0.0249421 -5.71203e-05 0 -3.12195e-05 5.66268e-08 4.16247e-09
783 6 0.001 0.000515293 0 -0.0255628 -6.23958e-05 0 -3.03215e-05 6.02037e-08 4.14923e-09
935 7 0.001 0.00323119 0 -0.0247262 5.51137e-05 0 2.32151e-05 1.01573e-08 6.12006e-09
934 7 0.001 0.00345159 0 -0.025323 5.61505e-05 0 2.38589e-05 1.44085e-08 6.13359e-09