ITEM: TIMESTEP
1200000
ITEM: NUMBER OF ATOMS
1500
ITEM: BOX BOUNDS ff ff ff
-2.5000000000000001e-02 2.5000000000000001e-02
-5.0000000000000001e-03 5.0000000000000001e-03
-5.0000000000000003e-02 5.0000000000000003e-02
ITEM: ATOMS id type radius x y z fx fy fz c_bendingE c_stretchingE
1 1 0.001 -0.0225 0 -0.04522 -0.115648 0 -3.8e-09 4.51519e-07 1.59293e-34
2 1 0.001 -0.0225 0 -0.0445824 0.116128 0 -0.0162443 8.94708e-07 1.09148e-08
3 1 0.001 -0.0224767 0 -0.043948 -1.13858e-05 0 1.74157e-06 1.32524e-06 2.17613e-08
151 2 0.001 -0.0175 0 -0.04522 -0.107471 0 -3.8e-09 3.89907e-07 1.59293e-34
152 2 0.001 -0.0175 0 -0.0445824 0.107991 0 -0.0189538 7.71435e-07 1.48668e-08
153 2 0.001 -0.0174783 0 -0.0439483 -2.2614e-07 0 4.86073e-07 1.14018e-06 2.9654e-08
301 3 0.001 -0.0125 0 -0.04522 -0.0732707 0 -3.8e-09 1.81205e-07 1.59293e-34
302 3 0.001 -0.0125 0 -0.0445824 0.0739756 0 -0.0151255 3.57241e-07 9.47085e-09
303 3 0.001 -0.0124852 0 -0.0439475 1.12098e-05 0 2.27282e-06 5.26476e-07 1.89029e-08
451 4 0.001 -0.0075 0 -0.04522 -0.0438273 0 -3.8e-09 6.48277e-08 1.59293e-34
452 4 0.001 -0.0075 0 -0.0445824 0.0463224 0 -0.00905519 1.2215e-07 3.3769e-09
453 4 0.001 -0.00749115 0 -0.0439464 -7.1316e-06 0 2.05482e-06 1.72143e-07 6.7262e-09
601 5 0.001 -0.0025 0 -0.04522 -0.00972691 0 -3.8e-09 3.19302e-09 1.59293e-34
602 5 0.001 -0.0025 0 -0.0445824 0.0105226 0 -0.00994931 5.8678e-09 4.10689e-09
603 5 0.001 -0.00249804 0 -0.0439465 7.6021e-06 0 1.14522e-06 8.0508e-09 8.21083e-09
751 6 0.001 0.0025 0 -0.04522 0.0129187 0 -3.8e-09 5.63233e-09 1.59293e-34
752 6 0.001 0.0025 0 -0.0445824 -0.0115349 0 -0.00942148 1.24955e-08 3.68892e-09
753 6 0.001 0.00249739 0 -0.0439464 -8.38323e-07 0 3.706e-06 2.06653e-08 7.37963e-09
901 7 0.001 0.0075 0 -0.04522 0.0432808 0 -3.8e-09 6.32211e-08 1.59293e-34
902 7 0.001 0.0075 0 -0.0445824 -0.0431102 0 -0.00765055 1.26633e-07 2.43061e-09
903 7 0.001 0.00749125 0 -0.0439462 9.26453e-06 0 -7.7246e-07 1.89955e-07 4.86199e-09
1051 8 0.001 0.0125 0 -0.04522 0.0593985 0 -3.8e-09 1.1908e-07 1.59293e-34
1052 8 0.001 0.0125 0 -0.0445824 -0.0593863 0 -0.00592668 2.37762e-07 1.45763e-09
1053 8 0.001 0.012488 0 -0.0439459 -1.5589e-07 0 2.09995e-07 3.556e-07 2.91371e-09
1201 9 0.001 0.0175 0 -0.04522 0.058364 0 -3.8e-09 1.14968e-07 1.59293e-34
1202 9 0.001 0.0175 0 -0.0445824 -0.0583796 0 -0.0058565 2.29448e-07 1.42308e-09
1203 9 0.001 0.0174882 0 -0.0439459 2.67577e-07 0 2.80788e-08 3.43018e-07 2.84454e-09
1351 10 0.001 0.0225 0 -0.04522 0.0589132 0 -3.8e-09 1.17143e-07 1.59293e-34
1352 10 0.001 0.0225 0 -0.0445824 -0.0589514 0 -0.00578541 2.33704e-07 1.38853e-09
1353 10 0.001 0.0224881 0 -0.0439459 1.52709e-07 0 2.14562e-08 3.49261e-07 2.77525e-09
4 1 0.001 -0.0224303 0 -0.0433148 -3.11007e-05 0 4.3584e-06 1.2877e-06 2.15984e-08
5 1 0.001 -0.0223612 0 -0.0426836 -5.52662e-05 0 7.66976e-06 1.23856e-06 2.13878e-08
154 2 0.001 -0.0174353 0 -0.0433154 3.8706e-07 0 5.30012e-07 1.10214e-06 2.94637e-08
155 2 0.001 -0.0173713 0 -0.0426841 6.59487e-07 0 2.4314e-07 1.05194e-06 2.92142e-08
304 3 0.001 -0.0124559 0 -0.0433131 2.878e-05 0 4.31411e-06 5.06133e-07 1.88117e-08
305 3 0.001 -0.0124123 0 -0.0426795 5.09681e-05 0 5.31939e-06 4.81085e-07 1.86939e-08
454 4 0.001 -0.00747397 0 -0.0433105 -1.83806e-05 0 3.43414e-06 1.50259e-07 6.67122e-09
455 4 0.001 -0.00744902 0 -0.0426749 -3.15549e-05 0 5.57537e-06 1.29213e-07 6.61677e-09
604 5 0.001 -0.00249427 0 -0.0433106 2.13072e-05 0 2.59521e-06 6.5764e-09 8.20375e-09
605 5 0.001 -0.00248889 0 -0.0426747 3.95339e-05 0 4.12914e-06 5.18546e-09 8.19414e-09
754 6 0.001 0.0024919 0 -0.0433104 -2.14702e-06 0 7.28882e-06 2.45681e-08 7.38062e-09
755 6 0.001 0.00248327 0 -0.0426744 -3.89687e-06 0 1.15201e-05 2.86451e-08 7.37587e-09
904 7 0.001 0.00747375 0 -0.0433101 2.52554e-05 0 -9.67069e-07 1.89734e-07 4.86329e-09
905 7 0.001 0.0074475 0 -0.0426743 4.55562e-05 0 -7.25447e-07 1.88826e-07 4.86446e-09
1054 8 0.001 0.012464 0 -0.0433098 -5.11632e-07 0 4.10114e-07 3.53076e-07 2.90949e-09
1055 8 0.001 0.0124281 0 -0.0426742 -1.07854e-06 0 6.02515e-07 3.49235e-07 2.90301e-09
1204 9 0.001 0.0174646 0 -0.0433097 7.01295e-07 0 4.80537e-08 3.40297e-07 2.84036e-09
1205 9 0.001 0.0174293 0 -0.0426741 1.21236e-06 0 7.15061e-08 3.3634e-07 2.83431e-09
1354 10 0.001 0.0224643 0 -0.0433097 3.88411e-07 0 1.95316e-08 3.46256e-07 2.7707e-09
1355 10 0.001 0.0224287 0 -0.0426741 6.43028e-07 0 4.85675e-08 3.42007e-07 2.76429e-09
6 1 0.001 -0.02227 0 -0.0420553 -8.08398e-05 0 1.22807e-05 1.17932e-06 2.11392e-08
7 1 0.001 -0.0221573 0 -0.0414304 -0.000103594 0 1.75046e-05 1.1117e-06 2.08618e-08
156 2 0.001 -0.0172868 0 -0.0420553 -6.78639e-07 0 5.2006e-07 9.90817e-07 2.89124e-08
157 2 0.001 -0.0171826 0 -0.0414294 -3.69586e-06 0 9.68231e-07 9.20308e-07 2.85664e-08
306 3 0.001 -0.0123548 0 -0.042047 7.64518e-05 0 5.69098e-06 4.51571e-07 1.85497e-08
307 3 0.001 -0.0122839 0 -0.0414159 0.000102304 0 5.22482e-06 4.17924e-07 1.83796e-08
456 4 0.001 -0.00741687 0 -0.0420396 -4.40276e-05 0 7.9277e-06 1.09296e-07 6.56323e-09
457 4 0.001 -0.00737811 0 -0.0414047 -5.43234e-05 0 1.00144e-05 9.07543e-08 6.51143e-09
606 5 0.001 -0.00248206 0 -0.0420388 6.06511e-05 0 5.55688e-06 3.88696e-09 8.18187e-09
607 5 0.001 -0.00247398 0 -0.0414029 8.1522e-05 0 6.94461e-06 2.70125e-09 8.16698e-09
756 6 0.001 0.00247124 0 -0.0420385 -4.47367e-06 0 1.56037e-05 3.28423e-08 7.36486e-09
757 6 0.001 0.00245558 0 -0.0414027 -2.71326e-06 0 1.95997e-05 3.71072e-08 7.3477e-09
906 7 0.001 0.00741252 0 -0.042039 6.81302e-05 0 -3.6374e-07 1.8741e-07 4.86635e-09
907 7 0.001 0.00736887 0 -0.0414042 9.04356e-05 0 4.13816e-07 1.85681e-07 4.86984e-09
1056 8 0.001 0.0123803 0 -0.0420394 -1.83662e-06 0 7.5026e-07 3.44103e-07 2.89431e-09
1057 8 0.001 0.0123208 0 -0.0414056 -2.72681e-06 0 8.80394e-07 3.37712e-07 2.88345e-09
1206 9 0.001 0.0173824 0 -0.0420392 1.79176e-06 0 7.92963e-08 3.31185e-07 2.82648e-09
1207 9 0.001 0.017324 0 -0.0414053 2.39523e-06 0 9.81499e-08 3.24877e-07 2.81698e-09
1356 10 0.001 0.0223814 0 -0.0420392 9.18099e-07 0 1.05255e-07 3.36551e-07 2.75605e-09
1357 10 0.001 0.0223224 0 -0.0414053 1.13971e-06 0 1.56402e-07 3.29932e-07 2.74606e-09
8 1 0.001 -0.0220238 0 -0.0408096 -0.000120432 0 2.1608e-05 1.03741e-06 2.05658e-08
9 1 0.001 -0.0218704 0 -0.0401935 -0.000130227 0 2.41623e-05 9.58117e-07 2.02608e-08
10 1 0.001 -0.021698 0 -0.0395823 -0.000130392 0 2.42489e-05 8.75357e-07 1.99542e-08
158 2 0.001 -0.0170594 0 -0.040807 -1.05551e-05 0 2.69657e-06 8.42198e-07 2.81856e-08
159 2 0.001 -0.0169183 0 -0.0401883 -2.04011e-05 0 4.68573e-06 7.5848e-07 2.77811e-08
160 2 0.001 -0.0167601 0 -0.0395738 -3.28326e-05 0 7.89347e-06 6.71286e-07 2.73652e-08
308 3 0.001 -0.0122001 0 -0.0407863 0.000126474 0 4.33825e-06 3.80611e-07 1.81852e-08
309 3 0.001 -0.0121041 0 -0.0401585 0.000144994 0 3.94445e-06 3.40272e-07 1.79684e-08
310 3 0.001 -0.0119965 0 -0.0395325 0.000155559 0 5.52981e-06 2.97741e-07 1.77312e-08
458 4 0.001 -0.00733333 0 -0.0407702 -6.05877e-05 0 1.19918e-05 7.3775e-08 6.46202e-09
459 4 0.001 -0.00728313 0 -0.040136 -6.11384e-05 0 1.33195e-05 5.84847e-08 6.41537e-09
460 4 0.001 -0.00722812 0 -0.0395023 -5.7278e-05 0 1.41306e-05 4.49555e-08 6.37184e-09
608 5 0.001 -0.00246488 0 -0.040767 9.89411e-05 0 8.07695e-06 1.66655e-09 8.14978e-09
609 5 0.001 -0.00245497 0 -0.0401311 0.000110676 0 9.56652e-06 8.42768e-10 8.13042e-09
610 5 0.001 -0.00244451 0 -0.0394953 0.000117266 0 1.06959e-05 3.10665e-10 8.1093e-09
758 6 0.001 0.00243605 0 -0.040767 3.68325e-07 0 2.36344e-05 4.13938e-08 7.32443e-09
760 6 0.001 0.00238454 0 -0.039496 1.13409e-05 0 3.11569e-05 4.9895e-08 7.26056e-09
759 6 0.001 0.00241244 0 -0.0401314 5.17043e-06 0 2.75136e-05 4.56654e-08 7.29523e-09
908 7 0.001 0.00731658 0 -0.04077 0.000109652 0 1.24805e-06 1.83831e-07 4.8756e-09
909 7 0.001 0.00725572 0 -0.0401366 0.000124412 0 2.3591e-06 1.82026e-07 4.88399e-09
910 7 0.001 0.00718634 0 -0.0395041 0.000132936 0 3.05331e-06 1.80388e-07 4.89519e-09
1058 8 0.001 0.0122496 0 -0.040773 -3.64225e-06 0 9.15038e-07 3.30103e-07 2.87053e-09
1059 8 0.001 0.012167 0 -0.0401417 -4.49246e-06 0 9.50715e-07 3.21327e-07 2.85565e-09
1060 8 0.001 0.0120731 0 -0.0395121 -5.16342e-06 0 1.02612e-06 3.11445e-07 2.83888e-09
1208 9 0.001 0.0172541 0 -0.0407725 2.92753e-06 0 6.46747e-08 3.1747e-07 2.80592e-09
1209 9 0.001 0.017173 0 -0.0401411 3.31311e-06 0 8.8471e-08 3.09026e-07 2.79342e-09
1210 9 0.001 0.0170808 0 -0.0395112 3.56937e-06 0 1.28199e-07 2.99612e-07 2.77955e-09
1358 10 0.001 0.0222519 0 -0.0407726 1.25146e-06 0 1.03088e-07 3.22203e-07 2.73446e-09
1359 10 0.001 0.0221702 0 -0.0401413 1.24011e-06 0 8.52508e-08 3.13422e-07 2.72138e-09
1360 10 0.001 0.0220772 0 -0.0395114 1.1851e-06 0 1.09324e-07 3.03657e-07 2.70687e-09
11 1 0.001 -0.0215076 0 -0.0389765 -0.000121371 0 2.18342e-05 7.90495e-07 1.96507e-08
12 1 0.001 -0.0213003 0 -0.0383762 -0.000103672 0 1.61922e-05 7.04733e-07 1.93535e-08
161 2 0.001 -0.0165862 0 -0.0389635 -4.61945e-05 0 1.10462e-05 5.82798e-07 2.69499e-08
162 2 0.001 -0.0163975 0 -0.0383576 -5.83942e-05 0 1.35081e-05 4.95158e-07 2.6548e-08
311 3 0.001 -0.0118781 0 -0.0389085 0.000156146 0 8.93927e-06 2.54049e-07 1.74767e-08
312 3 0.001 -0.0117498 0 -0.0382864 0.000146639 0 1.33124e-05 2.10393e-07 1.72115e-08
461 4 0.001 -0.00716889 0 -0.0388689 -4.96986e-05 0 1.47794e-05 3.32186e-08 6.33129e-09
462 4 0.001 -0.00710606 0 -0.0382359 -3.83098e-05 0 1.50229e-05 2.32812e-08 6.29342e-09
611 5 0.001 -0.00243378 0 -0.0388594 0.000119128 0 1.18767e-05 1.67304e-10 8.08713e-09
612 5 0.001 -0.00242308 0 -0.0382236 0.000117792 0 1.29344e-05 5.19318e-10 8.06442e-09
762 6 0.001 0.00231512 0 -0.0382258 2.44405e-05 0 3.80675e-05 5.81701e-08 7.1765e-09
761 6 0.001 0.00235216 0 -0.0388608 1.78866e-05 0 3.47422e-05 5.40661e-08 7.22084e-09
912 7 0.001 0.00702221 0 -0.0382421 0.000129019 0 2.00623e-06 1.77836e-07 4.92692e-09
911 7 0.001 0.00710848 0 -0.0388726 0.000134216 0 2.84028e-06 1.78988e-07 4.90951e-09
1061 8 0.001 0.0119681 0 -0.0388842 -5.57231e-06 0 1.06349e-06 3.00531e-07 2.82038e-09
1062 8 0.001 0.0118522 0 -0.0382582 -5.67471e-06 0 1.16048e-06 2.88666e-07 2.8003e-09
1211 9 0.001 0.0169778 0 -0.0388829 3.71034e-06 0 9.34131e-08 2.89302e-07 2.76445e-09
1212 9 0.001 0.0168641 0 -0.0382566 3.69654e-06 0 3.7584e-08 2.78174e-07 2.74827e-09
1362 10 0.001 0.0218587 0 -0.0382571 9.42919e-07 0 7.85586e-08 2.81468e-07 2.67405e-09
1361 10 0.001 0.0219733 0 -0.0388833 1.09447e-06 0 8.6469e-08 2.9298e-07 2.69105e-09
13 1 0.001 -0.0210772 0 -0.0377817 -7.81795e-05 0 7.26628e-06 6.19144e-07 1.90647e-08
14 1 0.001 -0.0208394 0 -0.0371928 -4.77066e-05 0 -4.37667e-06 5.34722e-07 1.87857e-08
15 1 0.001 -0.020588 0 -0.0366096 -1.56916e-05 0 -1.73612e-05 4.5245e-07 1.8518e-08
163 2 0.001 -0.0161955 0 -0.037756 -6.82889e-05 0 1.57103e-05 4.10381e-07 2.61698e-08
164 2 0.001 -0.0159814 0 -0.0371586 -7.44774e-05 0 1.74086e-05 3.30301e-07 2.58224e-08
165 2 0.001 -0.0157565 0 -0.0365651 -7.76116e-05 0 1.76571e-05 2.56528e-07 2.55124e-08
313 3 0.001 -0.0116125 0 -0.0376662 0.000128754 0 1.97438e-05 1.68071e-07 1.69429e-08
314 3 0.001 -0.0114672 0 -0.0370478 0.000105728 0 2.7613e-05 1.28394e-07 1.66769e-08
315 3 0.001 -0.011315 0 -0.0364311 7.79605e-05 0 3.63611e-05 9.26036e-08 1.64199e-08
463 4 0.001 -0.00704022 0 -0.0376032 -2.3659e-05 0 1.45248e-05 1.51387e-08 6.25827e-09
464 4 0.001 -0.00697197 0 -0.0369707 -7.79797e-06 0 1.37104e-05 8.78753e-09 6.22603e-09
613 5 0.001 -0.00241274 0 -0.0375877 0.000114268 0 1.36473e-05 1.47611e-09 8.04204e-09
614 5 0.001 -0.0024031 0 -0.0369518 0.000109027 0 1.40314e-05 3.14351e-09 8.02093e-09
764 6 0.001 0.00222637 0 -0.0369568 3.67247e-05 0 4.39912e-05 6.61729e-08 7.07662e-09
763 6 0.001 0.00227325 0 -0.0375912 3.11294e-05 0 4.09603e-05 6.22051e-08 7.1283e-09
915 7 0.001 0.00671324 0 -0.0363585 8.23289e-05 0 -4.63321e-06 1.75176e-07 4.9917e-09
914 7 0.001 0.00682455 0 -0.036985 0.000101687 0 -1.70329e-06 1.76045e-07 4.96879e-09
913 7 0.001 0.00692755 0 -0.0376129 0.000117828 0 4.49601e-07 1.76887e-07 4.94694e-09
1063 8 0.001 0.0117258 0 -0.0376343 -5.4463e-06 0 1.32598e-06 2.75947e-07 2.7788e-09
1064 8 0.001 0.011589 0 -0.0370125 -4.83144e-06 0 1.54275e-06 2.62476e-07 2.75609e-09
1065 8 0.001 0.0114422 0 -0.036393 -3.93725e-06 0 1.81834e-06 2.48368e-07 2.73237e-09
1213 9 0.001 0.01674 0 -0.0376321 3.49995e-06 0 -4.46918e-09 2.66309e-07 2.73112e-09
1214 9 0.001 0.0166057 0 -0.0370098 3.1167e-06 0 -6.88983e-08 2.53791e-07 2.71309e-09
1215 9 0.001 0.0164615 0 -0.0363897 2.60791e-06 0 -1.67713e-07 2.40709e-07 2.69431e-09
1363 10 0.001 0.0217337 0 -0.0376329 7.3141e-07 0 9.17966e-08 2.69207e-07 2.65598e-09
1364 10 0.001 0.0215984 0 -0.0370108 4.91531e-07 0 9.31486e-08 2.56286e-07 2.63696e-09
1365 10 0.001 0.0214532 0 -0.0363909 2.71929e-07 0 8.27428e-08 2.42796e-07 2.61714e-09
16 1 0.001 -0.0203244 0 -0.0360318 1.49541e-05 0 -3.01363e-05 3.73363e-07 1.82626e-08
17 1 0.001 -0.0200496 0 -0.0354591 4.30702e-05 0 -4.22553e-05 2.98585e-07 1.80216e-08
18 1 0.001 -0.0197651 0 -0.0348913 6.71712e-05 0 -5.25803e-05 2.29347e-07 1.77977e-08
166 2 0.001 -0.0155221 0 -0.0359753 -7.65157e-05 0 1.578e-05 1.90439e-07 2.52464e-08
167 2 0.001 -0.0152798 0 -0.0353887 -7.07768e-05 0 1.19478e-05 1.33169e-07 2.50288e-08
316 3 0.001 -0.0111569 0 -0.0358158 4.80909e-05 0 4.60702e-05 6.17946e-08 1.61774e-08
317 3 0.001 -0.0109941 0 -0.0352018 1.86903e-05 0 5.54196e-05 3.68561e-08 1.59534e-08
465 4 0.001 -0.00690191 0 -0.0363384 7.72312e-06 0 1.30742e-05 4.23514e-09 6.19656e-09
466 4 0.001 -0.00683065 0 -0.0357063 2.15291e-05 0 1.25289e-05 1.50547e-09 6.16975e-09
467 4 0.001 -0.00675879 0 -0.0350742 3.14636e-05 0 1.21191e-05 6.38351e-10 6.14593e-09
615 5 0.001 -0.00239455 0 -0.0363159 0.000101272 0 1.43607e-05 5.61748e-09 8.0018e-09
616 5 0.001 -0.00238745 0 -0.03568 9.18402e-05 0 1.46925e-05 8.9779e-09 7.98498e-09
617 5 0.001 -0.00238222 0 -0.0350441 8.18352e-05 0 1.50639e-05 1.32833e-08 7.97062e-09
767 6 0.001 0.00205429 0 -0.0350565 4.67577e-05 0 5.12833e-05 7.77075e-08 6.90531e-09
766 6 0.001 0.00211704 0 -0.0356894 4.57968e-05 0 4.87797e-05 7.39232e-08 6.96498e-09
765 6 0.001 0.00217435 0 -0.0363229 4.19394e-05 0 4.63605e-05 7.00778e-08 7.022e-09
917 7 0.001 0.00646587 0 -0.0351102 3.60474e-05 0 -1.1847e-05 1.72673e-07 5.03686e-09
916 7 0.001 0.00659366 0 -0.0357336 5.97133e-05 0 -8.14157e-06 1.74113e-07 5.01478e-09
1067 8 0.001 0.0111196 0 -0.0351613 -1.54457e-06 0 2.57914e-06 2.1872e-07 2.6828e-09
1066 8 0.001 0.0112856 0 -0.035776 -2.82293e-06 0 2.18812e-06 2.33741e-07 2.70787e-09
1216 9 0.001 0.0163078 0 -0.0357719 2.0236e-06 0 -2.83467e-07 2.27153e-07 2.67491e-09
1217 9 0.001 0.0161447 0 -0.0351565 1.42541e-06 0 -4.10494e-07 2.13216e-07 2.65501e-09
1366 10 0.001 0.0212983 0 -0.0357734 1.07149e-07 0 1.13641e-07 2.28835e-07 2.59666e-09
1367 10 0.001 0.0211342 0 -0.0351582 2.48111e-08 0 1.81323e-07 2.14505e-07 2.57565e-09
19 1 0.001 -0.019472 0 -0.0343278 8.61034e-05 0 -6.0596e-05 1.66964e-07 1.75944e-08
20 1 0.001 -0.0191717 0 -0.0337681 9.79848e-05 0 -6.5015e-05 1.12811e-07 1.74163e-08
168 2 0.001 -0.0150307 0 -0.0348049 -6.16872e-05 0 6.57278e-06 8.56273e-08 2.48625e-08
169 2 0.001 -0.0147764 0 -0.0342233 -4.86737e-05 0 5.93132e-07 4.85144e-08 2.4748e-08
170 2 0.001 -0.0145182 0 -0.0336435 -3.29325e-05 0 -6.44927e-06 2.23484e-08 2.46846e-08
318 3 0.001 -0.0108276 0 -0.0345887 -6.44899e-06 0 6.41457e-05 1.84305e-08 1.57507e-08
319 3 0.001 -0.0106587 0 -0.0339762 -2.45976e-05 0 7.08908e-05 6.89955e-09 1.55703e-08
320 3 0.001 -0.0104885 0 -0.0333642 -3.60459e-05 0 7.53152e-05 2.40023e-09 1.5413e-08
468 4 0.001 -0.00668696 0 -0.0344421 3.50748e-05 0 1.19357e-05 1.68202e-09 6.12578e-09
469 4 0.001 -0.00661576 0 -0.0338099 3.3336e-05 0 1.2165e-05 4.67988e-09 6.10991e-09
618 5 0.001 -0.00237928 0 -0.0344081 7.22276e-05 0 1.56751e-05 1.85679e-08 7.95857e-09
619 5 0.001 -0.00237905 0 -0.0337722 6.32801e-05 0 1.61103e-05 2.48408e-08 7.94875e-09
768 6 0.001 0.00198597 0 -0.0344241 4.44135e-05 0 5.2999e-05 8.14172e-08 6.84312e-09
769 6 0.001 0.00191195 0 -0.0337923 3.89391e-05 0 5.40097e-05 8.50216e-08 6.77892e-09
918 7 0.001 0.0063299 0 -0.0344886 1.27273e-05 0 -1.54962e-05 1.70667e-07 5.05675e-09
919 7 0.001 0.00618584 0 -0.0338689 -9.05051e-06 0 -1.8858e-05 1.67915e-07 5.07332e-09
1068 8 0.001 0.0109446 0 -0.0345492 -1.48961e-07 0 2.99123e-06 2.03432e-07 2.65741e-09
1070 8 0.001 0.0105689 0 -0.0333327 2.49258e-06 0 3.87134e-06 1.72557e-07 2.60654e-09
1069 8 0.001 0.0107609 0 -0.0339397 1.23624e-06 0 3.43474e-06 1.88002e-07 2.63193e-09
1220 9 0.001 0.0156033 0 -0.0333251 -2.40312e-07 0 -6.23373e-07 1.70093e-07 2.59356e-09
1219 9 0.001 0.0157921 0 -0.033933 2.7208e-07 0 -5.86548e-07 1.84587e-07 2.61423e-09
1218 9 0.001 0.0159727 0 -0.0345435 8.19161e-07 0 -5.18313e-07 1.98995e-07 2.63475e-09
1368 10 0.001 0.0209611 0 -0.0345456 -5.39007e-08 0 2.51714e-07 1.99909e-07 2.55426e-09
1369 10 0.001 0.0207793 0 -0.0339354 -1.04472e-07 0 3.43861e-07 1.85152e-07 2.53264e-09
1370 10 0.001 0.0205893 0 -0.0333277 -8.22889e-08 0 4.41502e-07 1.70341e-07 2.51095e-09
21 1 0.001 -0.0188656 0 -0.0332115 0.000102142 0 -6.52752e-05 6.82721e-08 1.72685e-08
22 1 0.001 -0.018555 0 -0.0326574 9.85166e-05 0 -6.15636e-05 3.4668e-08 1.71563e-08
23 1 0.001 -0.0182414 0 -0.0321051 8.78558e-05 0 -5.35766e-05 1.3172e-08 1.70848e-08
171 2 0.001 -0.0142575 0 -0.0330648 -1.6565e-05 0 -1.3806e-05 7.48398e-09 2.46728e-08
172 2 0.001 -0.0139958 0 -0.0324865 9.77295e-07 0 -2.19631e-05 4.12805e-09 2.47134e-08
173 2 0.001 -0.0137343 0 -0.0319082 1.86633e-05 0 -2.91174e-05 1.23475e-08 2.48057e-08
321 3 0.001 -0.0103181 0 -0.0327521 -4.15048e-05 0 7.72374e-05 4.86094e-09 1.52795e-08
322 3 0.001 -0.0101487 0 -0.0321398 -4.12383e-05 0 7.68485e-05 1.40464e-08 1.51702e-08
470 4 0.001 -0.00654583 0 -0.0331776 2.73273e-05 0 1.27179e-05 9.65459e-09 6.09863e-09
471 4 0.001 -0.00647779 0 -0.0325451 1.84902e-05 0 1.3493e-05 1.65941e-08 6.09209e-09
472 4 0.001 -0.00641227 0 -0.0319123 6.06369e-06 0 1.4182e-05 2.54402e-08 6.09046e-09
620 5 0.001 -0.00238196 0 -0.0331362 5.49111e-05 0 1.64046e-05 3.20861e-08 7.94133e-09
622 5 0.001 -0.00239895 0 -0.0318644 4.14138e-05 0 1.56771e-05 4.93171e-08 7.93495e-09
621 5 0.001 -0.00238845 0 -0.0325003 4.79589e-05 0 1.63125e-05 4.02651e-08 7.93655e-09
770 6 0.001 0.00183212 0 -0.0331613 2.97573e-05 0 5.44269e-05 8.84699e-08 6.71288e-09
772 6 0.001 0.00165459 0 -0.0319015 5.07784e-06 0 5.36765e-05 9.45954e-08 6.57527e-09
771 6 0.001 0.00174637 0 -0.032531 1.81173e-05 0 5.40282e-05 9.16906e-08 6.64509e-09
920 7 0.001 0.00603376 0 -0.033251 -2.81401e-05 0 -2.18247e-05 1.64264e-07 5.08569e-09
922 7 0.001 0.00570605 0 -0.0320214 -5.61122e-05 0 -2.56386e-05 1.53857e-07 5.0955e-09
921 7 0.001 0.00587379 0 -0.0326352 -4.37738e-05 0 -2.40708e-05 1.59601e-07 5.09323e-09
1071 8 0.001 0.0103689 0 -0.0327282 3.57707e-06 0 4.2412e-06 1.57218e-07 2.58146e-09
1072 8 0.001 0.0101613 0 -0.0321263 4.39658e-06 0 4.48854e-06 1.42102e-07 2.55688e-09
1222 9 0.001 0.0152022 0 -0.0321166 -8.01742e-07 0 -5.0152e-07 1.41252e-07 2.55231e-09
1221 9 0.001 0.0154065 0 -0.0327196 -6.22296e-07 0 -5.99834e-07 1.55614e-07 2.57288e-09
1372 10 0.001 0.0201859 0 -0.03212 1.90063e-07 0 7.18154e-07 1.40981e-07 2.46798e-09
1371 10 0.001 0.0203914 0 -0.0327226 4.26114e-08 0 5.73943e-07 1.55582e-07 2.48934e-09
24 1 0.001 -0.0179262 0 -0.0315536 7.24817e-05 0 -4.14711e-05 4.71998e-09 1.70564e-08
25 1 0.001 -0.0176107 0 -0.0310023 5.23104e-05 0 -2.68159e-05 9.92861e-09 1.70727e-08
26 1 0.001 -0.0172965 0 -0.0304502 2.98635e-05 0 -1.15726e-05 2.90322e-08 1.7136e-08
174 2 0.001 -0.0134745 0 -0.0313291 3.4257e-05 0 -3.56582e-05 3.20678e-08 2.49492e-08
175 2 0.001 -0.0132177 0 -0.0307486 4.61491e-05 0 -4.15262e-05 6.3061e-08 2.51454e-08
323 3 0.001 -0.00998143 0 -0.0315268 -3.62386e-05 0 7.45215e-05 2.9601e-08 1.50846e-08
324 3 0.001 -0.00981736 0 -0.030913 -2.66778e-05 0 7.10224e-05 5.10885e-08 1.50217e-08
473 4 0.001 -0.00634991 0 -0.0312792 -8.80863e-06 0 1.45755e-05 3.60801e-08 6.09408e-09
474 4 0.001 -0.00629131 0 -0.0306458 -2.4456e-05 0 1.46922e-05 4.83425e-08 6.10296e-09
624 5 0.001 -0.00243371 0 -0.030593 2.75348e-05 0 1.41731e-05 6.96905e-08 7.94152e-09
623 5 0.001 -0.0024139 0 -0.0312286 3.46551e-05 0 1.50256e-05 5.91603e-08 7.93668e-09
774 6 0.001 0.00145263 0 -0.0306455 -2.17538e-05 0 5.17942e-05 9.90605e-08 6.42793e-09
773 6 0.001 0.0015567 0 -0.031273 -8.23758e-06 0 5.30481e-05 9.7086e-08 6.50287e-09
924 7 0.001 0.005348 0 -0.0308003 -7.14779e-05 0 -2.57903e-05 1.39103e-07 5.08286e-09
923 7 0.001 0.00553072 0 -0.0314098 -6.52561e-05 0 -2.62881e-05 1.47013e-07 5.09217e-09
1075 8 0.001 0.00949753 0 -0.0303355 4.84355e-06 0 4.58739e-06 9.91503e-08 2.4877e-09
1074 8 0.001 0.00972526 0 -0.03093 5.00837e-06 0 4.72009e-06 1.12968e-07 2.50986e-09
1073 8 0.001 0.00994667 0 -0.031527 4.87009e-06 0 4.6651e-06 1.27317e-07 2.53297e-09
1223 9 0.001 0.0149908 0 -0.031516 -7.73489e-07 0 -3.34534e-07 1.27111e-07 2.53199e-09
1225 9 0.001 0.0145481 0 -0.0303221 -4.27119e-08 0 1.6931e-07 9.99e-08 2.49277e-09
1224 9 0.001 0.0147726 0 -0.0309179 -5.10312e-07 0 -1.11222e-07 1.13293e-07 2.51209e-09
1373 10 0.001 0.0199733 0 -0.0315198 3.25694e-07 0 8.4551e-07 1.26643e-07 2.44702e-09
1375 10 0.001 0.0195284 0 -0.0303267 6.32911e-07 0 1.03961e-06 9.91595e-08 2.4069e-09
1374 10 0.001 0.019754 0 -0.0309221 4.60239e-07 0 9.5517e-07 1.1267e-07 2.42661e-09
27 1 0.001 -0.0169851 0 -0.0298966 6.41849e-06 0 3.91662e-06 6.18439e-08 1.72467e-08
28 1 0.001 -0.0166778 0 -0.0293407 -1.47879e-05 0 1.77686e-05 1.0775e-07 1.74029e-08
29 1 0.001 -0.0163762 0 -0.0287817 -3.22581e-05 0 2.93327e-05 1.65736e-07 1.7601e-08
176 2 0.001 -0.0129655 0 -0.0301662 5.36169e-05 0 -4.47573e-05 1.04922e-07 2.53945e-08
177 2 0.001 -0.0127191 0 -0.0295813 5.7149e-05 0 -4.54779e-05 1.57037e-07 2.56931e-08
178 2 0.001 -0.01248 0 -0.0289934 5.74187e-05 0 -4.42933e-05 2.18559e-07 2.60369e-08
325 3 0.001 -0.0096576 0 -0.0302981 -1.427e-05 0 6.64666e-05 7.80245e-08 1.49798e-08
326 3 0.001 -0.00950321 0 -0.0296818 -1.49035e-06 0 6.12192e-05 1.09897e-07 1.49584e-08
327 3 0.001 -0.00935523 0 -0.0290639 9.59091e-06 0 5.52324e-05 1.46171e-07 1.49579e-08
475 4 0.001 -0.00623708 0 -0.0300119 -3.83955e-05 0 1.50469e-05 6.20025e-08 6.11627e-09
476 4 0.001 -0.00618783 0 -0.0293777 -4.90578e-05 0 1.4483e-05 7.67945e-08 6.13331e-09
625 5 0.001 -0.00245882 0 -0.0299575 1.65689e-05 0 1.30264e-05 8.0774e-08 7.94925e-09
626 5 0.001 -0.00248962 0 -0.0293223 3.18872e-06 0 1.16654e-05 9.22421e-08 7.95937e-09
776 6 0.001 0.00122574 0 -0.0293936 -4.13114e-05 0 5.10482e-05 1.01092e-07 6.26919e-09
775 6 0.001 0.00134232 0 -0.030019 -3.35185e-05 0 5.09382e-05 1.00422e-07 6.35026e-09
927 7 0.001 0.00475785 0 -0.028985 -6.91947e-05 0 -1.80453e-05 1.10003e-07 5.01959e-09
926 7 0.001 0.00496129 0 -0.0295879 -7.39647e-05 0 -2.16607e-05 1.20448e-07 5.04612e-09
925 7 0.001 0.0051581 0 -0.030193 -7.44958e-05 0 -2.434e-05 1.30205e-07 5.06744e-09
1077 8 0.001 0.00902483 0 -0.0291531 3.57198e-06 0 3.94264e-06 7.34577e-08 2.44675e-09
1076 8 0.001 0.00926391 0 -0.0297432 4.35162e-06 0 4.3294e-06 8.59528e-08 2.46663e-09
1227 9 0.001 0.0140817 0 -0.0291373 1.02105e-06 0 8.2121e-07 7.47743e-08 2.45642e-09
1226 9 0.001 0.0143177 0 -0.0297286 4.69975e-07 0 4.93277e-07 8.70291e-08 2.47417e-09
1376 10 0.001 0.0192969 0 -0.0297336 8.17301e-07 0 1.13039e-06 8.62056e-08 2.38805e-09
1377 10 0.001 0.0190599 0 -0.0291427 1.02344e-06 0 1.21498e-06 7.38978e-08 2.37018e-09
30 1 0.001 -0.0160818 0 -0.0282189 -4.5519e-05 0 3.82772e-05 2.3444e-07 1.78358e-08
31 1 0.001 -0.0157959 0 -0.0276517 -5.34724e-05 0 4.3876e-05 3.12225e-07 1.81012e-08
179 2 0.001 -0.0122496 0 -0.0284021 5.43673e-05 0 -4.09798e-05 2.88391e-07 2.64204e-08
180 2 0.001 -0.0120292 0 -0.027807 4.86758e-05 0 -3.65348e-05 3.65182e-07 2.68366e-08
328 3 0.001 -0.00921468 0 -0.0284443 1.65209e-05 0 4.9478e-05 1.86281e-07 1.49789e-08
329 3 0.001 -0.00908257 0 -0.0278228 1.69848e-05 0 4.54033e-05 2.29601e-07 1.50203e-08
477 4 0.001 -0.00614411 0 -0.028743 -5.41213e-05 0 1.33532e-05 9.24346e-08 6.15372e-09
478 4 0.001 -0.00610648 0 -0.028108 -5.15714e-05 0 1.22767e-05 1.08648e-07 6.17643e-09
479 4 0.001 -0.00607545 0 -0.0274726 -4.22672e-05 0 1.08451e-05 1.25194e-07 6.20054e-09
627 5 0.001 -0.0025265 0 -0.0286874 -1.24818e-05 0 9.91494e-06 1.03886e-07 7.97127e-09
629 5 0.001 -0.00262 0 -0.027419 -5.03396e-05 0 5.68373e-06 1.2667e-07 7.99655e-09
628 5 0.001 -0.00256985 0 -0.0280529 -3.05928e-05 0 7.98503e-06 1.15456e-07 7.98404e-09
777 6 0.001 0.00110288 0 -0.0287694 -4.57389e-05 0 5.13406e-05 1.01018e-07 6.1846e-09
779 6 0.001 0.00083841 0 -0.0275249 -4.54573e-05 0 5.34312e-05 9.85913e-08 6.00644e-09
778 6 0.001 0.00097376 0 -0.0281465 -4.73926e-05 0 5.18341e-05 1.0018e-07 6.09698e-09
929 7 0.001 0.0043324 0 -0.0277857 -5.10253e-05 0 -7.41907e-06 8.78993e-08 4.95443e-09
928 7 0.001 0.00454811 0 -0.0283843 -6.15227e-05 0 -1.35343e-05 9.90757e-08 4.98887e-09
1080 8 0.001 0.00827913 0 -0.0273947 4.2161e-07 0 2.2638e-06 4.09202e-08 2.39515e-09
1078 8 0.001 0.00878071 0 -0.0285651 2.58096e-06 0 3.45266e-06 6.17412e-08 2.42815e-09
1079 8 0.001 0.008532 0 -0.027979 1.48846e-06 0 2.86922e-06 5.08735e-08 2.41092e-09
1228 9 0.001 0.0138407 0 -0.028548 1.57384e-06 0 1.18249e-06 6.32236e-08 2.43965e-09
1230 9 0.001 0.0133451 0 -0.027375 2.28569e-06 0 1.69966e-06 4.25533e-08 2.40945e-09
1229 9 0.001 0.013595 0 -0.0279606 2.03592e-06 0 1.46857e-06 5.24585e-08 2.42396e-09
1380 10 0.001 0.0183203 0 -0.0273816 1.27425e-06 0 1.32932e-06 4.16621e-08 2.32349e-09
1379 10 0.001 0.0185712 0 -0.0279668 1.27821e-06 0 1.31329e-06 5.15513e-08 2.3378e-09
1378 10 0.001 0.0188179 0 -0.0285538 1.17393e-06 0 1.28649e-06 6.23204e-08 2.35339e-09
32 1 0.001 -0.0155201 0 -0.0270796 -5.55905e-05 0 4.63512e-05 3.97263e-07 1.83907e-08
33 1 0.001 -0.0152556 0 -0.0265022 -5.0039e-05 0 4.46819e-05 4.87629e-07 1.86974e-08
34 1 0.001 -0.015004 0 -0.0259191 -3.85e-05 0 4.0185e-05 5.81395e-07 1.90151e-08
181 2 0.001 -0.0118201 0 -0.0272078 4.09697e-05 0 -3.16367e-05 4.47332e-07 2.72785e-08
182 2 0.001 -0.0116237 0 -0.0266044 3.12455e-05 0 -2.61648e-05 5.33019e-07 2.77377e-08
183 2 0.001 -0.0114413 0 -0.0259967 2.08865e-05 0 -1.98913e-05 6.20235e-07 2.82029e-08
330 3 0.001 -0.00895985 0 -0.0271994 1.08856e-05 0 4.31079e-05 2.75419e-07 1.5079e-08
331 3 0.001 -0.00884746 0 -0.0265741 9.0981e-08 0 4.11023e-05 3.22914e-07 1.5152e-08
332 3 0.001 -0.00874631 0 -0.0259469 -1.36902e-05 0 3.97519e-05 3.71161e-07 1.52359e-08
481 4 0.001 -0.00603516 0 -0.026201 -7.60407e-06 0 6.55346e-06 1.58613e-07 6.25347e-09
480 4 0.001 -0.00605153 0 -0.0268369 -2.68574e-05 0 8.94554e-06 1.4189e-07 6.22602e-09
631 5 0.001 -0.00274195 0 -0.0261529 -8.61905e-05 0 4.75539e-07 1.46782e-07 8.01655e-09
630 5 0.001 -0.00267727 0 -0.0267856 -6.93321e-05 0 3.1052e-06 1.37217e-07 8.00774e-09
781 6 0.001 0.000549305 0 -0.0262858 -3.18175e-05 0 5.94033e-05 9.33647e-08 5.816e-09
780 6 0.001 0.000696897 0 -0.0269047 -3.9849e-05 0 5.63214e-05 9.62949e-08 5.91266e-09
932 7 0.001 0.0036533 0 -0.0260017 -7.97311e-06 0 1.53343e-05 5.52894e-08 4.83464e-09
931 7 0.001 0.0038846 0 -0.0265944 -2.35814e-05 0 7.48419e-06 6.57719e-08 4.87634e-09
930 7 0.001 0.00411111 0 -0.0271891 -3.794e-05 0 -1.28863e-07 7.67175e-08 4.91663e-09
1082 8 0.001 0.00776271 0 -0.0262307 -1.34139e-06 0 1.27811e-06 2.39954e-08 2.36823e-09
1081 8 0.001 0.00802256 0 -0.026812 -5.46699e-07 0 1.74421e-06 3.1942e-08 2.38091e-09
1232 9 0.001 0.0128343 0 -0.0262086 2.18429e-06 0 1.87094e-06 2.55791e-08 2.38429e-09
1231 9 0.001 0.0130914 0 -0.0267911 2.32672e-06 0 1.85222e-06 3.3574e-08 2.3962e-09
1381 10 0.001 0.0180657 0 -0.026798 1.23779e-06 0 1.30512e-06 3.27175e-08 2.31052e-09
1382 10 0.001 0.0178078 0 -0.0262159 1.18776e-06 0 1.20945e-06 2.47755e-08 2.29901e-09
35 1 0.001 -0.0147665 0 -0.0253301 -2.29512e-05 0 3.39692e-05 6.76691e-07 1.93378e-08
36 1 0.001 -0.0145443 0 -0.0247352 -4.49369e-06 0 2.67741e-05 7.71755e-07 1.96604e-08
184 2 0.001 -0.0112741 0 -0.0253846 1.13956e-05 0 -1.38423e-05 7.06843e-07 2.86611e-08
185 2 0.001 -0.0111231 0 -0.0247683 3.50226e-06 0 -8.24722e-06 7.90653e-07 2.90999e-08
333 3 0.001 -0.00865723 0 -0.0253178 -2.94136e-05 0 3.73196e-05 4.19148e-07 1.53274e-08
334 3 0.001 -0.00858104 0 -0.0246871 -4.43072e-05 0 3.43533e-05 4.65812e-07 1.54235e-08
482 4 0.001 -0.00602679 0 -0.0255649 1.31611e-05 0 4.49231e-06 1.75302e-07 6.28342e-09
484 4 0.001 -0.00603565 0 -0.0242927 4.78117e-05 0 2.93665e-06 2.0851e-07 6.34944e-09
483 4 0.001 -0.00602682 0 -0.0249288 3.28401e-05 0 3.61507e-06 1.91935e-07 6.31549e-09
632 5 0.001 -0.00281429 0 -0.0255211 -9.94492e-05 0 -2.02255e-06 1.55065e-07 8.02192e-09
634 5 0.001 -0.00298271 0 -0.0242604 -0.000105453 0 -5.10654e-06 1.66834e-07 8.01927e-09
633 5 0.001 -0.00289449 0 -0.0248902 -0.000105986 0 -3.8648e-06 1.61811e-07 8.02295e-09
784 6 0.001 7.12354e-05 0 -0.0244381 -4.34936e-06 0 6.82958e-05 8.17649e-08 5.51822e-09
783 6 0.001 0.00023634 0 -0.0250525 -1.28568e-05 0 6.53398e-05 8.59942e-08 5.61813e-09
782 6 0.001 0.000395745 0 -0.0256685 -2.22493e-05 0 6.24534e-05 8.98961e-08 5.71752e-09
933 7 0.001 0.00341761 0 -0.0254106 7.2678e-06 0 2.28249e-05 4.54689e-08 4.79256e-09
934 7 0.001 0.00317795 0 -0.0248211 2.15779e-05 0 3.03482e-05 3.64732e-08 4.75061e-09
935 7 0.001 0.00293476 0 -0.0242331 3.30344e-05 0 3.67518e-05 2.84217e-08 4.70898e-09
1083 8 0.001 0.00750005 0 -0.0256507 -1.91866e-06 0 8.83553e-07 1.71318e-08 2.35719e-09
1085 8 0.001 0.00696807 0 -0.0244938 -2.43707e-06 0 3.52591e-07 6.83229e-09 2.34024e-09
1084 8 0.001 0.00723502 0 -0.0250718 -2.28552e-06 0 5.80965e-07 1.13974e-08 2.34784e-09
1233 9 0.001 0.0125743 0 -0.0256274 1.8395e-06 0 1.79699e-06 1.86189e-08 2.3738e-09
1235 9 0.001 0.0120473 0 -0.0244682 6.04602e-07 0 1.39402e-06 7.96731e-09 2.35724e-09
1234 9 0.001 0.0123118 0 -0.0250473 1.29937e-06 0 1.66401e-06 1.27364e-08 2.36477e-09
1385 10 0.001 0.0170185 0 -0.0244765 8.63452e-07 0 8.34802e-07 7.43645e-09 2.27392e-09
1384 10 0.001 0.0172837 0 -0.0250553 9.90542e-07 0 9.65279e-07 1.2095e-08 2.28068e-09