ITEM: TIMESTEP
800000
ITEM: NUMBER OF ATOMS
1500
ITEM: BOX BOUNDS ff ff ff
-2.5000000000000001e-02 2.5000000000000001e-02
-5.0000000000000001e-03 5.0000000000000001e-03
-5.0000000000000003e-02 5.0000000000000003e-02
ITEM: ATOMS id type radius x y z fx fy fz c_bendingE c_stretchingE
1 1 0.001 -0.0225 0 -0.04598 -0.0527803 0 -3.8e-09 9.40212e-08 1.59293e-34
151 2 0.001 -0.0175 0 -0.04598 -0.0693057 0 -3.8e-09 1.62122e-07 1.59293e-34
301 3 0.001 -0.0125 0 -0.04598 -0.0763489 0 -3.8e-09 1.96753e-07 1.59293e-34
451 4 0.001 -0.0075 0 -0.04598 -0.0770399 0 -3.8e-09 2.00331e-07 1.59293e-34
601 5 0.001 -0.0025 0 -0.04598 -0.0639745 0 -3.8e-09 1.38137e-07 1.59293e-34
751 6 0.001 0.0025 0 -0.04598 -0.0415908 0 -3.8e-09 5.83799e-08 1.59293e-34
901 7 0.001 0.0075 0 -0.04598 -0.0197349 0 -3.8e-09 1.3144e-08 1.59293e-34
1051 8 0.001 0.0125 0 -0.04598 0.00161275 0 -3.8e-09 8.77779e-11 1.59293e-34
1201 9 0.001 0.0175 0 -0.04598 0.0373503 0 -3.8e-09 4.70819e-08 1.59293e-34
1351 10 0.001 0.0225 0 -0.04598 0.049463 0 -3.8e-09 8.25731e-08 1.59293e-34
2 1 0.001 -0.0225 0 -0.0453424 0.0521227 0 -0.00812502 1.89905e-07 2.74695e-09
3 1 0.001 -0.0224893 0 -0.0447063 3.82851e-06 0 -1.36561e-07 2.87157e-07 5.49907e-09
4 1 0.001 -0.0224679 0 -0.0440704 1.02472e-05 0 -5.52186e-07 2.91223e-07 5.50785e-09
152 2 0.001 -0.0175 0 -0.0453424 0.0690033 0 -0.0107992 3.24545e-07 4.84458e-09
153 2 0.001 -0.017486 0 -0.0447068 -1.87359e-06 0 1.34514e-06 4.86168e-07 9.68695e-09
154 2 0.001 -0.017458 0 -0.0440716 -4.55747e-06 0 2.83372e-06 4.83793e-07 9.67675e-09
302 3 0.001 -0.0125 0 -0.0453424 0.0761778 0 -0.0123008 3.92852e-07 6.2813e-09
303 3 0.001 -0.0124846 0 -0.0447071 -4.76344e-07 0 -6.1403e-07 5.86781e-07 1.25564e-08
304 3 0.001 -0.0124538 0 -0.0440723 -1.40862e-06 0 -1.2944e-06 5.80306e-07 1.25376e-08
452 4 0.001 -0.0075 0 -0.0453424 0.0773562 0 -0.0143701 3.97216e-07 8.55731e-09
453 4 0.001 -0.00748446 0 -0.0447074 -5.50856e-06 0 5.32854e-07 5.88945e-07 1.709e-08
454 4 0.001 -0.00745352 0 -0.044073 -1.36716e-05 0 1.32685e-06 5.73614e-07 1.70313e-08
602 5 0.001 -0.0025 0 -0.0453424 0.0648709 0 -0.0135446 2.71278e-07 7.59152e-09
603 5 0.001 -0.00248709 0 -0.0447072 -3.26138e-06 0 -4.1262e-06 3.98414e-07 1.51586e-08
604 5 0.001 -0.00246151 0 -0.0440724 -7.91178e-06 0 -8.13118e-06 3.80518e-07 1.51095e-08
752 6 0.001 0.0025 0 -0.0453424 0.0425893 0 -0.0127908 1.13539e-07 6.77589e-09
753 6 0.001 0.00250839 0 -0.044707 5.15893e-06 0 -3.45357e-07 1.65122e-07 1.3535e-08
754 6 0.001 0.00252494 0 -0.0440718 1.30977e-05 0 -6.27901e-07 1.54436e-07 1.34997e-08
902 7 0.001 0.0075 0 -0.0453424 0.0212299 0 -0.0107769 2.42944e-08 4.81242e-09
903 7 0.001 0.00750398 0 -0.0447066 -1.86733e-06 0 -6.9509e-07 3.35478e-08 9.61726e-09
904 7 0.001 0.00751164 0 -0.0440709 -4.94697e-06 0 -1.20757e-06 2.78852e-08 9.60308e-09
1052 8 0.001 0.0125 0 -0.0453424 6.8064e-05 0 -0.00863636 4.52045e-10 3.09666e-09
1053 8 0.001 0.0124997 0 -0.0447063 -1.34312e-06 0 -1.36885e-06 1.27818e-09 6.19555e-09
1054 8 0.001 0.0124987 0 -0.0440701 -3.74859e-06 0 -2.79452e-06 2.6572e-09 6.20165e-09
1202 9 0.001 0.0175 0 -0.0453424 -0.0368284 0 -0.00665229 9.52851e-08 1.84007e-09
1203 9 0.001 0.0174925 0 -0.044706 4.80689e-07 0 -3.30023e-07 1.44418e-07 3.683e-09
1204 9 0.001 0.0174773 0 -0.0440697 1.3116e-06 0 -6.3145e-07 1.47203e-07 3.6884e-09
1352 10 0.001 0.0225 0 -0.0453424 -0.0496311 0 -0.0063544 1.64256e-07 1.67427e-09
1353 10 0.001 0.02249 0 -0.044706 7.9409e-07 0 9.99969e-07 2.44729e-07 3.34542e-09
1354 10 0.001 0.0224701 0 -0.0440697 3.10309e-06 0 2.11327e-06 2.41117e-07 3.33786e-09
5 1 0.001 -0.0224356 0 -0.043435 1.78748e-05 0 -1.16343e-06 2.93693e-07 5.51327e-09
6 1 0.001 -0.0223925 0 -0.0428002 2.56739e-05 0 -1.94088e-06 2.94459e-07 5.51496e-09
155 2 0.001 -0.0174161 0 -0.0434372 -6.90057e-06 0 4.27901e-06 4.78201e-07 9.65528e-09
156 2 0.001 -0.0173603 0 -0.0428039 -8.22909e-06 0 5.46435e-06 4.695e-07 9.62324e-09
305 3 0.001 -0.0124077 0 -0.0434384 -2.74231e-06 0 -1.96088e-06 5.69418e-07 1.25062e-08
306 3 0.001 -0.0123466 0 -0.0428058 -4.4297e-06 0 -2.14874e-06 5.54311e-07 1.24625e-08
455 4 0.001 -0.0074074 0 -0.0434394 -2.24737e-05 0 2.21325e-06 5.53588e-07 1.69551e-08
456 4 0.001 -0.0073464 0 -0.0428071 -3.10185e-05 0 3.18388e-06 5.29353e-07 1.68642e-08
605 5 0.001 -0.00242357 0 -0.0434382 -1.29463e-05 0 -1.21443e-05 3.59966e-07 1.50609e-08
606 5 0.001 -0.00237361 0 -0.0428048 -1.87441e-05 0 -1.63569e-05 3.37162e-07 1.50149e-08
755 6 0.001 0.00254938 0 -0.0434368 2.12392e-05 0 -1.24899e-06 1.42813e-07 1.34614e-08
756 6 0.001 0.0025814 0 -0.0428021 2.88616e-05 0 -1.49527e-06 1.30398e-07 1.34202e-08
905 7 0.001 0.00752264 0 -0.0434352 -7.95143e-06 0 -1.76797e-06 2.25942e-08 9.59104e-09
906 7 0.001 0.00753664 0 -0.0427995 -9.95569e-06 0 -2.3179e-06 1.7749e-08 9.58141e-09
1055 8 0.001 0.0124967 0 -0.043434 -6.77122e-06 0 -4.25243e-06 4.56927e-09 6.211e-09
1056 8 0.001 0.0124934 0 -0.0427978 -1.00587e-05 0 -5.6324e-06 6.98457e-09 6.2235e-09
1206 9 0.001 0.0174237 0 -0.0427979 1.25841e-06 0 -7.94375e-07 1.50982e-07 3.69673e-09
1205 9 0.001 0.0174544 0 -0.0434336 1.81496e-06 0 -7.49271e-07 1.49396e-07 3.69304e-09
1355 10 0.001 0.0224403 0 -0.0434339 6.24794e-06 0 3.30832e-06 2.36607e-07 3.32778e-09
1356 10 0.001 0.0224007 0 -0.0427986 9.73415e-06 0 4.65976e-06 2.31263e-07 3.3153e-09
7 1 0.001 -0.0223385 0 -0.0421663 3.26967e-05 0 -2.95888e-06 2.93431e-07 5.51269e-09
8 1 0.001 -0.0222736 0 -0.0415334 3.83066e-05 0 -3.74285e-06 2.90547e-07 5.50613e-09
9 1 0.001 -0.022198 0 -0.0409017 4.20585e-05 0 -4.31024e-06 2.85786e-07 5.49492e-09
157 2 0.001 -0.0172908 0 -0.0421719 -8.31861e-06 0 6.42281e-06 4.57833e-07 9.58144e-09
158 2 0.001 -0.0172078 0 -0.0415415 -7.0057e-06 0 7.41353e-06 4.43364e-07 9.53034e-09
159 2 0.001 -0.0171115 0 -0.040913 -4.79116e-06 0 8.36085e-06 4.2628e-07 9.47021e-09
307 3 0.001 -0.0122706 0 -0.0421748 -5.46708e-06 0 -2.32591e-06 5.35242e-07 1.2407e-08
308 3 0.001 -0.01218 0 -0.0415457 -6.62143e-06 0 -2.98535e-06 5.12529e-07 1.23414e-08
309 3 0.001 -0.0120752 0 -0.0409189 -7.45487e-06 0 -3.54239e-06 4.86542e-07 1.22674e-08
457 4 0.001 -0.00727088 0 -0.0421764 -3.77214e-05 0 5.01289e-06 5.01452e-07 1.67602e-08
458 4 0.001 -0.00718127 0 -0.0415476 -4.24057e-05 0 6.77378e-06 4.70458e-07 1.66445e-08
459 4 0.001 -0.00707805 0 -0.0409208 -4.50002e-05 0 8.23319e-06 4.36956e-07 1.65196e-08
607 5 0.001 -0.00231204 0 -0.0421724 -2.31889e-05 0 -2.03732e-05 3.12534e-07 1.49735e-08
608 5 0.001 -0.00223931 0 -0.0415412 -2.51047e-05 0 -2.47024e-05 2.86516e-07 1.4938e-08
609 5 0.001 -0.00215592 0 -0.0409114 -2.48854e-05 0 -2.89452e-05 2.59538e-07 1.49096e-08
757 6 0.001 0.00262065 0 -0.0421678 3.51095e-05 0 -1.35624e-06 1.17364e-07 1.33756e-08
758 6 0.001 0.00266677 0 -0.041534 3.91231e-05 0 -1.26436e-06 1.03914e-07 1.33279e-08
759 6 0.001 0.00271933 0 -0.0409007 4.16973e-05 0 -1.00118e-06 9.02832e-08 1.32779e-08
907 7 0.001 0.00755331 0 -0.0421639 -1.03867e-05 0 -2.89006e-06 1.34123e-08 9.57433e-09
908 7 0.001 0.00757228 0 -0.0415284 -9.38226e-06 0 -3.54215e-06 9.63433e-09 9.56996e-09
909 7 0.001 0.0075932 0 -0.040893 -7.15423e-06 0 -3.87912e-06 6.45478e-09 9.56812e-09
1057 8 0.001 0.0124884 0 -0.0421617 -1.33263e-05 0 -6.92999e-06 9.86353e-09 6.23893e-09
1058 8 0.001 0.0124814 0 -0.0415256 -1.6143e-05 0 -8.05693e-06 1.31577e-08 6.25696e-09
1059 8 0.001 0.0124722 0 -0.0408895 -1.81436e-05 0 -9.21475e-06 1.68116e-08 6.27737e-09
1207 9 0.001 0.0173852 0 -0.0421626 -4.71563e-07 0 -1.11744e-06 1.51943e-07 3.69948e-09
1209 9 0.001 0.0172849 0 -0.0408936 -7.62825e-06 0 -1.60051e-06 1.51892e-07 3.70163e-09
1208 9 0.001 0.017339 0 -0.0415278 -3.64143e-06 0 -1.3348e-06 1.52254e-07 3.70119e-09
1357 10 0.001 0.0223515 0 -0.042164 1.30195e-05 0 6.05984e-06 2.25161e-07 3.30056e-09
1358 10 0.001 0.0222928 0 -0.0415302 1.5925e-05 0 7.62384e-06 2.18379e-07 3.28368e-09
1359 10 0.001 0.0222247 0 -0.0408973 1.80496e-05 0 9.11553e-06 2.10997e-07 3.26478e-09
10 1 0.001 -0.0221117 0 -0.0402713 4.34622e-05 0 -4.83225e-06 2.79169e-07 5.47912e-09
11 1 0.001 -0.0220149 0 -0.0396425 4.22174e-05 0 -4.90859e-06 2.70768e-07 5.45898e-09
160 2 0.001 -0.0170024 0 -0.0402867 -2.17074e-06 0 8.99215e-06 4.06795e-07 9.40172e-09
161 2 0.001 -0.0168806 0 -0.0396626 4.0089e-08 0 9.81525e-06 3.8515e-07 9.3256e-09
310 3 0.001 -0.0119566 0 -0.0402945 -8.15984e-06 0 -3.98624e-06 4.57693e-07 1.2186e-08
311 3 0.001 -0.0118247 0 -0.0396727 -8.95703e-06 0 -4.16323e-06 4.26438e-07 1.20985e-08
460 4 0.001 -0.00696176 0 -0.0402962 -4.40138e-05 0 9.26421e-06 4.01526e-07 1.63877e-08
461 4 0.001 -0.006833 0 -0.0396742 -3.97423e-05 0 9.93101e-06 3.64734e-07 1.62503e-08
610 5 0.001 -0.00206241 0 -0.0402829 -2.21734e-05 0 -3.28519e-05 2.32015e-07 1.48885e-08
611 5 0.001 -0.00195936 0 -0.039656 -1.79492e-05 0 -3.62364e-05 2.0435e-07 1.48744e-08
760 6 0.001 0.0027779 0 -0.0402679 4.1476e-05 0 -4.50473e-07 7.67297e-08 1.32265e-08
761 6 0.001 0.00284199 0 -0.0396357 3.97242e-05 0 2.33806e-07 6.35279e-08 1.31744e-08
910 7 0.001 0.0076157 0 -0.0402576 -3.48518e-06 0 -4.2038e-06 3.90471e-09 9.56849e-09
911 7 0.001 0.00763942 0 -0.0396222 9.47387e-07 0 -4.48371e-06 2.00896e-09 9.57098e-09
1060 8 0.001 0.0124603 0 -0.0402535 -1.92006e-05 0 -1.06935e-05 2.07646e-08 6.30025e-09
1061 8 0.001 0.0124456 0 -0.0396175 -1.97353e-05 0 -1.18903e-05 2.49537e-08 6.3255e-09
1211 9 0.001 0.0171533 0 -0.0396275 -1.69522e-05 0 -2.20898e-06 1.49036e-07 3.69804e-09
1210 9 0.001 0.017223 0 -0.0402602 -1.21901e-05 0 -1.97745e-06 1.50827e-07 3.70065e-09
1360 10 0.001 0.0221475 0 -0.0402654 1.93741e-05 0 1.04816e-05 2.03087e-07 3.24409e-09
1361 10 0.001 0.0220612 0 -0.0396347 1.96015e-05 0 1.18261e-05 1.9472e-07 3.22173e-09
12 1 0.001 -0.0219078 0 -0.0390153 3.8274e-05 0 -4.50271e-06 2.60705e-07 5.43479e-09
13 1 0.001 -0.0217905 0 -0.03839 3.20309e-05 0 -3.83865e-06 2.49149e-07 5.4072e-09
162 2 0.001 -0.0167466 0 -0.0390411 1.40944e-06 0 1.10168e-05 3.61624e-07 9.2423e-09
163 2 0.001 -0.0166008 0 -0.0384222 1.43511e-06 0 1.20463e-05 3.3653e-07 9.15296e-09
312 3 0.001 -0.01168 0 -0.0390538 -9.45548e-06 0 -4.2309e-06 3.93262e-07 1.20061e-08
313 3 0.001 -0.011523 0 -0.0384379 -9.20894e-06 0 -4.27373e-06 3.58673e-07 1.19101e-08
462 4 0.001 -0.0066924 0 -0.0390547 -3.22973e-05 0 9.4524e-06 3.27122e-07 1.61091e-08
463 4 0.001 -0.00654063 0 -0.0384378 -2.29961e-05 0 8.84852e-06 2.8922e-07 1.59656e-08
612 5 0.001 -0.00184738 0 -0.0390306 -1.24658e-05 0 -3.9617e-05 1.76941e-07 1.4867e-08
613 5 0.001 -0.0017271 0 -0.0384067 -6.37748e-06 0 -4.29127e-05 1.50184e-07 1.4867e-08
762 6 0.001 0.0029111 0 -0.039004 3.56577e-05 0 1.01791e-06 5.09598e-08 1.31231e-08
763 6 0.001 0.0029847 0 -0.0383728 3.01166e-05 0 2.18537e-06 3.93026e-08 1.30734e-08
912 7 0.001 0.00766399 0 -0.0389869 5.59815e-06 0 -4.59273e-06 7.88003e-10 9.57541e-09
913 7 0.001 0.00768903 0 -0.0383516 1.0118e-05 0 -4.64575e-06 2.59364e-10 9.5816e-09
1062 8 0.001 0.0124277 0 -0.0389817 -2.00053e-05 0 -1.28154e-05 2.93136e-08 6.35257e-09
1063 8 0.001 0.0124064 0 -0.0383459 -2.01824e-05 0 -1.40168e-05 3.37785e-08 6.38132e-09
1212 9 0.001 0.0170759 0 -0.0389957 -2.11431e-05 0 -2.32486e-06 1.465e-07 3.69352e-09
1213 9 0.001 0.0169909 0 -0.038365 -2.42151e-05 0 -2.60259e-06 1.43216e-07 3.68713e-09
1363 10 0.001 0.0218627 0 -0.0383772 1.78482e-05 0 1.3952e-05 1.7686e-07 3.17238e-09
1362 10 0.001 0.0219662 0 -0.0390053 1.90908e-05 0 1.31063e-05 1.85958e-07 3.19775e-09
14 1 0.001 -0.0216635 0 -0.0377665 2.42082e-05 0 -2.67318e-06 2.36306e-07 5.3769e-09
15 1 0.001 -0.0215268 0 -0.0371451 1.57828e-05 0 -1.14389e-06 2.22408e-07 5.34447e-09
16 1 0.001 -0.0213809 0 -0.0365258 7.62005e-06 0 1.56267e-07 2.07694e-07 5.31074e-09
164 2 0.001 -0.0164437 0 -0.037806 6.45143e-07 0 1.30704e-05 3.10214e-07 9.05919e-09
165 2 0.001 -0.0162758 0 -0.0371927 -9.4314e-07 0 1.47952e-05 2.83048e-07 8.96192e-09
166 2 0.001 -0.0160977 0 -0.0365823 -3.21907e-06 0 1.68512e-05 2.55416e-07 8.86185e-09
314 3 0.001 -0.0113545 0 -0.0378251 -7.82105e-06 0 -4.72465e-06 3.2319e-07 1.1812e-08
315 3 0.001 -0.0111749 0 -0.0372154 -5.16526e-06 0 -5.44781e-06 2.87328e-07 1.17134e-08
316 3 0.001 -0.0109851 0 -0.0366088 -1.8462e-06 0 -6.42158e-06 2.516e-07 1.16155e-08
464 4 0.001 -0.00637841 0 -0.0378236 -1.2589e-05 0 8.69234e-06 2.51549e-07 1.58198e-08
465 4 0.001 -0.0062065 0 -0.037212 -1.99886e-06 0 8.20652e-06 2.14638e-07 1.56723e-08
466 4 0.001 -0.00602566 0 -0.0366029 7.03194e-06 0 7.96667e-06 1.79024e-07 1.55249e-08
614 5 0.001 -0.00159922 0 -0.0377843 -3.50292e-07 0 -4.50997e-05 1.24474e-07 1.4874e-08
615 5 0.001 -0.00146442 0 -0.0371635 3.87e-06 0 -4.65442e-05 1.0021e-07 1.48874e-08
616 5 0.001 -0.00132345 0 -0.0365439 6.88795e-06 0 -4.77617e-05 7.77919e-08 1.49082e-08
764 6 0.001 0.00306223 0 -0.037742 2.30346e-05 0 3.59626e-06 2.88186e-08 1.30262e-08
765 6 0.001 0.00314311 0 -0.0371117 1.40188e-05 0 5.36317e-06 1.97447e-08 1.29822e-08
766 6 0.001 0.00322674 0 -0.0364817 3.7451e-06 0 7.64431e-06 1.22822e-08 1.2942e-08
914 7 0.001 0.00771417 0 -0.0377163 1.40303e-05 0 -4.52734e-06 4.37865e-10 9.58943e-09
915 7 0.001 0.00773903 0 -0.037081 1.70535e-05 0 -4.06889e-06 1.33489e-09 9.59854e-09
916 7 0.001 0.00776322 0 -0.0364456 1.95454e-05 0 -3.62915e-06 2.95719e-09 9.60873e-09
1064 8 0.001 0.0123813 0 -0.0377102 -2.02685e-05 0 -1.51469e-05 3.82818e-08 6.41174e-09
1065 8 0.001 0.0123524 0 -0.0370748 -2.0409e-05 0 -1.57813e-05 4.27571e-08 6.44326e-09
1066 8 0.001 0.0123193 0 -0.0364395 -2.04725e-05 0 -1.63028e-05 4.71391e-08 6.47528e-09
1214 9 0.001 0.0168984 0 -0.0377353 -2.56175e-05 0 -2.52072e-06 1.39194e-07 3.6789e-09
1216 9 0.001 0.0166912 0 -0.0364793 -2.25734e-05 0 -1.31726e-06 1.29092e-07 3.65683e-09
1215 9 0.001 0.0167984 0 -0.0371067 -2.50555e-05 0 -2.05741e-06 1.34468e-07 3.66877e-09
1364 10 0.001 0.0217508 0 -0.0377506 1.57229e-05 0 1.47238e-05 1.67477e-07 3.14581e-09
1366 10 0.001 0.021503 0 -0.0365018 9.58425e-06 0 1.60293e-05 1.48052e-07 3.08885e-09
1365 10 0.001 0.0216308 0 -0.0371254 1.2787e-05 0 1.55474e-05 1.57859e-07 3.11795e-09
17 1 0.001 -0.0212262 0 -0.0359087 5.67334e-07 0 1.07974e-06 1.92403e-07 5.27671e-09
18 1 0.001 -0.0210629 0 -0.0352937 -4.64668e-06 0 1.82116e-06 1.76759e-07 5.243e-09
167 2 0.001 -0.0159098 0 -0.0359749 -5.89316e-06 0 1.90614e-05 2.27711e-07 8.7601e-09
168 2 0.001 -0.0157127 0 -0.0353703 -8.48685e-06 0 2.1129e-05 2.00316e-07 8.65796e-09
317 3 0.001 -0.0107857 0 -0.0360052 2.11088e-06 0 -7.31618e-06 2.16513e-07 1.15196e-08
318 3 0.001 -0.0105775 0 -0.0354047 6.56643e-06 0 -8.16685e-06 1.82564e-07 1.14265e-08
467 4 0.001 -0.00583672 0 -0.0359964 1.37358e-05 0 8.76912e-06 1.45258e-07 1.53789e-08
468 4 0.001 -0.00564051 0 -0.0353921 1.74037e-05 0 9.87874e-06 1.13897e-07 1.52363e-08
617 5 0.001 -0.00117705 0 -0.0359257 8.00809e-06 0 -4.81668e-05 5.76126e-08 1.49372e-08
618 5 0.001 -0.00102601 0 -0.0353085 7.89458e-06 0 -4.75836e-05 4.00459e-08 1.49747e-08
767 6 0.001 0.00331253 0 -0.035852 -6.57487e-06 0 1.04671e-05 6.58784e-09 1.29052e-08
768 6 0.001 0.00339985 0 -0.0352225 -1.63538e-05 0 1.29836e-05 2.76613e-09 1.28719e-08
917 7 0.001 0.00778637 0 -0.0358103 2.11702e-05 0 -2.96409e-06 5.30533e-09 9.61991e-09
918 7 0.001 0.00780809 0 -0.0351748 2.153e-05 0 -1.92345e-06 8.37189e-09 9.63162e-09
1067 8 0.001 0.0122818 0 -0.0358045 -2.04328e-05 0 -1.69274e-05 5.1364e-08 6.50764e-09
1068 8 0.001 0.0122398 0 -0.0351698 -1.99023e-05 0 -1.74794e-05 5.53718e-08 6.54024e-09
1217 9 0.001 0.0165768 0 -0.0358532 -1.80854e-05 0 -1.87846e-07 1.23142e-07 3.6433e-09
1218 9 0.001 0.0164555 0 -0.0352283 -1.19946e-05 0 1.4036e-06 1.1671e-07 3.62836e-09
1367 10 0.001 0.0213676 0 -0.0358798 6.12651e-06 0 1.62963e-05 1.38102e-07 3.05875e-09
1368 10 0.001 0.021225 0 -0.0352594 2.72214e-06 0 1.67206e-05 1.28057e-07 3.02767e-09
19 1 0.001 -0.0208914 0 -0.034681 -7.61385e-06 0 1.77799e-06 1.60965e-07 5.21013e-09
20 1 0.001 -0.0207122 0 -0.0340705 -8.32359e-06 0 1.08139e-06 1.45199e-07 5.17867e-09
21 1 0.001 -0.0205257 0 -0.0334622 -7.10295e-06 0 1.74643e-07 1.29619e-07 5.14872e-09
169 2 0.001 -0.0155072 0 -0.0347685 -1.08135e-05 0 2.26895e-05 1.73603e-07 8.55698e-09
170 2 0.001 -0.0152937 0 -0.0341695 -1.26748e-05 0 2.41031e-05 1.47918e-07 8.45851e-09
171 2 0.001 -0.0150731 0 -0.0335731 -1.38929e-05 0 2.55137e-05 1.2358e-07 8.36322e-09
319 3 0.001 -0.0103612 0 -0.034807 9.68323e-06 0 -8.39888e-06 1.50244e-07 1.1337e-08
320 3 0.001 -0.0101376 0 -0.0342119 1.16521e-05 0 -8.46869e-06 1.20035e-07 1.12527e-08
321 3 0.001 -0.00990752 0 -0.0336194 1.22364e-05 0 -8.1548e-06 9.24037e-08 1.11751e-08
469 4 0.001 -0.0054379 0 -0.0347899 1.86468e-05 0 1.15315e-05 8.54898e-08 1.50999e-08
470 4 0.001 -0.00522978 0 -0.0341896 1.75748e-05 0 1.43881e-05 6.05572e-08 1.49713e-08
471 4 0.001 -0.00501705 0 -0.0335909 1.52673e-05 0 1.76414e-05 3.95683e-08 1.48516e-08
619 5 0.001 -0.000871129 0 -0.0346923 6.89587e-06 0 -4.5612e-05 2.54331e-08 1.502e-08
620 5 0.001 -0.000713213 0 -0.0340769 4.66586e-06 0 -4.30572e-05 1.40709e-08 1.50725e-08
621 5 0.001 -0.000553094 0 -0.0334621 1.16551e-06 0 -4.03448e-05 6.1994e-09 1.51333e-08
769 6 0.001 0.00348808 0 -0.0345931 -2.34408e-05 0 1.50658e-05 8.66372e-10 1.28427e-08
770 6 0.001 0.00357661 0 -0.0339638 -2.67991e-05 0 1.66962e-05 8.85758e-10 1.28176e-08
771 6 0.001 0.00366482 0 -0.0333344 -2.61692e-05 0 1.77983e-05 2.77774e-09 1.27961e-08
919 7 0.001 0.007828 0 -0.0345393 2.07821e-05 0 -1.01312e-06 1.21394e-08 9.64369e-09
920 7 0.001 0.00784573 0 -0.0339038 1.86719e-05 0 -7.31113e-08 1.6578e-08 9.65621e-09
1069 8 0.001 0.0121931 0 -0.0345354 -1.86987e-05 0 -1.8106e-05 5.91078e-08 6.57302e-09
1070 8 0.001 0.0121416 0 -0.0339014 -1.68107e-05 0 -1.83853e-05 6.25247e-08 6.60576e-09
1219 9 0.001 0.0163275 0 -0.0346049 -4.74078e-06 0 3.08999e-06 1.09901e-07 3.61234e-09
1221 9 0.001 0.0160521 0 -0.033362 1.02666e-05 0 6.94557e-06 9.55963e-08 3.57855e-09
1220 9 0.001 0.016193 0 -0.0339828 2.96097e-06 0 4.87476e-06 1.02826e-07 3.59568e-09
1369 10 0.001 0.0210753 0 -0.0346407 -3.87775e-07 0 1.67701e-05 1.17968e-07 2.99578e-09
1371 10 0.001 0.0207562 0 -0.0334082 -4.96003e-06 0 1.69644e-05 9.78835e-08 2.93075e-09
1370 10 0.001 0.0209189 0 -0.0340236 -3.01653e-06 0 1.66968e-05 1.07889e-07 2.96344e-09
22 1 0.001 -0.0203322 0 -0.032856 -4.53925e-06 0 -1.24317e-06 1.14364e-07 5.12032e-09
23 1 0.001 -0.0201324 0 -0.0322519 -1.2649e-06 0 -3.07918e-06 9.95624e-08 5.09382e-09
172 2 0.001 -0.0148458 0 -0.0329792 -1.42525e-05 0 2.63629e-05 1.00874e-07 8.27184e-09
173 2 0.001 -0.0146126 0 -0.0323876 -1.33806e-05 0 2.65135e-05 8.00531e-08 8.1853e-09
322 3 0.001 -0.00967182 0 -0.033029 1.11787e-05 0 -7.06295e-06 6.7792e-08 1.11055e-08
323 3 0.001 -0.00943131 0 -0.0324406 9.60067e-06 0 -5.38438e-06 4.66025e-08 1.10448e-08
324 3 0.001 -0.00918684 0 -0.0318538 7.3546e-06 0 -3.56626e-06 2.91873e-08 1.09939e-08
472 4 0.001 -0.00480063 0 -0.0329936 1.234e-05 0 2.10867e-05 2.29221e-08 1.47425e-08
473 4 0.001 -0.00458145 0 -0.0323972 9.36767e-06 0 2.45084e-05 1.09322e-08 1.46451e-08
622 5 0.001 -0.000391607 0 -0.0328476 -2.97094e-06 0 -3.70138e-05 1.99219e-09 1.52028e-08
623 5 0.001 -0.000229599 0 -0.0322333 -7.07359e-06 0 -3.30854e-05 1.54789e-09 1.52803e-08
772 6 0.001 0.00375211 0 -0.0327049 -2.12569e-05 0 1.83472e-05 6.46463e-09 1.27779e-08
773 6 0.001 0.00383787 0 -0.0320752 -1.23544e-05 0 1.83861e-05 1.18514e-08 1.27627e-08
921 7 0.001 0.00786088 0 -0.0332682 1.54184e-05 0 1.10436e-06 2.16436e-08 9.66887e-09
922 7 0.001 0.0078731 0 -0.0326325 1.12574e-05 0 2.5208e-06 2.72766e-08 9.68109e-09
923 7 0.001 0.00788201 0 -0.0319968 6.8119e-06 0 3.85574e-06 3.34017e-08 9.69247e-09
1071 8 0.001 0.012085 0 -0.0332678 -1.425e-05 0 -1.82062e-05 6.55836e-08 6.63789e-09
1073 8 0.001 0.0119563 0 -0.0320022 -7.32126e-06 0 -1.81618e-05 7.05196e-08 6.70006e-09
1072 8 0.001 0.0120233 0 -0.0326347 -1.10259e-05 0 -1.81906e-05 6.82553e-08 6.66925e-09
1223 9 0.001 0.0157526 0 -0.0321248 2.09052e-05 0 1.01119e-05 8.10672e-08 3.54367e-09
1222 9 0.001 0.0159053 0 -0.0327427 1.65512e-05 0 8.72441e-06 8.83135e-08 3.56113e-09
1372 10 0.001 0.0205873 0 -0.0327944 -5.66408e-06 0 1.73541e-05 8.80173e-08 2.89781e-09
1373 10 0.001 0.0204128 0 -0.0321822 -4.99809e-06 0 1.80291e-05 7.83645e-08 2.86487e-09
24 1 0.001 -0.0199265 0 -0.0316499 2.20182e-06 0 -5.0226e-06 8.53379e-08 5.06949e-09
25 1 0.001 -0.019715 0 -0.0310497 5.18463e-06 0 -6.7226e-06 7.18124e-08 5.04747e-09
26 1 0.001 -0.0194986 0 -0.0304514 7.11363e-06 0 -8.03269e-06 5.91098e-08 5.02786e-09
174 2 0.001 -0.0143741 0 -0.031798 -1.08465e-05 0 2.60274e-05 6.13329e-08 8.10419e-09
175 2 0.001 -0.0141311 0 -0.0312104 -6.54908e-06 0 2.47243e-05 4.48949e-08 8.02884e-09
176 2 0.001 -0.0138842 0 -0.0306243 -6.04314e-07 0 2.21265e-05 3.08899e-08 7.95995e-09
325 3 0.001 -0.00893929 0 -0.0312683 4.87219e-06 0 -1.47512e-06 1.58367e-08 1.09535e-08
326 3 0.001 -0.00868952 0 -0.0306838 2.36054e-06 0 6.26394e-07 6.77225e-09 1.09242e-08
474 4 0.001 -0.00436046 0 -0.0318015 6.59117e-06 0 2.74298e-05 3.81784e-09 1.45607e-08
475 4 0.001 -0.0041386 0 -0.0312061 4.60173e-06 0 3.0542e-05 1.70017e-09 1.44893e-08
476 4 0.001 -0.00391681 0 -0.0306107 3.47711e-06 0 3.34562e-05 4.60289e-09 1.44306e-08
624 5 0.001 -6.79154e-05 0 -0.0316189 -1.05681e-05 0 -2.91343e-05 4.88522e-09 1.5365e-08
625 5 0.001 9.25967e-05 0 -0.0310042 -1.28242e-05 0 -2.5075e-05 1.19429e-08 1.54562e-08
626 5 0.001 0.000251095 0 -0.0303889 -1.40585e-05 0 -2.09414e-05 2.25834e-08 1.55524e-08
774 6 0.001 0.00392151 0 -0.0314452 -1.12483e-06 0 1.79366e-05 1.88377e-08 1.27501e-08
775 6 0.001 0.00400246 0 -0.0308149 1.17667e-05 0 1.72522e-05 2.73263e-08 1.27404e-08
924 7 0.001 0.00788727 0 -0.031361 2.08576e-06 0 4.93711e-06 3.99292e-08 9.703e-09
925 7 0.001 0.00788852 0 -0.0307252 -2.65627e-06 0 6.11402e-06 4.67564e-08 9.71242e-09
1075 8 0.001 0.0118065 0 -0.0307388 -1.99264e-07 0 -1.74181e-05 7.37866e-08 6.75936e-09
1074 8 0.001 0.0118841 0 -0.0313702 -3.59822e-06 0 -1.782e-05 7.2365e-08 6.73018e-09
1225 9 0.001 0.0154308 0 -0.0308931 2.32778e-05 0 1.14189e-05 6.69587e-08 3.50921e-09
1224 9 0.001 0.0155944 0 -0.0315083 2.31342e-05 0 1.09758e-05 7.39303e-08 3.52634e-09
1226 9 0.001 0.0152623 0 -0.0302794 2.1777e-05 0 1.12484e-05 6.01937e-08 3.49234e-09
1376 10 0.001 0.0198581 0 -0.0303547 2.47557e-06 0 2.1286e-05 5.14778e-08 2.76802e-09
1375 10 0.001 0.0200478 0 -0.0309624 -6.47895e-07 0 2.02444e-05 6.00159e-08 2.79973e-09
1374 10 0.001 0.0202328 0 -0.0315715 -3.14654e-06 0 1.90591e-05 6.9004e-08 2.83213e-09
27 1 0.001 -0.0192775 0 -0.0298548 7.54407e-06 0 -8.56145e-06 4.73567e-08 5.01073e-09
28 1 0.001 -0.0190524 0 -0.0292596 6.04597e-06 0 -8.68567e-06 3.66801e-08 4.99636e-09
177 2 0.001 -0.013634 0 -0.0300396 6.81842e-06 0 1.87055e-05 1.9444e-08 7.89822e-09
178 2 0.001 -0.0133814 0 -0.029456 1.51844e-05 0 1.44803e-05 1.06655e-08 7.84414e-09
179 2 0.001 -0.0131269 0 -0.0288731 2.38619e-05 0 9.90524e-06 4.65071e-09 7.79824e-09
327 3 0.001 -0.00843842 0 -0.0300998 -2.87662e-07 0 2.87575e-06 2.14155e-09 1.09064e-08
328 3 0.001 -0.00818684 0 -0.029516 -2.71086e-06 0 4.85916e-06 2.01573e-09 1.09004e-08
329 3 0.001 -0.00793569 0 -0.0289321 -5.03256e-06 0 6.34579e-06 6.38877e-09 1.09066e-08
477 4 0.001 -0.00369604 0 -0.0300149 3.90315e-06 0 3.55995e-05 1.2457e-08 1.43841e-08
478 4 0.001 -0.00347723 0 -0.0294183 5.64743e-06 0 3.69863e-05 2.51086e-08 1.43497e-08
479 4 0.001 -0.00326131 0 -0.0288207 7.53489e-06 0 3.81267e-05 4.23278e-08 1.43271e-08
627 5 0.001 0.000406747 0 -0.029773 -1.48446e-05 0 -1.64373e-05 3.65981e-08 1.5652e-08
628 5 0.001 0.000558727 0 -0.0291561 -1.44038e-05 0 -1.26592e-05 5.3715e-08 1.5754e-08
776 6 0.001 0.00408015 0 -0.0301841 2.31875e-05 0 1.62839e-05 3.72248e-08 1.2734e-08
777 6 0.001 0.00415402 0 -0.0295529 3.22898e-05 0 1.53912e-05 4.84417e-08 1.27314e-08
778 6 0.001 0.00422352 0 -0.0289212 3.78198e-05 0 1.49502e-05 6.08767e-08 1.27329e-08
926 7 0.001 0.00788543 0 -0.0300894 -7.31495e-06 0 7.39557e-06 5.37703e-08 9.72012e-09
927 7 0.001 0.00787769 0 -0.0294537 -1.12924e-05 0 8.75056e-06 6.08507e-08 9.72549e-09
928 7 0.001 0.007865 0 -0.028818 -1.41146e-05 0 9.67583e-06 6.78749e-08 9.72841e-09
1076 8 0.001 0.0117234 0 -0.0301082 2.54242e-06 0 -1.72583e-05 7.47834e-08 6.78774e-09
1078 8 0.001 0.011541 0 -0.0288492 4.93964e-06 0 -1.70916e-05 7.55078e-08 6.84214e-09
1077 8 0.001 0.011635 0 -0.0294783 4.33322e-06 0 -1.70325e-05 7.53568e-08 6.81533e-09
1228 9 0.001 0.0149113 0 -0.0290557 1.44853e-05 0 9.86478e-06 4.73956e-08 3.45944e-09
1227 9 0.001 0.015089 0 -0.0296669 1.85435e-05 0 1.07874e-05 5.36652e-08 3.47576e-09
1378 10 0.001 0.019466 0 -0.0291433 9.35726e-06 0 2.34607e-05 3.60308e-08 2.70755e-09
1377 10 0.001 0.019664 0 -0.0297484 5.97761e-06 0 2.25935e-05 4.34617e-08 2.73721e-09
29 1 0.001 -0.0188237 0 -0.0286659 2.99201e-06 0 -7.99079e-06 2.72038e-08 4.98508e-09
30 1 0.001 -0.0185919 0 -0.0280733 -1.29048e-06 0 -6.74081e-06 1.90413e-08 4.97699e-09
31 1 0.001 -0.0183576 0 -0.0274817 -6.36937e-06 0 -5.4136e-06 1.22901e-08 4.97242e-09
180 2 0.001 -0.0128713 0 -0.0282908 3.17745e-05 0 5.36831e-06 1.48845e-09 7.76099e-09
181 2 0.001 -0.0126153 0 -0.0277086 3.76992e-05 0 1.41432e-06 1.26018e-09 7.73297e-09
330 3 0.001 -0.00768582 0 -0.0283475 -6.46983e-06 0 7.5786e-06 1.51793e-08 1.09251e-08
331 3 0.001 -0.00743812 0 -0.0277621 -6.83236e-06 0 8.53047e-06 2.82352e-08 1.09551e-08
480 4 0.001 -0.00304921 0 -0.0282218 8.1024e-06 0 3.95087e-05 6.38125e-08 1.43156e-08
481 4 0.001 -0.00284184 0 -0.0276212 8.02599e-06 0 4.07768e-05 8.91916e-08 1.43145e-08
629 5 0.001 0.000706229 0 -0.0285382 -1.25065e-05 0 -9.272e-06 7.36083e-08 1.58575e-08
630 5 0.001 0.000848461 0 -0.027919 -9.81474e-06 0 -5.90458e-06 9.59086e-08 1.59611e-08
631 5 0.001 0.000984654 0 -0.0272985 -5.62544e-06 0 -2.76997e-06 1.20215e-07 1.60632e-08
779 6 0.001 0.00428811 0 -0.0282889 3.95981e-05 0 1.45488e-05 7.44112e-08 1.27385e-08
780 6 0.001 0.00434727 0 -0.0276562 3.71269e-05 0 1.45449e-05 8.88966e-08 1.27484e-08
930 7 0.001 0.00782368 0 -0.0275472 -1.45768e-05 0 1.13831e-05 8.12889e-08 9.72717e-09
929 7 0.001 0.00784708 0 -0.0281825 -1.52102e-05 0 1.03939e-05 7.47241e-08 9.72908e-09
1080 8 0.001 0.0113368 0 -0.0275936 3.50533e-06 0 -1.75801e-05 7.45429e-08 6.89349e-09
1079 8 0.001 0.0114417 0 -0.0282209 4.5167e-06 0 -1.72327e-05 7.52366e-08 6.86819e-09
1230 9 0.001 0.0145435 0 -0.027837 5.74627e-06 0 8.66737e-06 3.57088e-08 3.42702e-09
1229 9 0.001 0.0147294 0 -0.0284457 1.00391e-05 0 9.18518e-06 4.14037e-08 3.44329e-09
1379 10 0.001 0.0192643 0 -0.0285394 1.21829e-05 0 2.43738e-05 2.92377e-08 2.67922e-09
1381 10 0.001 0.0188517 0 -0.0273349 1.56431e-05 0 2.45893e-05 1.77159e-08 2.627e-09
1380 10 0.001 0.0190594 0 -0.0279367 1.43257e-05 0 2.48458e-05 2.31233e-08 2.65226e-09
32 1 0.001 -0.0181212 0 -0.0268909 -1.14053e-05 0 -3.47715e-06 7.02568e-09 4.97133e-09
33 1 0.001 -0.0178834 0 -0.0263007 -1.60822e-05 0 -1.87365e-06 3.29835e-09 4.9736e-09
182 2 0.001 -0.0123596 0 -0.0271263 4.07717e-05 0 -9.91884e-07 4.03551e-09 7.71437e-09
183 2 0.001 -0.0121049 0 -0.0265435 4.01492e-05 0 -2.19553e-06 9.86217e-09 7.70544e-09
184 2 0.001 -0.011852 0 -0.02596 3.58215e-05 0 -1.7229e-06 1.87521e-08 7.70652e-09
332 3 0.001 -0.00719346 0 -0.0271754 -5.89815e-06 0 8.77198e-06 4.53409e-08 1.09961e-08
333 3 0.001 -0.00695269 0 -0.0265871 -3.34377e-06 0 8.52783e-06 6.62269e-08 1.10472e-08
334 3 0.001 -0.00671666 0 -0.0259969 3.42867e-07 0 8.12804e-06 9.05799e-08 1.11071e-08
482 4 0.001 -0.0026401 0 -0.0270186 6.15772e-06 0 4.17373e-05 1.18024e-07 1.43235e-08
483 4 0.001 -0.00244489 0 -0.026414 2.74027e-06 0 4.28261e-05 1.49801e-07 1.43422e-08
484 4 0.001 -0.00225705 0 -0.025807 -2.46291e-06 0 4.44791e-05 1.83945e-07 1.43688e-08
632 5 0.001 0.00111406 0 -0.0266766 -1.03032e-06 0 -1.11602e-06 1.46104e-07 1.61637e-08
633 5 0.001 0.00123597 0 -0.0260531 4.04057e-06 0 3.95329e-07 1.73139e-07 1.62629e-08
781 6 0.001 0.00440049 0 -0.0270229 3.04661e-05 0 1.48791e-05 1.04146e-07 1.27619e-08
782 6 0.001 0.00444725 0 -0.0263891 2.12665e-05 0 1.4954e-05 1.19927e-07 1.27786e-08
783 6 0.001 0.00448709 0 -0.0257548 1.08419e-05 0 1.46492e-05 1.3597e-07 1.27982e-08
931 7 0.001 0.00779455 0 -0.026912 -1.20262e-05 0 1.25191e-05 8.74745e-08 9.72218e-09
932 7 0.001 0.00775949 0 -0.0262772 -7.84266e-06 0 1.36144e-05 9.32038e-08 9.71402e-09
1081 8 0.001 0.0112266 0 -0.0269671 2.41548e-06 0 -1.80593e-05 7.34284e-08 6.91819e-09
1082 8 0.001 0.011111 0 -0.0263416 1.7424e-06 0 -1.79056e-05 7.1899e-08 6.94194e-09
1233 9 0.001 0.0139654 0 -0.026017 -1.91975e-06 0 7.58134e-06 2.06437e-08 3.37888e-09
1231 9 0.001 0.014354 0 -0.0272293 2.30245e-06 0 7.94329e-06 3.03328e-08 3.4108e-09
1232 9 0.001 0.0141612 0 -0.0266227 -3.68586e-07 0 7.65416e-06 2.53013e-08 3.39475e-09
1383 10 0.001 0.018429 0 -0.0261338 1.50451e-05 0 2.34674e-05 9.08375e-09 2.58149e-09
1382 10 0.001 0.0186414 0 -0.026734 1.57216e-05 0 2.43834e-05 1.30333e-08 2.60342e-09
34 1 0.001 -0.0176445 0 -0.025711 -1.95796e-05 0 -7.74343e-07 1.13164e-09 4.97942e-09
35 1 0.001 -0.0174053 0 -0.0251214 -2.11857e-05 0 -1.22979e-07 5.23725e-10 4.98862e-09
36 1 0.001 -0.017166 0 -0.0245318 -2.08601e-05 0 -3.31081e-07 1.4512e-09 5.00098e-09
185 2 0.001 -0.0116014 0 -0.0253754 2.7989e-05 0 2.15532e-07 3.06663e-08 7.71753e-09
186 2 0.001 -0.0113541 0 -0.0247895 1.70903e-05 0 3.20552e-06 4.55004e-08 7.73839e-09
335 3 0.001 -0.00648623 0 -0.0254045 3.98914e-06 0 7.39835e-06 1.18049e-07 1.1175e-08
336 3 0.001 -0.0062622 0 -0.0248096 6.6432e-06 0 6.94654e-06 1.48248e-07 1.12504e-08
485 4 0.001 -0.00207744 0 -0.0251975 -7.66024e-06 0 4.53131e-05 2.19819e-07 1.44016e-08
486 4 0.001 -0.00190686 0 -0.0245854 -1.1239e-05 0 4.58202e-05 2.56746e-07 1.44387e-08
634 5 0.001 0.00134968 0 -0.0254281 9.29148e-06 0 2.67538e-06 2.00878e-07 1.63586e-08
635 5 0.001 0.00145453 0 -0.0248016 1.37947e-05 0 4.32993e-06 2.28876e-07 1.64492e-08
784 6 0.001 0.00451954 0 -0.0251201 -5.83182e-08 0 1.40939e-05 1.5197e-07 1.28201e-08
785 6 0.001 0.00454417 0 -0.0244851 -1.10251e-05 0 1.35043e-05 1.67601e-07 1.2843e-08
933 7 0.001 0.00771831 0 -0.0256428 -2.63475e-06 0 1.44693e-05 9.84185e-08 9.70306e-09