ITEM: TIMESTEP
500000
ITEM: NUMBER OF ATOMS
1500
ITEM: BOX BOUNDS ff ff ff
-2.5000000000000001e-02 2.5000000000000001e-02
-5.0000000000000001e-03 5.0000000000000001e-03
-5.0000000000000003e-02 5.0000000000000003e-02
ITEM: ATOMS id type radius x y z fx fy fz c_bendingE c_stretchingE
1 1 0.001 -0.0225 0 -0.04655 -0.0290596 0 -3.8e-09 2.84997e-08 1.59293e-34
2 1 0.001 -0.0225 0 -0.0459124 0.0284753 0 -0.00735612 5.80194e-08 2.24928e-09
151 2 0.001 -0.0175 0 -0.04655 -0.035926 0 -3.8e-09 4.35595e-08 1.59293e-34
152 2 0.001 -0.0175 0 -0.0459124 0.0353073 0 -0.00914196 8.83725e-08 3.47407e-09
301 3 0.001 -0.0125 0 -0.04655 -0.046474 0 -3.8e-09 7.28944e-08 1.59293e-34
302 3 0.001 -0.0125 0 -0.0459124 0.0447172 0 -0.0122983 1.50797e-07 6.30331e-09
451 4 0.001 -0.0075 0 -0.04655 -0.0624575 0 -3.8e-09 1.31663e-07 1.59293e-34
452 4 0.001 -0.0075 0 -0.0459124 0.0633954 0 -0.0134677 2.58311e-07 7.5052e-09
601 5 0.001 -0.0025 0 -0.04655 -0.051793 0 -3.8e-09 9.05363e-08 1.59293e-34
602 5 0.001 -0.0025 0 -0.0459124 0.0524285 0 -0.0132157 1.78126e-07 7.2364e-09
751 6 0.001 0.0025 0 -0.04655 -0.0275324 0 -3.8e-09 2.55828e-08 1.59293e-34
752 6 0.001 0.0025 0 -0.0459124 0.0279467 0 -0.0111768 5.02257e-08 5.18162e-09
901 7 0.001 0.0075 0 -0.04655 -0.00721938 0 -3.8e-09 1.75894e-09 1.59293e-34
902 7 0.001 0.0075 0 -0.0459124 0.00808292 0 -0.0095218 3.11384e-09 3.76185e-09
1051 8 0.001 0.0125 0 -0.04655 0.0243473 0 -3.8e-09 2.0006e-08 1.59293e-34
1052 8 0.001 0.0125 0 -0.0459124 -0.0243405 0 -0.00488078 3.99612e-08 9.88799e-10
1201 9 0.001 0.0175 0 -0.04655 0.0437566 0 -3.8e-09 6.46189e-08 1.59293e-34
1202 9 0.001 0.0175 0 -0.0459124 -0.0443482 0 -0.00616746 1.27256e-07 1.5744e-09
1351 10 0.001 0.0225 0 -0.04655 0.0423844 0 -3.8e-09 6.06293e-08 1.59293e-34
1352 10 0.001 0.0225 0 -0.0459124 -0.0431942 0 -0.00523405 1.1877e-07 1.13222e-09
3 1 0.001 -0.0224941 0 -0.0452761 3.25169e-08 0 -3.87946e-07 8.84369e-08 4.50155e-09
4 1 0.001 -0.0224823 0 -0.0446398 8.71657e-08 0 -3.00062e-07 9.11217e-08 4.50714e-09
5 1 0.001 -0.0224644 0 -0.0440037 2.3623e-07 0 -1.29289e-07 9.34152e-08 4.51181e-09
153 2 0.001 -0.0174927 0 -0.0452764 -1.76676e-06 0 4.48457e-06 1.34198e-07 6.94882e-09
154 2 0.001 -0.0174781 0 -0.0446405 -4.91231e-06 0 8.91632e-06 1.37233e-07 6.94602e-09
155 2 0.001 -0.0174561 0 -0.0440048 -8.62611e-06 0 1.27671e-05 1.39541e-07 6.93545e-09
303 3 0.001 -0.0124906 0 -0.0452769 1.43007e-05 0 5.13693e-06 2.33201e-07 1.26241e-08
304 3 0.001 -0.0124715 0 -0.0446417 3.68486e-05 0 9.6116e-06 2.46553e-07 1.26504e-08
305 3 0.001 -0.0124425 0 -0.0440068 6.28365e-05 0 1.36716e-05 2.57924e-07 1.26586e-08
453 4 0.001 -0.0074874 0 -0.0452772 1.33243e-06 0 1.48422e-05 3.78987e-07 1.49648e-08
454 4 0.001 -0.00746244 0 -0.0446423 -6.78053e-07 0 2.82466e-05 3.61184e-07 1.48544e-08
455 4 0.001 -0.00742543 0 -0.044008 -1.16074e-05 0 4.03287e-05 3.40903e-07 1.47085e-08
603 5 0.001 -0.00248955 0 -0.0452771 2.09846e-06 0 1.33951e-05 2.62093e-07 1.44411e-08
604 5 0.001 -0.00246882 0 -0.0446421 7.58322e-06 0 2.4759e-05 2.51275e-07 1.43617e-08
605 5 0.001 -0.00243803 0 -0.0440074 1.32313e-05 0 3.43495e-05 2.38585e-07 1.42526e-08
753 6 0.001 0.00250556 0 -0.0452767 2.59526e-05 0 6.58981e-06 7.37297e-08 1.03523e-08
754 6 0.001 0.00251657 0 -0.0446411 5.92567e-05 0 1.45282e-05 7.02755e-08 1.03211e-08
755 6 0.001 0.00253291 0 -0.0440056 9.07143e-05 0 2.113e-05 6.61269e-08 1.02724e-08
903 7 0.001 0.00750146 0 -0.0452764 2.16142e-05 0 2.97722e-06 4.10245e-09 7.51984e-09
904 7 0.001 0.0075042 0 -0.0446404 5.49008e-05 0 6.30291e-06 3.00208e-09 7.50947e-09
905 7 0.001 0.00750803 0 -0.0440044 9.02526e-05 0 8.84494e-06 2.01902e-09 7.49433e-09
1053 8 0.001 0.0124951 0 -0.0452757 2.276e-05 0 -2.60699e-06 5.98411e-08 1.97864e-09
1054 8 0.001 0.0124852 0 -0.044639 5.77538e-05 0 -5.01428e-06 5.96727e-08 1.98205e-09
1055 8 0.001 0.0124705 0 -0.0440024 9.62639e-05 0 -7.38249e-06 5.96081e-08 1.98849e-09
1205 9 0.001 0.0174475 0 -0.0440036 9.02867e-06 0 1.41812e-05 1.74143e-07 3.1008e-09
1203 9 0.001 0.0174912 0 -0.0452759 2.75458e-06 0 4.55842e-06 1.8771e-07 3.14149e-09
1204 9 0.001 0.0174736 0 -0.0446396 5.8831e-06 0 9.70658e-06 1.81188e-07 3.12388e-09
1353 10 0.001 0.0224914 0 -0.0452758 7.71391e-06 0 -3.41865e-06 1.74307e-07 2.26079e-09
1354 10 0.001 0.0224745 0 -0.0446393 1.967e-05 0 -5.91175e-06 1.66542e-07 2.25459e-09
1355 10 0.001 0.0224493 0 -0.044003 3.35886e-05 0 -9.53337e-06 1.58577e-07 2.25136e-09
6 1 0.001 -0.0224403 0 -0.0433678 6.0972e-07 0 4.07895e-07 9.52945e-08 4.51524e-09
7 1 0.001 -0.0224101 0 -0.0427322 1.15632e-06 0 3.68153e-07 9.67398e-08 4.51749e-09
156 2 0.001 -0.0174265 0 -0.0433694 -1.36596e-05 0 1.6894e-05 1.4113e-07 6.91756e-09
157 2 0.001 -0.0173894 0 -0.0427344 -1.92717e-05 0 2.04988e-05 1.42021e-07 6.89287e-09
306 3 0.001 -0.0124033 0 -0.0433725 8.89407e-05 0 1.67873e-05 2.66858e-07 1.26466e-08
307 3 0.001 -0.0123537 0 -0.0427389 0.00011122 0 2.03498e-05 2.72933e-07 1.26122e-08
456 4 0.001 -0.00737672 0 -0.0433745 -3.18731e-05 0 5.50666e-05 3.18631e-07 1.45301e-08
457 4 0.001 -0.00731673 0 -0.042742 -5.58512e-05 0 7.27499e-05 2.94956e-07 1.43183e-08
606 5 0.001 -0.00239745 0 -0.0433733 2.00302e-05 0 4.41007e-05 2.242e-07 1.41161e-08
607 5 0.001 -0.00234739 0 -0.0427398 2.64533e-05 0 5.3764e-05 2.08331e-07 1.39527e-08
756 6 0.001 0.00255442 0 -0.0433702 0.000119185 0 2.52028e-05 6.12203e-08 1.02088e-08
757 6 0.001 0.0025809 0 -0.042735 0.000136154 0 2.92472e-05 5.55602e-08 1.01325e-08
906 7 0.001 0.00751275 0 -0.0433684 0.000119134 0 1.06355e-05 1.17818e-09 7.4756e-09
907 7 0.001 0.00751815 0 -0.0427324 0.000134767 0 1.23097e-05 5.37353e-10 7.45418e-09
1056 8 0.001 0.0124508 0 -0.0433659 0.000129661 0 -8.97367e-06 5.9822e-08 1.99828e-09
1057 8 0.001 0.0124263 0 -0.0427296 0.000151095 0 -1.0767e-05 6.04688e-08 2.0116e-09
1207 9 0.001 0.0173703 0 -0.0427328 1.39968e-05 0 2.28543e-05 1.58807e-07 3.04042e-09
1206 9 0.001 0.017413 0 -0.0433679 1.1525e-05 0 1.8658e-05 1.66656e-07 3.07285e-09
1356 10 0.001 0.0224162 0 -0.0433672 4.76849e-05 0 -1.32173e-05 1.50554e-07 2.25213e-09
1357 10 0.001 0.0223752 0 -0.0427318 5.84164e-05 0 -1.69364e-05 1.42599e-07 2.25729e-09
8 1 0.001 -0.0223736 0 -0.0420969 1.66337e-06 0 -5.2093e-07 9.77342e-08 4.5194e-09
9 1 0.001 -0.0223308 0 -0.0414619 2.08252e-06 0 -5.05966e-07 9.8265e-08 4.5209e-09
158 2 0.001 -0.0173448 0 -0.0420999 -2.60806e-05 0 2.34412e-05 1.42254e-07 6.86271e-09
159 2 0.001 -0.0172926 0 -0.041466 -3.30027e-05 0 2.67397e-05 1.41881e-07 6.82777e-09
308 3 0.001 -0.0122936 0 -0.0421062 0.000130238 0 2.49365e-05 2.75803e-07 1.2552e-08
309 3 0.001 -0.0122231 0 -0.0414746 0.000148207 0 2.76942e-05 2.75215e-07 1.24651e-08
458 4 0.001 -0.00724589 0 -0.0421105 -7.99229e-05 0 8.92166e-05 2.70503e-07 1.40764e-08
459 4 0.001 -0.0071647 0 -0.0414803 -0.000103214 0 0.000105142 2.45872e-07 1.38108e-08
608 5 0.001 -0.0022882 0 -0.0421072 3.31839e-05 0 6.11452e-05 1.9122e-07 1.37662e-08
609 5 0.001 -0.00222027 0 -0.0414753 3.88708e-05 0 6.86503e-05 1.73145e-07 1.35598e-08
758 6 0.001 0.00261212 0 -0.0421 0.000140164 0 3.37001e-05 4.92362e-08 1.00442e-08
759 6 0.001 0.00264779 0 -0.0414652 0.000130034 0 3.86514e-05 4.24322e-08 9.945e-09
908 7 0.001 0.00752396 0 -0.0420965 0.000134698 0 1.4633e-05 1.85978e-10 7.43012e-09
909 7 0.001 0.00752992 0 -0.0414605 0.000119028 0 1.83378e-05 2.32395e-10 7.40241e-09
1058 8 0.001 0.0123968 0 -0.0420935 0.000155915 0 -1.38878e-05 6.16523e-08 2.02904e-09
1059 8 0.001 0.0123623 0 -0.0414577 0.000142865 0 -1.73778e-05 6.34057e-08 2.05079e-09
1209 9 0.001 0.0172612 0 -0.0414643 1.99689e-05 0 3.25979e-05 1.42349e-07 2.96305e-09
1208 9 0.001 0.0173197 0 -0.0420982 1.68424e-05 0 2.70376e-05 1.50677e-07 3.00394e-09
1358 10 0.001 0.0223267 0 -0.0420969 6.49181e-05 0 -2.01788e-05 1.34811e-07 2.2668e-09
1359 10 0.001 0.0222708 0 -0.0414627 6.4989e-05 0 -2.27145e-05 1.27243e-07 2.27997e-09
10 1 0.001 -0.0222817 0 -0.0408275 2.52542e-06 0 2.48996e-07 9.83244e-08 4.52095e-09
11 1 0.001 -0.0222264 0 -0.0401935 3.15109e-06 0 6.36217e-07 9.79089e-08 4.5193e-09
12 1 0.001 -0.0221648 0 -0.0395602 3.93322e-06 0 4.39188e-07 9.70188e-08 4.5165e-09
160 2 0.001 -0.0172328 0 -0.0408327 -3.95755e-05 0 3.00377e-05 1.40961e-07 6.78822e-09
161 2 0.001 -0.0171656 0 -0.0402002 -4.44798e-05 0 3.20366e-05 1.39555e-07 6.74528e-09
162 2 0.001 -0.0170908 0 -0.0395685 -4.70347e-05 0 3.28553e-05 1.37716e-07 6.70082e-09
310 3 0.001 -0.0121421 0 -0.0408442 0.000164635 0 2.89245e-05 2.71017e-07 1.23541e-08
311 3 0.001 -0.0120507 0 -0.0402153 0.000178337 0 3.13271e-05 2.63167e-07 1.22189e-08
312 3 0.001 -0.0119491 0 -0.0395879 0.000187776 0 3.5174e-05 2.51753e-07 1.2058e-08
460 4 0.001 -0.00707365 0 -0.0408514 -0.000122029 0 0.000119126 2.21592e-07 1.35273e-08
461 4 0.001 -0.00697327 0 -0.0402239 -0.000130031 0 0.000129803 1.98083e-07 1.32322e-08
462 4 0.001 -0.00686409 0 -0.0395978 -0.00013288 0 0.000139468 1.75642e-07 1.29291e-08
610 5 0.001 -0.00214404 0 -0.0408445 4.38286e-05 0 7.60916e-05 1.54411e-07 1.3335e-08
611 5 0.001 -0.00205999 0 -0.0402146 4.92252e-05 0 8.0965e-05 1.35347e-07 1.30961e-08
612 5 0.001 -0.00196862 0 -0.0395856 5.4177e-05 0 8.28903e-05 1.16297e-07 1.285e-08
760 6 0.001 0.00268759 0 -0.0408307 0.000106531 0 4.33974e-05 3.54081e-08 9.83725e-09
762 6 0.001 0.0027781 0 -0.0395624 3.59539e-05 0 5.3325e-05 2.19143e-08 9.60881e-09
761 6 0.001 0.00273116 0 -0.0401964 7.41599e-05 0 4.74641e-05 2.84669e-08 9.72466e-09
910 7 0.001 0.00753573 0 -0.0408245 8.92669e-05 0 2.14885e-05 7.82073e-10 7.37101e-09
911 7 0.001 0.00754105 0 -0.0401885 5.01057e-05 0 2.37265e-05 1.91246e-09 7.33747e-09
912 7 0.001 0.00754555 0 -0.0395525 5.56552e-06 0 2.59604e-05 3.65057e-09 7.30262e-09
1060 8 0.001 0.0123228 0 -0.0408222 0.000112629 0 -2.14233e-05 6.56789e-08 2.0763e-09
1061 8 0.001 0.0122782 0 -0.040187 6.80388e-05 0 -2.64071e-05 6.83349e-08 2.10488e-09
1062 8 0.001 0.0122283 0 -0.0395522 1.48162e-05 0 -3.22528e-05 7.11548e-08 2.1358e-09
1212 9 0.001 0.0170416 0 -0.0395673 2.27026e-05 0 4.59263e-05 1.16955e-07 2.81524e-09
1211 9 0.001 0.017122 0 -0.0401988 2.37654e-05 0 4.22196e-05 1.2542e-07 2.86778e-09
1210 9 0.001 0.0171953 0 -0.0408312 2.31841e-05 0 3.82212e-05 1.33905e-07 2.91735e-09
1362 10 0.001 0.0220613 0 -0.0395641 3.5052e-05 0 -3.58049e-05 1.05772e-07 2.33991e-09
1360 10 0.001 0.0222078 0 -0.0408291 5.93397e-05 0 -2.57717e-05 1.19906e-07 2.29629e-09
1361 10 0.001 0.0221379 0 -0.0401962 4.87628e-05 0 -3.06385e-05 1.12768e-07 2.31618e-09
13 1 0.001 -0.022097 0 -0.0389274 4.6022e-06 0 1.90648e-07 9.56586e-08 4.51294e-09
14 1 0.001 -0.022023 0 -0.0382954 4.93248e-06 0 -5.99284e-08 9.38381e-08 4.50867e-09
163 2 0.001 -0.0170087 0 -0.0389378 -4.49769e-05 0 3.28578e-05 1.35475e-07 6.65585e-09
164 2 0.001 -0.0169193 0 -0.038308 -3.67108e-05 0 3.15921e-05 1.32835e-07 6.6108e-09
313 3 0.001 -0.0118375 0 -0.0389621 0.000190789 0 4.03915e-05 2.37009e-07 1.18712e-08
314 3 0.001 -0.0117164 0 -0.0383382 0.000181787 0 4.60746e-05 2.19338e-07 1.16619e-08
463 4 0.001 -0.00674665 0 -0.0389733 -0.000126414 0 0.000145912 1.54451e-07 1.26209e-08
464 4 0.001 -0.00662147 0 -0.0383502 -0.000115129 0 0.000148206 1.34604e-07 1.23122e-08
613 5 0.001 -0.0018705 0 -0.0389577 5.5957e-05 0 8.37928e-05 9.76157e-08 1.26027e-08
614 5 0.001 -0.00176619 0 -0.0383308 5.18949e-05 0 8.35529e-05 7.96726e-08 1.2359e-08
763 6 0.001 0.00282799 0 -0.0389285 -4.82273e-06 0 5.85716e-05 1.60186e-08 9.49075e-09
764 6 0.001 0.00288038 0 -0.0382949 -4.14742e-05 0 6.19971e-05 1.09813e-08 9.37375e-09
914 7 0.001 0.00755064 0 -0.0382804 -8.07099e-05 0 3.03529e-05 8.73817e-09 7.22775e-09
913 7 0.001 0.00754886 0 -0.0389165 -3.90113e-05 0 2.82277e-05 5.95978e-09 7.2662e-09
1063 8 0.001 0.0121731 0 -0.0389179 -4.08897e-05 0 -3.87327e-05 7.38561e-08 2.16826e-09
1064 8 0.001 0.0121124 0 -0.038284 -9.31448e-05 0 -4.55912e-05 7.61225e-08 2.20154e-09
1214 9 0.001 0.0168607 0 -0.0383069 1.39409e-05 0 5.21481e-05 1.0025e-07 2.70178e-09
1213 9 0.001 0.0169544 0 -0.0389366 1.91252e-05 0 4.95538e-05 1.08555e-07 2.75979e-09
1364 10 0.001 0.0218889 0 -0.0383025 2.08785e-06 0 -4.58262e-05 9.19053e-08 2.39647e-09
1363 10 0.001 0.0219782 0 -0.0389329 1.81675e-05 0 -4.07178e-05 9.88423e-08 2.36685e-09
15 1 0.001 -0.0219428 0 -0.0376641 5.19123e-06 0 3.02278e-07 9.15726e-08 4.50337e-09
16 1 0.001 -0.0218567 0 -0.0370336 5.62846e-06 0 1.95292e-07 8.88826e-08 4.497e-09
17 1 0.001 -0.0217646 0 -0.0364039 6.40598e-06 0 1.82011e-07 8.57924e-08 4.48976e-09
165 2 0.001 -0.0168226 0 -0.0376793 -2.10783e-05 0 2.92465e-05 1.29759e-07 6.56558e-09
166 2 0.001 -0.0167188 0 -0.0370517 5.44741e-07 0 2.47459e-05 1.26166e-07 6.52036e-09
167 2 0.001 -0.0166079 0 -0.0364253 2.74337e-05 0 1.87822e-05 1.21942e-07 6.47542e-09
315 3 0.001 -0.011586 0 -0.0377161 0.000164129 0 5.24315e-05 1.99304e-07 1.14361e-08
316 3 0.001 -0.0114468 0 -0.0370959 0.000136715 0 6.1596e-05 1.77606e-07 1.11981e-08
317 3 0.001 -0.0112994 0 -0.0364775 0.000102541 0 7.28416e-05 1.5502e-07 1.09512e-08
465 4 0.001 -0.00648909 0 -0.0377285 -9.7552e-05 0 0.000148142 1.16124e-07 1.20069e-08
466 4 0.001 -0.00635004 0 -0.0371083 -7.403e-05 0 0.00014556 9.89869e-08 1.17062e-08
467 4 0.001 -0.00620485 0 -0.0364895 -4.9499e-05 0 0.000142982 8.31507e-08 1.14097e-08
615 5 0.001 -0.00165631 0 -0.0377048 3.92499e-05 0 8.24593e-05 6.28523e-08 1.21248e-08
616 5 0.001 -0.00154149 0 -0.0370797 1.78775e-05 0 8.02279e-05 4.75373e-08 1.19065e-08
617 5 0.001 -0.0014224 0 -0.0364553 -9.07088e-06 0 7.93618e-05 3.40783e-08 1.17077e-08
765 6 0.001 0.00293484 0 -0.0376614 -6.69897e-05 0 6.34936e-05 6.91879e-09 9.26069e-09
767 6 0.001 0.0030482 0 -0.0363948 -6.61569e-05 0 5.9225e-05 1.77874e-09 9.05331e-09
766 6 0.001 0.00299092 0 -0.037028 -7.6288e-05 0 6.26647e-05 3.86255e-09 9.15343e-09
915 7 0.001 0.00755056 0 -0.0376444 -0.000114539 0 3.2287e-05 1.18305e-08 7.18677e-09
917 7 0.001 0.00754358 0 -0.0363723 -0.000142971 0 3.39663e-05 1.82165e-08 7.09804e-09
916 7 0.001 0.00754831 0 -0.0370084 -0.000136698 0 3.30152e-05 1.50511e-08 7.1435e-09
1065 8 0.001 0.0120462 0 -0.0376507 -0.000136452 0 -5.10648e-05 7.76429e-08 2.23455e-09
1066 8 0.001 0.0119745 0 -0.0370181 -0.000166977 0 -5.54491e-05 7.81531e-08 2.26616e-09
1067 8 0.001 0.0118971 0 -0.0363861 -0.00018179 0 -5.74908e-05 7.74744e-08 2.29554e-09
1217 9 0.001 0.0165429 0 -0.0364237 1.35551e-06 0 5.91659e-05 7.61118e-08 2.51619e-09
1216 9 0.001 0.0166547 0 -0.0370504 2.99517e-06 0 5.67701e-05 8.40037e-08 2.57973e-09
1215 9 0.001 0.0167607 0 -0.0376782 7.63465e-06 0 5.4359e-05 9.20592e-08 2.64171e-09
1367 10 0.001 0.0215856 0 -0.0364167 -2.4004e-05 0 -5.7726e-05 7.06088e-08 2.49931e-09
1366 10 0.001 0.0216923 0 -0.0370444 -2.0593e-05 0 -5.45769e-05 7.77992e-08 2.46275e-09
1365 10 0.001 0.0217935 0 -0.037673 -1.16159e-05 0 -5.03274e-05 8.49008e-08 2.42848e-09
18 1 0.001 -0.0216667 0 -0.0357751 7.20463e-06 0 1.91213e-07 8.23289e-08 4.48159e-09
19 1 0.001 -0.0215631 0 -0.0351473 7.58187e-06 0 -5.73123e-07 7.85232e-08 4.47305e-09
168 2 0.001 -0.0164902 0 -0.0358002 5.71465e-05 0 1.18596e-05 1.16957e-07 6.4303e-09
169 2 0.001 -0.0163657 0 -0.0351764 8.7648e-05 0 3.47487e-06 1.11082e-07 6.38503e-09
318 3 0.001 -0.0111443 0 -0.035861 6.22099e-05 0 8.59225e-05 1.32349e-07 1.06994e-08
319 3 0.001 -0.0109822 0 -0.0352464 1.99736e-05 0 9.85701e-05 1.10348e-07 1.04477e-08
468 4 0.001 -0.00605404 0 -0.035872 -2.1352e-05 0 0.000137322 6.85684e-08 1.1118e-08
469 4 0.001 -0.00589814 0 -0.0352557 1.02528e-05 0 0.000128369 5.52071e-08 1.08344e-08
618 5 0.001 -0.00129971 0 -0.0358317 -3.50846e-05 0 7.92444e-05 2.27555e-08 1.15282e-08
619 5 0.001 -0.00117411 0 -0.0352086 -5.8956e-05 0 7.83278e-05 1.37503e-08 1.13682e-08
769 6 0.001 0.00316464 0 -0.0351284 -3.69704e-06 0 4.86137e-05 2.70822e-10 8.8745e-09
768 6 0.001 0.00310624 0 -0.0357616 -3.94411e-05 0 5.45395e-05 6.01898e-10 8.96043e-09
919 7 0.001 0.00752577 0 -0.0351003 -0.00011029 0 3.55564e-05 2.38391e-08 6.99918e-09
918 7 0.001 0.00753614 0 -0.0357363 -0.000133322 0 3.50814e-05 2.11769e-08 7.04977e-09
1069 8 0.001 0.0117258 0 -0.0351243 -0.000162138 0 -5.65431e-05 7.24069e-08 2.34663e-09
1068 8 0.001 0.0118142 0 -0.0357548 -0.000179967 0 -5.75076e-05 7.55403e-08 2.32216e-09
1219 9 0.001 0.0163033 0 -0.0351731 4.39905e-06 0 6.58678e-05 6.09972e-08 2.38482e-09
1218 9 0.001 0.0164257 0 -0.0357979 1.7823e-06 0 6.25074e-05 6.84254e-08 2.45118e-09
1369 10 0.001 0.0213567 0 -0.0351641 -8.47453e-06 0 -5.8521e-05 5.62e-08 2.57759e-09
1368 10 0.001 0.0214736 0 -0.03579 -2.03857e-05 0 -5.82904e-05 6.33794e-08 2.53754e-09
20 1 0.001 -0.0214539 0 -0.0345203 7.75417e-06 0 -9.20305e-07 7.44113e-08 4.46445e-09
21 1 0.001 -0.0213394 0 -0.0338944 7.92961e-06 0 -1.25155e-06 7.00333e-08 4.45564e-09
170 2 0.001 -0.0162346 0 -0.0345539 0.000116598 0 -5.06728e-06 1.04218e-07 6.33973e-09
171 2 0.001 -0.0160972 0 -0.0339328 0.000140281 0 -1.29504e-05 9.63198e-08 6.29414e-09
320 3 0.001 -0.0108136 0 -0.0346334 -1.95339e-05 0 0.000110434 8.96754e-08 1.02008e-08
321 3 0.001 -0.0106392 0 -0.034022 -5.23903e-05 0 0.000119688 7.08367e-08 9.96211e-09
322 3 0.001 -0.0104598 0 -0.0334121 -7.82633e-05 0 0.000127373 5.41736e-08 9.73374e-09
470 4 0.001 -0.00573768 0 -0.0346406 4.29696e-05 0 0.000117322 4.30553e-08 1.05614e-08
471 4 0.001 -0.00557321 0 -0.0340266 7.85305e-05 0 0.000102837 3.21365e-08 1.0302e-08
472 4 0.001 -0.00540529 0 -0.0334134 0.000112497 0 8.73558e-05 2.25268e-08 1.00589e-08
620 5 0.001 -0.00104626 0 -0.0345859 -7.46684e-05 0 7.33613e-05 7.13384e-09 1.12302e-08
621 5 0.001 -0.000916845 0 -0.0339636 -8.08279e-05 0 6.43313e-05 2.87835e-09 1.11181e-08
622 5 0.001 -0.000786525 0 -0.0333414 -7.63147e-05 0 5.40936e-05 8.82621e-10 1.1032e-08
770 6 0.001 0.003223 0 -0.0344952 3.42639e-05 0 4.27542e-05 7.56258e-10 8.79542e-09
771 6 0.001 0.00328092 0 -0.033862 6.48317e-05 0 3.65233e-05 2.07237e-09 8.72384e-09
921 7 0.001 0.00749557 0 -0.0338286 -4.2908e-05 0 3.6169e-05 2.82059e-08 6.89492e-09
920 7 0.001 0.0075123 0 -0.0344644 -7.88968e-05 0 3.60361e-05 2.61732e-08 6.94724e-09
1071 8 0.001 0.011533 0 -0.0338656 -9.30414e-05 0 -4.7922e-05 6.32887e-08 2.39173e-09
1070 8 0.001 0.011632 0 -0.0344945 -0.000131794 0 -5.32394e-05 6.82405e-08 2.36974e-09
1221 9 0.001 0.0160442 0 -0.0339263 1.56373e-05 0 7.47544e-05 4.71488e-08 2.24825e-09
1220 9 0.001 0.0161761 0 -0.0345492 8.84901e-06 0 7.04986e-05 5.38851e-08 2.31711e-09
1371 10 0.001 0.0211091 0 -0.0339151 3.25689e-05 0 -5.33054e-05 4.24838e-08 2.66435e-09
1370 10 0.001 0.0212351 0 -0.0345392 9.76166e-06 0 -5.64878e-05 4.91903e-08 2.6199e-09
22 1 0.001 -0.0212196 0 -0.0332694 8.47987e-06 0 -6.20706e-07 6.54327e-08 4.44607e-09
23 1 0.001 -0.0210948 0 -0.0326454 8.99361e-06 0 -6.31378e-07 6.0655e-08 4.4356e-09
24 1 0.001 -0.0209651 0 -0.0320223 9.2576e-06 0 -8.45817e-07 5.57476e-08 4.42484e-09
172 2 0.001 -0.0159536 0 -0.033313 0.00015411 0 -1.77175e-05 8.74272e-08 6.24745e-09
173 2 0.001 -0.0158043 0 -0.0326947 0.000154815 0 -1.99821e-05 7.76847e-08 6.19952e-09
174 2 0.001 -0.0156496 0 -0.0320776 0.000142238 0 -1.91723e-05 6.73468e-08 6.15159e-09
323 3 0.001 -0.0102758 0 -0.0328035 -9.17365e-05 0 0.00012977 3.98633e-08 9.5174e-09
324 3 0.001 -0.0100881 0 -0.032196 -9.43509e-05 0 0.000127929 2.79457e-08 9.31512e-09
473 4 0.001 -0.00523449 0 -0.032801 0.000142431 0 6.97836e-05 1.43673e-08 9.83545e-09
474 4 0.001 -0.00506141 0 -0.0321892 0.000160603 0 5.34072e-05 7.87689e-09 9.63604e-09
623 5 0.001 -0.000655943 0 -0.0327193 -5.8939e-05 0 4.24923e-05 1.00905e-09 1.09687e-08
624 5 0.001 -0.000525729 0 -0.0320971 -3.37173e-05 0 2.90587e-05 3.12081e-09 1.09265e-08
772 6 0.001 0.003338 0 -0.0332286 8.57996e-05 0 3.15431e-05 4.2725e-09 8.66056e-09
774 6 0.001 0.00344796 0 -0.0319616 9.24059e-05 0 2.29511e-05 1.16322e-08 8.562e-09
773 6 0.001 0.00339382 0 -0.0325952 9.47814e-05 0 2.68057e-05 7.43316e-09 8.60625e-09
922 7 0.001 0.00747547 0 -0.0331928 -4.82042e-06 0 3.72207e-05 3.00075e-08 6.84264e-09
924 7 0.001 0.00742473 0 -0.0319217 5.84192e-05 0 3.55579e-05 3.33091e-08 6.74403e-09
923 7 0.001 0.00745189 0 -0.0325572 3.01282e-05 0 3.6803e-05 3.1674e-08 6.79159e-09
1074 8 0.001 0.011207 0 -0.0319835 2.63749e-05 0 -2.77167e-05 4.65577e-08 2.45298e-09
1073 8 0.001 0.0113203 0 -0.0326101 -1.05786e-05 0 -3.35492e-05 5.21776e-08 2.43249e-09
1072 8 0.001 0.011429 0 -0.0332374 -5.13913e-05 0 -4.04356e-05 5.78389e-08 2.4125e-09
1222 9 0.001 0.0159082 0 -0.0333043 2.26272e-05 0 7.9152e-05 4.08435e-08 2.17883e-09
1224 9 0.001 0.0156244 0 -0.0320628 3.42195e-05 0 8.77209e-05 2.96922e-08 2.03881e-09
1223 9 0.001 0.0157681 0 -0.0326831 2.92095e-05 0 8.34931e-05 3.50146e-08 2.109e-09
1372 10 0.001 0.0209791 0 -0.0332919 5.83442e-05 0 -4.83489e-05 3.62104e-08 2.71081e-09
1374 10 0.001 0.0207082 0 -0.0320478 0.000104757 0 -3.85846e-05 2.53602e-08 2.80954e-09
1373 10 0.001 0.0208453 0 -0.0326695 8.2974e-05 0 -4.3619e-05 3.04778e-08 2.75923e-09
25 1 0.001 -0.0208308 0 -0.0314003 9.43039e-06 0 1.13112e-07 5.07607e-08 4.41337e-09
26 1 0.001 -0.0206921 0 -0.0307792 9.43929e-06 0 6.91213e-07 4.57464e-08 4.40085e-09
175 2 0.001 -0.0154898 0 -0.0314619 0.000115505 0 -1.36625e-05 5.67601e-08 6.10425e-09
176 2 0.001 -0.0153253 0 -0.0308473 7.56031e-05 0 -4.8253e-06 4.63284e-08 6.05849e-09
325 3 0.001 -0.00989725 0 -0.0315895 -8.6254e-05 0 0.0001241 1.83563e-08 9.12581e-09
326 3 0.001 -0.00970383 0 -0.0309838 -7.06553e-05 0 0.000115906 1.09732e-08 8.94897e-09
327 3 0.001 -0.00950846 0 -0.0303787 -4.66526e-05 0 0.000103506 5.65305e-09 8.78635e-09
475 4 0.001 -0.00488669 0 -0.0315779 0.00016988 0 4.23327e-05 3.344e-09 9.46022e-09
476 4 0.001 -0.00471098 0 -0.0309668 0.000159709 0 3.53516e-05 1.10326e-09 9.30741e-09
477 4 0.001 -0.00453498 0 -0.0303558 0.000133242 0 3.09743e-05 1.48573e-09 9.18132e-09
625 5 0.001 -0.000396496 0 -0.0314747 -8.02307e-07 0 1.60489e-05 7.11392e-09 1.09033e-08
626 5 0.001 -0.000268848 0 -0.0308519 2.96393e-05 0 3.68021e-06 1.29337e-08 1.0897e-08
775 6 0.001 0.00349998 0 -0.0313279 8.05839e-05 0 2.08075e-05 1.69258e-08 8.52728e-09
776 6 0.001 0.00354942 0 -0.0306939 6.11774e-05 0 1.89964e-05 2.33281e-08 8.50149e-09
926 7 0.001 0.00735936 0 -0.0306512 8.72489e-05 0 3.42185e-05 3.68375e-08 6.65926e-09
925 7 0.001 0.00739392 0 -0.0312863 7.82308e-05 0 3.52663e-05 3.50068e-08 6.70004e-09
1076 8 0.001 0.010968 0 -0.0307328 7.73533e-05 0 -1.75993e-05 3.61749e-08 2.4964e-09
1075 8 0.001 0.0110895 0 -0.0313578 5.61554e-05 0 -2.19362e-05 4.11781e-08 2.47432e-09
1226 9 0.001 0.0153273 0 -0.0308244 3.91299e-05 0 9.60307e-05 2.06061e-08 1.89635e-09
1225 9 0.001 0.0154774 0 -0.0314432 3.69103e-05 0 9.24394e-05 2.48898e-08 1.96789e-09
1376 10 0.001 0.0204248 0 -0.0308066 0.000126086 0 -2.93659e-05 1.70596e-08 2.91134e-09
1375 10 0.001 0.0205679 0 -0.0314269 0.000119814 0 -3.28281e-05 2.08903e-08 2.86052e-09
27 1 0.001 -0.0205491 0 -0.0301591 9.47151e-06 0 3.82287e-08 4.07578e-08 4.38836e-09
28 1 0.001 -0.0204023 0 -0.0295399 9.83454e-06 0 -4.4928e-07 3.58473e-08 4.37658e-09
29 1 0.001 -0.0202517 0 -0.0289216 1.00564e-05 0 -9.20832e-07 3.10662e-08 4.36548e-09
177 2 0.001 -0.0151568 0 -0.0302339 2.57994e-05 0 6.54334e-06 3.64658e-08 6.01633e-09
178 2 0.001 -0.0149845 0 -0.0296215 -2.78346e-05 0 1.99757e-05 2.75417e-08 5.97892e-09
179 2 0.001 -0.014809 0 -0.02901 -8.00061e-05 0 3.2862e-05 1.98336e-08 5.94711e-09
328 3 0.001 -0.00931174 0 -0.029774 -1.73112e-05 0 9.08185e-05 2.26425e-09 8.63692e-09
329 3 0.001 -0.00911424 0 -0.0291695 1.26615e-05 0 7.65018e-05 7.09716e-10 8.49982e-09
478 4 0.001 -0.00435941 0 -0.0297447 9.65059e-05 0 3.12285e-05 4.76084e-09 9.08277e-09
479 4 0.001 -0.00418502 0 -0.0291333 4.87356e-05 0 3.47643e-05 1.1074e-08 9.01028e-09
627 5 0.001 -0.000143384 0 -0.0302288 5.10225e-05 0 -7.59096e-06 2.05693e-08 1.09085e-08
628 5 0.001 -2.07005e-05 0 -0.029605 6.53008e-05 0 -1.58564e-05 3.00341e-08 1.09376e-08
629 5 0.001 9.86041e-05 0 -0.0289807 7.49552e-05 0 -2.01766e-05 4.1343e-08 1.09803e-08
777 6 0.001 0.00359583 0 -0.0300597 3.34631e-05 0 1.59166e-05 3.07915e-08 8.48609e-09
778 6 0.001 0.00363875 0 -0.0294252 -4.45578e-07 0 1.3741e-05 3.91914e-08 8.48149e-09
779 6 0.001 0.00367771 0 -0.0287905 -3.74402e-05 0 1.14975e-05 4.83173e-08 8.48635e-09
928 7 0.001 0.0072786 0 -0.0293815 6.95031e-05 0 2.7496e-05 4.09948e-08 6.59202e-09
927 7 0.001 0.00732095 0 -0.0300162 8.36598e-05 0 3.12278e-05 3.88363e-08 6.62297e-09
1077 8 0.001 0.0108427 0 -0.0301086 8.99529e-05 0 -1.57077e-05 3.16232e-08 2.51981e-09
1079 8 0.001 0.010582 0 -0.0288623 9.19832e-05 0 -1.65567e-05 2.39297e-08 2.57182e-09
1078 8 0.001 0.010714 0 -0.0294851 9.43736e-05 0 -1.52309e-05 2.75464e-08 2.54492e-09
1229 9 0.001 0.0148612 0 -0.0289717 3.32039e-05 0 0.000102778 1.06772e-08 1.68236e-09
1227 9 0.001 0.0151743 0 -0.0302062 3.83916e-05 0 9.83082e-05 1.68265e-08 1.82487e-09
1228 9 0.001 0.0150189 0 -0.0295887 3.61859e-05 0 0.0001005 1.35271e-08 1.75361e-09
1379 10 0.001 0.0199813 0 -0.028949 9.80957e-05 0 -3.09721e-05 8.85815e-09 3.06479e-09
1378 10 0.001 0.0201313 0 -0.0295677 0.000113285 0 -2.95421e-05 1.11164e-08 3.01383e-09
1377 10 0.001 0.0202792 0 -0.0301868 0.000123361 0 -2.88093e-05 1.38243e-08 2.96244e-09
30 1 0.001 -0.0200977 0 -0.0283041 9.78531e-06 0 -1.67938e-06 2.64656e-08 4.35538e-09
31 1 0.001 -0.0199405 0 -0.0276875 9.73487e-06 0 -9.4776e-07 2.2096e-08 4.34574e-09
180 2 0.001 -0.0146309 0 -0.0283992 -0.000124718 0 4.27674e-05 1.34963e-08 5.92246e-09
181 2 0.001 -0.0144506 0 -0.0277892 -0.000155637 0 5.07073e-05 8.55777e-09 5.90453e-09
330 3 0.001 -0.00891652 0 -0.0285651 3.80006e-05 0 6.27883e-05 9.40665e-10 8.37639e-09
331 3 0.001 -0.00871916 0 -0.0279606 5.85561e-05 0 5.26413e-05 2.95549e-09 8.26549e-09
332 3 0.001 -0.00852272 0 -0.0273558 6.99141e-05 0 4.30318e-05 6.78631e-09 8.16745e-09
480 4 0.001 -0.00401257 0 -0.0285212 -4.64828e-06 0 3.62151e-05 2.04005e-08 8.96614e-09
481 4 0.001 -0.0038428 0 -0.0279084 -5.82952e-05 0 4.05004e-05 3.25204e-08 8.94969e-09
482 4 0.001 -0.00367649 0 -0.0272947 -0.000104025 0 4.38989e-05 4.70292e-08 8.9554e-09
630 5 0.001 0.000213929 0 -0.0283555 7.51943e-05 0 -2.25411e-05 5.44878e-08 1.10341e-08
631 5 0.001 0.000324669 0 -0.0277296 6.74573e-05 0 -1.98139e-05 6.94121e-08 1.10955e-08
780 6 0.001 0.00371228 0 -0.0281555 -7.09611e-05 0 9.28422e-06 5.78841e-08 8.49912e-09
781 6 0.001 0.00374202 0 -0.0275203 -0.000101246 0 7.93515e-06 6.75512e-08 8.51699e-09
929 7 0.001 0.0072322 0 -0.0287471 4.68869e-05 0 2.26683e-05 4.32585e-08 6.56644e-09
931 7 0.001 0.00712679 0 -0.0274793 -1.14371e-05 0 1.17102e-05 4.7685e-08 6.53105e-09
930 7 0.001 0.00718163 0 -0.028113 1.91356e-05 0 1.66374e-05 4.55316e-08 6.54653e-09
1081 8 0.001 0.0103091 0 -0.0276185 7.52159e-05 0 -2.10861e-05 1.79085e-08 2.63123e-09
1080 8 0.001 0.010447 0 -0.0282401 8.4938e-05 0 -1.93528e-05 2.07338e-08 2.60082e-09
1231 9 0.001 0.01454 0 -0.0277392 2.23809e-05 0 0.000103102 6.1896e-09 1.54202e-09
1230 9 0.001 0.0147015 0 -0.0283552 2.87587e-05 0 0.000102785 8.24306e-09 1.6117e-09
1381 10 0.001 0.0196761 0 -0.027713 5.88942e-05 0 -3.53175e-05 5.39288e-09 3.16397e-09
1380 10 0.001 0.0198295 0 -0.0283308 7.97441e-05 0 -3.39561e-05 6.97298e-09 3.11517e-09
32 1 0.001 -0.0197805 0 -0.0270715 9.85047e-06 0 -5.74138e-07 1.80064e-08 4.33593e-09
33 1 0.001 -0.0196178 0 -0.0264563 1.011e-05 0 -5.02468e-07 1.42429e-08 4.32638e-09
34 1 0.001 -0.0194529 0 -0.0258417 1.01392e-05 0 -5.86375e-07 1.08486e-08 4.31746e-09
182 2 0.001 -0.0142685 0 -0.0271796 -0.000170044 0 5.42857e-05 4.93627e-09 5.89146e-09
183 2 0.001 -0.0140851 0 -0.0265704 -0.000166249 0 5.27495e-05 2.47582e-09 5.88224e-09
184 2 0.001 -0.0139008 0 -0.0259615 -0.000144921 0 4.5413e-05 9.87878e-10 5.87635e-09
333 3 0.001 -0.00832777 0 -0.0267505 7.10622e-05 0 3.66336e-05 1.24757e-08 8.0843e-09
334 3 0.001 -0.00813491 0 -0.0261445 6.39343e-05 0 3.30244e-05 2.00499e-08 8.01597e-09
483 4 0.001 -0.00351435 0 -0.0266799 -0.000137066 0 4.48903e-05 6.3382e-08 8.9788e-09
484 4 0.001 -0.00335709 0 -0.0260638 -0.000157894 0 4.41989e-05 8.09581e-08 9.01511e-09
632 5 0.001 0.00043022 0 -0.0271028 5.2574e-05 0 -1.58517e-05 8.5985e-08 1.11604e-08
633 5 0.001 0.000529982 0 -0.026475 3.04967e-05 0 -1.07397e-05 1.03981e-07 1.12279e-08
634 5 0.001 0.000623359 0 -0.0258462 1.26918e-06 0 -1.43606e-06 1.23063e-07 1.12933e-08
782 6 0.001 0.00376655 0 -0.0268849 -0.000124654 0 5.68399e-06 7.69542e-08 8.53778e-09
783 6 0.001 0.00378551 0 -0.0262493 -0.000135566 0 2.46072e-06 8.57452e-08 8.5608e-09
933 7 0.001 0.00700391 0 -0.026213 -6.34551e-05 0 7.11015e-07 5.10391e-08 6.50906e-09
932 7 0.001 0.00706758 0 -0.0268459 -4.00657e-05 0 6.28531e-06 4.95703e-08 6.51855e-09
1083 8 0.001 0.0100258 0 -0.0263772 5.33958e-05 0 -2.54038e-05 1.31668e-08 2.69363e-09
1082 8 0.001 0.0101686 0 -0.0269976 6.46031e-05 0 -2.30925e-05 1.5402e-08 2.66218e-09
1234 9 0.001 0.0140474 0 -0.0258931 -6.38872e-08 0 0.000100777 1.9836e-09 1.33921e-09
1233 9 0.001 0.0142127 0 -0.0265081 7.56754e-06 0 0.000101673 3.08929e-09 1.40571e-09
1232 9 0.001 0.014377 0 -0.0271235 1.50967e-05 0 0.000102239 4.48224e-09 1.47329e-09
1384 10 0.001 0.0192082 0 -0.0258616 2.3198e-06 0 -3.84593e-05 2.0072e-09 3.29247e-09
1383 10 0.001 0.0193653 0 -0.0264784 1.99212e-05 0 -3.77642e-05 2.94236e-09 3.25268e-09
1382 10 0.001 0.0195213 0 -0.0270956 3.83131e-05 0 -3.65961e-05 4.06267e-09 3.20982e-09
35 1 0.001 -0.0192859 0 -0.0252276 9.9151e-06 0 -1.59512e-07 7.86395e-09 4.30911e-09
36 1 0.001 -0.0191173 0 -0.0246139 9.4726e-06 0 -4.78469e-09 5.32572e-09 4.30135e-09
185 2 0.001 -0.0137161 0 -0.0253527 -0.00010916 0 3.35699e-05 2.90448e-10 5.87362e-09
186 2 0.001 -0.0135311 0 -0.024744 -6.28992e-05 0 1.84527e-05 2.38303e-10 5.87372e-09
335 3 0.001 -0.00794471 0 -0.0255376 4.69591e-05 0 3.25062e-05 2.94881e-08 7.96215e-09
336 3 0.001 -0.00775776 0 -0.0249297 2.05473e-05 0 3.44161e-05 4.06935e-08 7.92266e-09
337 3 0.001 -0.00757467 0 -0.0243207 -1.19097e-05 0 3.75991e-05 5.34702e-08 7.89728e-09
485 4 0.001 -0.00320536 0 -0.0254463 -0.000160044 0 3.77201e-05 9.91436e-08 9.06161e-09
486 4 0.001 -0.00305977 0 -0.0248273 -0.000145947 0 2.85438e-05 1.17403e-07 9.11649e-09