ITEM: TIMESTEP
200000
ITEM: NUMBER OF ATOMS
1500
ITEM: BOX BOUNDS ff ff ff
-2.5000000000000001e-02 2.5000000000000001e-02
-5.0000000000000001e-03 5.0000000000000001e-03
-5.0000000000000003e-02 5.0000000000000003e-02
ITEM: ATOMS id type radius x y z fx fy fz c_bendingE c_stretchingE
1 1 0.001 -0.0225 0 -0.04712 -0.0422175 0 -3.8e-09 6.01527e-08 1.59293e-34
151 2 0.001 -0.0175 0 -0.04712 -0.0326984 0 -3.8e-09 3.60841e-08 1.59293e-34
301 3 0.001 -0.0125 0 -0.04712 -0.0431022 0 -3.8e-09 6.27003e-08 1.59293e-34
451 4 0.001 -0.0075 0 -0.04712 0.0025881 0 -3.8e-09 2.26055e-10 1.59293e-34
601 5 0.001 -0.0025 0 -0.04712 0.00871217 0 -3.8e-09 2.56156e-09 1.59293e-34
751 6 0.001 0.0025 0 -0.04712 -0.00158194 0 -3.8e-09 8.44564e-11 1.59293e-34
901 7 0.001 0.0075 0 -0.04712 0.0326984 0 -3.8e-09 3.60841e-08 1.59293e-34
1051 8 0.001 0.0125 0 -0.04712 0.0422175 0 -3.8e-09 6.01527e-08 1.59293e-34
1201 9 0.001 0.0175 0 -0.04712 0.0208959 0 -3.8e-09 1.4736e-08 1.59293e-34
1351 10 0.001 0.0225 0 -0.04712 -0.0209029 0 -3.8e-09 1.47459e-08 1.59293e-34
2 1 0.001 -0.0225 0 -0.0464824 0.0439795 0 0.00055772 1.15409e-07 1.40263e-11
3 1 0.001 -0.0224915 0 -0.0458448 -1.06569e-06 0 2.42263e-06 1.66e-07 2.92798e-11
152 2 0.001 -0.0175 0 -0.0464824 0.0331144 0 0.000281935 7.12624e-08 3.40107e-12
153 2 0.001 -0.0174934 0 -0.0458448 3.85187e-06 0 2.12619e-06 1.05544e-07 6.95667e-12
302 3 0.001 -0.0125 0 -0.0464824 0.0443828 0 -0.00746734 1.21449e-07 2.30332e-09
303 3 0.001 -0.0124913 0 -0.0458461 -8.60595e-06 0 -2.21407e-07 1.76132e-07 4.5952e-09
452 4 0.001 -0.0075 0 -0.0464824 -0.00536688 0 -0.0140348 2.27299e-10 8.17365e-09
453 4 0.001 -0.00750052 0 -0.0458472 1.83166e-05 0 9.77874e-06 5.21597e-10 1.63361e-08
602 5 0.001 -0.0025 0 -0.0464824 -0.0108539 0 -0.0233467 3.99588e-09 2.26138e-08
603 5 0.001 -0.00250175 0 -0.0458487 1.5581e-05 0 -3.5528e-06 4.61807e-09 4.52257e-08
752 6 0.001 0.0025 0 -0.0464824 0.00309924 0 -0.0115937 8.45921e-11 5.57869e-09
753 6 0.001 0.00250032 0 -0.0458468 -2.26869e-06 0 7.2366e-06 1.5585e-10 1.11504e-08
902 7 0.001 0.0075 0 -0.0464824 -0.0331144 0 0.000281929 7.12623e-08 3.40093e-12
903 7 0.001 0.00749338 0 -0.0458448 -3.8519e-06 0 2.12617e-06 1.05544e-07 6.9564e-12
1052 8 0.001 0.0125 0 -0.0464824 -0.0439795 0 0.000557718 1.15409e-07 1.40262e-11
1053 8 0.001 0.0124915 0 -0.0458448 1.06569e-06 0 2.42263e-06 1.65999e-07 2.92796e-11
1202 9 0.001 0.0175 0 -0.0464824 -0.0217284 0 -0.0197166 2.81513e-08 1.61267e-08
1203 9 0.001 0.0174958 0 -0.0458481 1.63572e-05 0 3.91465e-06 4.01703e-08 3.22367e-08
1352 10 0.001 0.0225 0 -0.0464824 0.021735 0 -0.0197168 2.8171e-08 1.61271e-08
1353 10 0.001 0.0225042 0 -0.0458481 -1.63557e-05 0 3.91522e-06 4.01996e-08 3.22374e-08
4 1 0.001 -0.0224747 0 -0.0452073 -2.07353e-06 0 4.08063e-06 1.52002e-07 3.18132e-11
5 1 0.001 -0.0224501 0 -0.0445701 -2.74434e-06 0 -5.89311e-07 1.38693e-07 3.41644e-11
154 2 0.001 -0.0174802 0 -0.0452073 1.21943e-05 0 4.07437e-06 1.02838e-07 7.32398e-12
155 2 0.001 -0.0174606 0 -0.04457 2.13508e-05 0 2.41406e-07 1.00108e-07 7.67128e-12
304 3 0.001 -0.0124741 0 -0.04521 -2.64701e-05 0 1.60485e-06 1.64015e-07 4.57143e-09
305 3 0.001 -0.0124489 0 -0.0445742 -5.37183e-05 0 -4.25479e-07 1.51816e-07 4.54909e-09
454 4 0.001 -0.00750101 0 -0.0452119 4.19926e-05 0 2.05309e-05 1.37635e-09 1.6304e-08
455 4 0.001 -0.00750089 0 -0.0445766 7.07089e-05 0 2.18807e-05 3.6831e-09 1.62632e-08
456 4 0.001 -0.00749964 0 -0.0439414 0.000103271 0 2.82318e-05 7.28234e-09 1.62178e-08
604 5 0.001 -0.00250482 0 -0.045215 5.07494e-05 0 -3.70758e-06 2.20351e-09 4.52256e-08
605 5 0.001 -0.00250875 0 -0.0445813 9.7285e-05 0 -1.10929e-05 7.69246e-10 4.52475e-08
606 5 0.001 -0.0025131 0 -0.0439476 0.000143814 0 -1.28964e-05 2.84847e-10 4.52945e-08
754 6 0.001 0.00250065 0 -0.0452111 -5.48982e-06 0 1.56288e-05 3.66837e-10 1.1129e-08
755 6 0.001 0.00250069 0 -0.0445754 -8.2085e-06 0 2.00485e-05 1.03364e-09 1.10968e-08
904 7 0.001 0.00748022 0 -0.0452073 -1.21944e-05 0 4.07438e-06 1.02838e-07 7.32369e-12
905 7 0.001 0.00746061 0 -0.04457 -2.1351e-05 0 2.41424e-07 1.00108e-07 7.67099e-12
1054 8 0.001 0.0124747 0 -0.0452073 2.07353e-06 0 4.08063e-06 1.52002e-07 3.1813e-11
1055 8 0.001 0.0124501 0 -0.0445701 2.74434e-06 0 -5.8932e-07 1.38693e-07 3.41642e-11
1204 9 0.001 0.0174876 0 -0.0452139 4.63904e-05 0 9.42397e-06 3.60482e-08 3.2195e-08
1205 9 0.001 0.0174755 0 -0.0445797 8.76032e-05 0 1.04425e-05 3.19034e-08 3.21454e-08
1206 9 0.001 0.0174599 0 -0.0439455 0.000129698 0 1.78679e-05 2.79302e-08 3.20875e-08
1354 10 0.001 0.0225124 0 -0.0452139 -4.63867e-05 0 9.42386e-06 3.60769e-08 3.21957e-08
1355 10 0.001 0.0225245 0 -0.0445797 -8.75985e-05 0 1.04422e-05 3.19312e-08 3.21461e-08
1356 10 0.001 0.0225401 0 -0.0439455 -0.000129696 0 1.78681e-05 2.79566e-08 3.20882e-08
6 1 0.001 -0.0224181 0 -0.0439332 -3.0251e-06 0 1.52465e-06 1.26067e-07 3.63422e-11
7 1 0.001 -0.0223789 0 -0.0432967 -3.95873e-06 0 2.56895e-06 1.14116e-07 3.86369e-11
8 1 0.001 -0.0223329 0 -0.0426607 -5.75633e-06 0 -3.33783e-09 1.02836e-07 4.07719e-11
156 2 0.001 -0.0174346 0 -0.0439329 3.20122e-05 0 2.96895e-06 9.7297e-08 8.03641e-12
157 2 0.001 -0.0174024 0 -0.0432961 4.39227e-05 0 3.61027e-06 9.4346e-08 8.55508e-12
158 2 0.001 -0.017364 0 -0.0426596 5.67113e-05 0 -6.10237e-07 9.11922e-08 9.06878e-12
306 3 0.001 -0.0124158 0 -0.0439387 -8.27369e-05 0 2.11287e-06 1.39809e-07 4.52927e-09
307 3 0.001 -0.0123752 0 -0.0433036 -0.000106487 0 7.94522e-07 1.28247e-07 4.51264e-09
308 3 0.001 -0.0123275 0 -0.042669 -0.000121145 0 -5.4976e-06 1.17317e-07 4.50493e-09
457 4 0.001 -0.00749672 0 -0.0433061 0.000136616 0 3.12672e-05 1.19305e-08 1.61646e-08
458 4 0.001 -0.00749163 0 -0.0426709 0.000178279 0 3.03743e-05 1.72997e-08 1.611e-08
607 5 0.001 -0.00251744 0 -0.0433139 0.000181824 0 -1.59308e-05 6.27058e-10 4.53573e-08
608 5 0.001 -0.00252138 0 -0.0426802 0.000205609 0 -2.11109e-05 1.59717e-09 4.54403e-08
756 6 0.001 0.00250013 0 -0.0439398 -1.14605e-05 0 2.73555e-05 2.13896e-09 1.10547e-08
757 6 0.001 0.00249868 0 -0.0433041 -2.05858e-05 0 3.06099e-05 3.65263e-09 1.10037e-08
758 6 0.001 0.00249603 0 -0.0426684 -3.72519e-05 0 2.80755e-05 5.52544e-09 1.09531e-08
906 7 0.001 0.00743463 0 -0.0439329 -3.20125e-05 0 2.96898e-06 9.7297e-08 8.03611e-12
907 7 0.001 0.00740239 0 -0.0432961 -4.39232e-05 0 3.61028e-06 9.4346e-08 8.55478e-12
908 7 0.001 0.00736396 0 -0.0426596 -5.67118e-05 0 -6.10221e-07 9.11923e-08 9.06846e-12
1056 8 0.001 0.0124181 0 -0.0439332 3.02509e-06 0 1.52466e-06 1.26067e-07 3.6342e-11
1057 8 0.001 0.0123789 0 -0.0432967 3.95874e-06 0 2.56895e-06 1.14116e-07 3.86366e-11
1058 8 0.001 0.0123329 0 -0.0426607 5.75631e-06 0 -3.34325e-09 1.02836e-07 4.07716e-11
1208 9 0.001 0.017419 0 -0.0426776 0.000178426 0 1.94641e-05 2.1074e-08 3.1955e-08
1207 9 0.001 0.017441 0 -0.0433115 0.000162982 0 2.15287e-05 2.42886e-08 3.20189e-08
1357 10 0.001 0.022559 0 -0.0433115 -0.000162981 0 2.1529e-05 2.43136e-08 3.20196e-08
1358 10 0.001 0.0225811 0 -0.0426776 -0.000178423 0 1.94658e-05 2.10973e-08 3.19557e-08
9 1 0.001 -0.0222805 0 -0.0420252 -7.37438e-06 0 8.49565e-07 9.2221e-08 4.2718e-11
10 1 0.001 -0.022222 0 -0.0413901 -9.19e-06 0 -2.49729e-06 8.22663e-08 4.44034e-11
159 2 0.001 -0.0173195 0 -0.0420235 6.81855e-05 0 -1.76856e-06 8.77766e-08 9.54544e-12
160 2 0.001 -0.017269 0 -0.0413879 7.75209e-05 0 -6.45065e-06 8.40513e-08 9.97458e-12
309 3 0.001 -0.0122729 0 -0.042035 -0.000123727 0 -6.09341e-06 1.07116e-07 4.50521e-09
310 3 0.001 -0.0122117 0 -0.0414016 -0.000114148 0 -1.22154e-05 9.76452e-08 4.51208e-09
459 4 0.001 -0.00748391 0 -0.0420357 0.000221655 0 3.32024e-05 2.29875e-08 1.60517e-08
460 4 0.001 -0.00747315 0 -0.0414005 0.000257048 0 3.46607e-05 2.85448e-08 1.59843e-08
609 5 0.001 -0.00252454 0 -0.0420466 0.000215579 0 -2.02811e-05 2.95719e-09 4.55336e-08
610 5 0.001 -0.00252663 0 -0.0414129 0.000211825 0 -1.95343e-05 4.47015e-09 4.56236e-08
760 6 0.001 0.00248602 0 -0.0413971 -9.89409e-05 0 2.92837e-05 9.99673e-09 1.08519e-08
759 6 0.001 0.0024919 0 -0.0420328 -6.3545e-05 0 3.04807e-05 7.67911e-09 1.09032e-08
909 7 0.001 0.00731947 0 -0.0420235 -6.81858e-05 0 -1.7685e-06 8.77767e-08 9.54512e-12
910 7 0.001 0.00726903 0 -0.0413879 -7.75214e-05 0 -6.45061e-06 8.40514e-08 9.97425e-12
1059 8 0.001 0.0122805 0 -0.0420252 7.3744e-06 0 8.49575e-07 9.22209e-08 4.27177e-11
1060 8 0.001 0.012222 0 -0.0413901 9.18998e-06 0 -2.4973e-06 8.22663e-08 4.44031e-11
1210 9 0.001 0.0173664 0 -0.04141 0.000149942 0 2.25095e-05 1.59505e-08 3.18324e-08
1209 9 0.001 0.017394 0 -0.0420437 0.000173363 0 2.26074e-05 1.83084e-08 3.18949e-08
1359 10 0.001 0.022606 0 -0.0420437 -0.000173363 0 2.26099e-05 1.83301e-08 3.18956e-08
1360 10 0.001 0.0226337 0 -0.04141 -0.000149944 0 2.25101e-05 1.59707e-08 3.18331e-08
11 1 0.001 -0.0221578 0 -0.0407557 -1.112e-05 0 -4.79624e-06 7.29648e-08 4.56176e-11
12 1 0.001 -0.0220882 0 -0.0401218 -1.31267e-05 0 -1.6499e-06 6.43084e-08 4.67397e-11
13 1 0.001 -0.0220135 0 -0.0394885 -1.59077e-05 0 -1.247e-06 5.62892e-08 4.79236e-11
161 2 0.001 -0.0172128 0 -0.0407527 8.36963e-05 0 -9.6425e-06 7.99887e-08 1.02941e-11
162 2 0.001 -0.0171508 0 -0.0401181 8.70357e-05 0 -7.23062e-06 7.55847e-08 1.06994e-11
163 2 0.001 -0.0170834 0 -0.039484 8.73206e-05 0 -7.89471e-06 7.08595e-08 1.12522e-11
311 3 0.001 -0.0121443 0 -0.0407688 -8.95695e-05 0 -1.96478e-05 8.88244e-08 4.52763e-09
312 3 0.001 -0.012071 0 -0.0401367 -5.75177e-05 0 -2.36088e-05 8.05135e-08 4.54826e-09
313 3 0.001 -0.011992 0 -0.0395053 -1.66959e-05 0 -3.21685e-05 7.25378e-08 4.57243e-09
461 4 0.001 -0.00745899 0 -0.0407653 0.000289089 0 3.61478e-05 3.35147e-08 1.59069e-08
462 4 0.001 -0.00744114 0 -0.0401303 0.000308738 0 4.07928e-05 3.74856e-08 1.58138e-08
463 4 0.001 -0.00741939 0 -0.0394954 0.000317866 0 3.45961e-05 4.0131e-08 1.57125e-08
611 5 0.001 -0.00252738 0 -0.0407792 0.000188852 0 -1.53547e-05 5.93709e-09 4.5702e-08
612 5 0.001 -0.00252658 0 -0.0401455 0.000143753 0 -5.71756e-06 7.22621e-09 4.57507e-08
613 5 0.001 -0.00252407 0 -0.0395118 8.50179e-05 0 -3.03188e-06 8.28571e-09 4.57731e-08
763 6 0.001 0.00245549 0 -0.0394903 -0.000233815 0 3.2835e-05 1.61407e-08 1.06801e-08
762 6 0.001 0.00246803 0 -0.0401259 -0.000189793 0 3.23582e-05 1.44387e-08 1.07444e-08
761 6 0.001 0.00247814 0 -0.0407615 -0.000142803 0 2.88049e-05 1.23169e-08 1.08009e-08
911 7 0.001 0.00721277 0 -0.0407527 -8.36965e-05 0 -9.64249e-06 7.99887e-08 1.02937e-11
912 7 0.001 0.00715084 0 -0.0401181 -8.7036e-05 0 -7.23063e-06 7.55847e-08 1.0699e-11
913 7 0.001 0.0070834 0 -0.039484 -8.73208e-05 0 -7.89472e-06 7.08596e-08 1.12519e-11
1061 8 0.001 0.0121578 0 -0.0407557 1.112e-05 0 -4.79624e-06 7.29648e-08 4.56173e-11
1062 8 0.001 0.0120882 0 -0.0401218 1.31267e-05 0 -1.64991e-06 6.43084e-08 4.67394e-11
1063 8 0.001 0.0120135 0 -0.0394885 1.59077e-05 0 -1.24699e-06 5.62892e-08 4.79233e-11
1213 9 0.001 0.017269 0 -0.0395095 -2.58155e-05 0 1.65332e-05 1.03419e-08 3.1638e-08
1212 9 0.001 0.0173037 0 -0.0401429 4.65663e-05 0 2.10669e-05 1.20846e-08 3.17061e-08
1211 9 0.001 0.0173362 0 -0.0407764 0.000106406 0 2.0995e-05 1.39136e-08 3.17711e-08
1361 10 0.001 0.0226638 0 -0.0407764 -0.000106405 0 2.09934e-05 1.39322e-08 3.17717e-08
1362 10 0.001 0.0226964 0 -0.0401429 -4.65677e-05 0 2.10652e-05 1.21016e-08 3.17068e-08
1363 10 0.001 0.0227311 0 -0.0395095 2.58158e-05 0 1.653e-05 1.03572e-08 3.16387e-08
14 1 0.001 -0.0219341 0 -0.0388557 -1.87534e-05 0 -2.43282e-06 4.88984e-08 4.88886e-11
15 1 0.001 -0.0218503 0 -0.0382235 -2.07037e-05 0 4.55785e-07 4.21247e-08 4.97932e-11
164 2 0.001 -0.0170106 0 -0.0388505 8.56109e-05 0 -1.05463e-05 6.58534e-08 1.17837e-11
165 2 0.001 -0.0169327 0 -0.0382177 8.41774e-05 0 -8.92391e-06 6.06193e-08 1.23523e-11
314 3 0.001 -0.0119077 0 -0.0388745 3.04036e-05 0 -4.23388e-05 6.47193e-08 4.60156e-09
315 3 0.001 -0.0118183 0 -0.0382445 7.95812e-05 0 -4.81218e-05 5.68998e-08 4.63205e-09
464 4 0.001 -0.00739359 0 -0.0388606 0.000310138 0 2.49617e-05 4.12563e-08 1.56196e-08
465 4 0.001 -0.0073637 0 -0.038226 0.000266268 0 2.60957e-05 4.08468e-08 1.55293e-08
614 5 0.001 -0.00251973 0 -0.0388781 1.9873e-05 0 -2.541e-06 9.13731e-09 4.57884e-08
615 5 0.001 -0.00251347 0 -0.0382445 -2.1685e-05 0 6.6878e-06 9.83864e-09 4.57852e-08
765 6 0.001 0.00242263 0 -0.0382193 -0.000297085 0 3.5929e-05 1.74868e-08 1.05338e-08
764 6 0.001 0.00244039 0 -0.0388548 -0.000271826 0 3.17451e-05 1.72112e-08 1.06113e-08
914 7 0.001 0.00701063 0 -0.0388505 -8.5611e-05 0 -1.05463e-05 6.58535e-08 1.17834e-11
915 7 0.001 0.00693273 0 -0.0382177 -8.41776e-05 0 -8.92387e-06 6.06193e-08 1.2352e-11
1064 8 0.001 0.0119341 0 -0.0388557 1.87534e-05 0 -2.43283e-06 4.88984e-08 4.88883e-11
1065 8 0.001 0.0118503 0 -0.0382235 2.07037e-05 0 4.55788e-07 4.21247e-08 4.97929e-11
1214 9 0.001 0.0172323 0 -0.0388762 -0.000104768 0 1.29264e-05 8.57923e-09 3.1569e-08
1215 9 0.001 0.0171937 0 -0.038243 -0.000184135 0 1.13883e-05 6.73327e-09 3.14916e-08
1364 10 0.001 0.0227678 0 -0.0388762 0.000104764 0 1.29225e-05 8.59268e-09 3.15696e-08
1365 10 0.001 0.0228064 0 -0.038243 0.000184141 0 1.13836e-05 6.74467e-09 3.14923e-08
16 1 0.001 -0.0217624 0 -0.0375919 -2.24511e-05 0 3.72449e-06 3.59534e-08 5.09307e-11
17 1 0.001 -0.0216707 0 -0.0369608 -2.44258e-05 0 4.88734e-06 3.03669e-08 5.2196e-11
166 2 0.001 -0.0168499 0 -0.0375854 8.18791e-05 0 -6.31658e-06 5.52181e-08 1.31179e-11
167 2 0.001 -0.0167624 0 -0.0369538 7.88664e-05 0 -5.15058e-06 4.97161e-08 1.40613e-11
316 3 0.001 -0.0117242 0 -0.0376152 0.000123104 0 -5.20685e-05 4.89782e-08 4.65932e-09
317 3 0.001 -0.0116256 0 -0.0369865 0.000154312 0 -5.46487e-05 4.09473e-08 4.68231e-09
466 4 0.001 -0.00732974 0 -0.0375916 0.000185234 0 2.79784e-05 3.90976e-08 1.54345e-08
467 4 0.001 -0.00729181 0 -0.0369574 7.71622e-05 0 3.31088e-05 3.63927e-08 1.53384e-08
616 5 0.001 -0.00250523 0 -0.0376109 -2.69849e-05 0 1.34962e-05 1.04365e-08 4.57513e-08
617 5 0.001 -0.00249494 0 -0.0369772 4.09974e-06 0 2.17744e-05 1.09247e-08 4.56867e-08
766 6 0.001 0.0024022 0 -0.0375839 -0.000304631 0 4.10176e-05 1.68891e-08 1.04422e-08
767 6 0.001 0.00237914 0 -0.0369486 -0.000292883 0 4.67184e-05 1.54512e-08 1.03364e-08
917 7 0.001 0.00676241 0 -0.0369538 -7.88667e-05 0 -5.15057e-06 4.97161e-08 1.40609e-11
916 7 0.001 0.00684992 0 -0.0375854 -8.18794e-05 0 -6.31657e-06 5.52182e-08 1.31175e-11
1066 8 0.001 0.0117624 0 -0.0375919 2.24511e-05 0 3.72448e-06 3.59534e-08 5.09304e-11
1067 8 0.001 0.0116707 0 -0.0369608 2.44258e-05 0 4.88734e-06 3.03669e-08 5.21957e-11
1216 9 0.001 0.0171535 0 -0.0376099 -0.00025452 0 9.05439e-06 4.81716e-09 3.14037e-08
1217 9 0.001 0.0171118 0 -0.036977 -0.000305636 0 5.85489e-06 2.95333e-09 3.13106e-08
1366 10 0.001 0.0228467 0 -0.03761 0.000254522 0 9.04788e-06 4.82629e-09 3.14044e-08
1367 10 0.001 0.0228883 0 -0.036977 0.000305637 0 5.84542e-06 2.95996e-09 3.13113e-08
18 1 0.001 -0.0215756 0 -0.0363302 -2.64978e-05 0 2.91538e-06 2.53453e-08 5.32475e-11
19 1 0.001 -0.0214773 0 -0.0357001 -2.80207e-05 0 1.269e-06 2.08663e-08 5.39022e-11
20 1 0.001 -0.0213761 0 -0.0350705 -2.87919e-05 0 3.97629e-06 1.69056e-08 5.44821e-11
168 2 0.001 -0.0166705 0 -0.0363228 7.53666e-05 0 -6.57587e-06 4.41832e-08 1.50372e-11
169 2 0.001 -0.0165743 0 -0.0356924 7.18646e-05 0 -7.67006e-06 3.86907e-08 1.59496e-11
170 2 0.001 -0.0164743 0 -0.0350627 6.79422e-05 0 -4.68697e-06 3.33113e-08 1.69383e-11
318 3 0.001 -0.0115231 0 -0.0363585 0.000169464 0 -5.64395e-05 3.29162e-08 4.70223e-09
319 3 0.001 -0.0114169 0 -0.0357311 0.000168988 0 -5.37217e-05 2.51075e-08 4.71932e-09
320 3 0.001 -0.0113077 0 -0.0351042 0.000156002 0 -4.5903e-05 1.78307e-08 4.73134e-09
468 4 0.001 -0.00725005 0 -0.0363234 -4.34236e-05 0 3.33786e-05 3.32191e-08 1.525e-08
469 4 0.001 -0.00720464 0 -0.0356897 -0.000147725 0 2.73384e-05 3.00479e-08 1.51861e-08
470 4 0.001 -0.00715577 0 -0.0350563 -0.000219798 0 1.57164e-05 2.72402e-08 1.51598e-08
618 5 0.001 -0.00248256 0 -0.0363437 6.32597e-05 0 2.64688e-05 1.12313e-08 4.55925e-08
619 5 0.001 -0.00246804 0 -0.0357101 0.00012364 0 2.76142e-05 1.12419e-08 4.54795e-08
620 5 0.001 -0.0024514 0 -0.0350767 0.000178004 0 2.70143e-05 1.08397e-08 4.5356e-08
770 6 0.001 0.00229568 0 -0.0350432 -0.000145177 0 7.14262e-05 8.02699e-09 9.94773e-09
769 6 0.001 0.00232567 0 -0.0356782 -0.00020992 0 5.97489e-05 1.07479e-08 1.00903e-08
768 6 0.001 0.00235357 0 -0.0363134 -0.000260861 0 5.16068e-05 1.33224e-08 1.02189e-08
920 7 0.001 0.00647428 0 -0.0350627 -6.79423e-05 0 -4.68682e-06 3.33113e-08 1.6938e-11
919 7 0.001 0.00657432 0 -0.0356924 -7.18647e-05 0 -7.66993e-06 3.86907e-08 1.59492e-11
918 7 0.001 0.00667046 0 -0.0363228 -7.5367e-05 0 -6.57582e-06 4.41832e-08 1.50368e-11
1070 8 0.001 0.0113761 0 -0.0350705 2.87919e-05 0 3.97629e-06 1.69056e-08 5.44818e-11
1068 8 0.001 0.0115756 0 -0.0363302 2.64978e-05 0 2.91538e-06 2.53453e-08 5.32472e-11
1069 8 0.001 0.0114773 0 -0.0357001 2.80207e-05 0 1.26899e-06 2.08663e-08 5.39019e-11
1218 9 0.001 0.0170691 0 -0.036344 -0.000334216 0 2.46751e-06 1.39267e-09 3.12196e-08
1219 9 0.001 0.0170258 0 -0.0357112 -0.000338056 0 1.49492e-06 5.08811e-10 3.11345e-08
1220 9 0.001 0.0169822 0 -0.0350783 -0.000310733 0 4.21711e-06 7.58975e-10 3.10545e-08
1368 10 0.001 0.0229311 0 -0.036344 0.000334216 0 2.45549e-06 1.39665e-09 3.12202e-08
1369 10 0.001 0.0229745 0 -0.0357112 0.00033806 0 1.48302e-06 5.10082e-10 3.1135e-08
1370 10 0.001 0.0230181 0 -0.0350783 0.000310738 0 4.2063e-06 7.5765e-10 3.10551e-08
21 1 0.001 -0.0212724 0 -0.0344413 -2.97247e-05 0 8.24878e-06 1.34381e-08 5.5393e-11
22 1 0.001 -0.0211664 0 -0.0338124 -3.218e-05 0 4.39051e-06 1.04386e-08 5.61838e-11
171 2 0.001 -0.0163706 0 -0.0344335 6.38189e-05 0 -4.38157e-07 2.81178e-08 1.81922e-11
172 2 0.001 -0.0162636 0 -0.0338049 5.65179e-05 0 -3.94247e-06 2.31844e-08 1.94326e-11
321 3 0.001 -0.0111958 0 -0.0344778 0.000123385 0 -3.37679e-05 1.14451e-08 4.73697e-09
322 3 0.001 -0.0110818 0 -0.0338517 6.9464e-05 0 -2.64779e-05 6.30919e-09 4.74222e-09
471 4 0.001 -0.00710362 0 -0.0344231 -0.000258248 0 4.50053e-06 2.5005e-08 1.51734e-08
472 4 0.001 -0.00704832 0 -0.0337902 -0.000251727 0 -1.69873e-05 2.34017e-08 1.52315e-08
621 5 0.001 -0.00243265 0 -0.0344432 0.000223577 0 3.08739e-05 9.94896e-09 4.52157e-08
622 5 0.001 -0.00241189 0 -0.0338099 0.000249785 0 2.8341e-05 8.56886e-09 4.5063e-08
771 6 0.001 0.00226391 0 -0.0344082 -6.79018e-05 0 8.40957e-05 5.45997e-09 9.79022e-09
772 6 0.001 0.00223067 0 -0.0337733 1.68374e-05 0 8.83927e-05 3.29465e-09 9.62709e-09
922 7 0.001 0.00626362 0 -0.0338049 -5.65179e-05 0 -3.94223e-06 2.31844e-08 1.94322e-11
921 7 0.001 0.00637061 0 -0.0344335 -6.3819e-05 0 -4.37974e-07 2.81178e-08 1.81919e-11
1072 8 0.001 0.0111664 0 -0.0338124 3.218e-05 0 4.3905e-06 1.04386e-08 5.61835e-11
1071 8 0.001 0.0112724 0 -0.0344413 2.97246e-05 0 8.24878e-06 1.34381e-08 5.53926e-11
1221 9 0.001 0.0169388 0 -0.0344454 -0.000256528 0 9.46335e-06 2.61136e-09 3.09795e-08
1222 9 0.001 0.0168964 0 -0.0338124 -0.000182476 0 6.91152e-06 6.45048e-09 3.09254e-08
1372 10 0.001 0.0231039 0 -0.0338124 0.000182486 0 6.90899e-06 6.44506e-09 3.09259e-08
1371 10 0.001 0.0230614 0 -0.0344454 0.000256536 0 9.45564e-06 2.60774e-09 3.09801e-08
23 1 0.001 -0.0210584 0 -0.0331839 -3.38377e-05 0 2.07497e-06 7.88119e-09 5.64074e-11
24 1 0.001 -0.0209486 0 -0.0325557 -3.41211e-05 0 4.36939e-06 5.73927e-09 5.65058e-11
25 1 0.001 -0.0208374 0 -0.0319278 -3.52767e-05 0 3.49372e-06 3.98546e-09 5.65885e-11
173 2 0.001 -0.0161536 0 -0.0331768 4.64689e-05 0 -4.65153e-06 1.85854e-08 2.04009e-11
174 2 0.001 -0.0160409 0 -0.0325491 3.64741e-05 0 3.67329e-07 1.4393e-08 2.13898e-11
175 2 0.001 -0.0159259 0 -0.0319219 2.50431e-05 0 2.34385e-06 1.06724e-08 2.24798e-11
323 3 0.001 -0.0109664 0 -0.033226 -1.01213e-06 0 -1.15633e-05 2.72161e-09 4.75073e-09
324 3 0.001 -0.01085 0 -0.0326004 -8.33093e-05 0 1.21024e-05 8.52885e-10 4.75633e-09
325 3 0.001 -0.0107333 0 -0.0319748 -0.000170456 0 3.19262e-05 6.9253e-10 4.75803e-09
473 4 0.001 -0.00698998 0 -0.0331575 -0.000195834 0 -3.95821e-05 2.23559e-08 1.53374e-08
474 4 0.001 -0.00692866 0 -0.0325251 -9.56407e-05 0 -5.92422e-05 2.16698e-08 1.54778e-08
475 4 0.001 -0.00686441 0 -0.0318931 2.52903e-05 0 -8.85443e-05 2.10524e-08 1.56506e-08
623 5 0.001 -0.00238927 0 -0.0331766 0.000246764 0 2.77008e-05 6.79827e-09 4.49101e-08
624 5 0.001 -0.00236499 0 -0.0325433 0.000210939 0 3.16618e-05 4.83942e-09 4.47503e-08
625 5 0.001 -0.00233932 0 -0.0319101 0.000149159 0 2.976e-05 2.96386e-09 4.45931e-08
773 6 0.001 0.00219632 0 -0.0331384 0.000102975 0 9.73319e-05 1.68569e-09 9.46334e-09
774 6 0.001 0.0021612 0 -0.0325036 0.000184679 0 0.000111829 6.73237e-10 9.29042e-09
775 6 0.001 0.00212564 0 -0.0318687 0.000261258 0 0.000120173 1.87866e-10 9.10858e-09
925 7 0.001 0.00592586 0 -0.0319219 -2.50428e-05 0 2.34426e-06 1.06724e-08 2.24795e-11
924 7 0.001 0.00604092 0 -0.0325491 -3.64739e-05 0 3.6768e-07 1.4393e-08 2.13895e-11
923 7 0.001 0.00615362 0 -0.0331768 -4.64688e-05 0 -4.65123e-06 1.85854e-08 2.04006e-11
1075 8 0.001 0.0108374 0 -0.0319278 3.52767e-05 0 3.49373e-06 3.98546e-09 5.65882e-11
1073 8 0.001 0.0110584 0 -0.0331839 3.38377e-05 0 2.07498e-06 7.8812e-09 5.6407e-11
1074 8 0.001 0.0109486 0 -0.0325557 3.41211e-05 0 4.36937e-06 5.73928e-09 5.65054e-11
1223 9 0.001 0.0168555 0 -0.0331794 -9.64505e-05 0 7.92783e-06 1.24819e-08 3.09032e-08
1224 9 0.001 0.0168167 0 -0.0325462 -1.13245e-06 0 1.34218e-05 2.06569e-08 3.09008e-08
1225 9 0.001 0.0167808 0 -0.0319128 9.3571e-05 0 1.53148e-05 3.0638e-08 3.09138e-08
1375 10 0.001 0.0232196 0 -0.0319128 -9.35559e-05 0 1.53256e-05 3.0632e-08 3.09142e-08
1374 10 0.001 0.0231837 0 -0.0325462 1.15203e-06 0 1.34291e-05 2.06501e-08 3.09012e-08
1373 10 0.001 0.0231449 0 -0.0331794 9.64672e-05 0 7.93081e-06 1.24754e-08 3.09037e-08
26 1 0.001 -0.0207249 0 -0.0313 -3.72403e-05 0 3.24117e-06 2.59268e-09 5.64709e-11
27 1 0.001 -0.0206114 0 -0.0306725 -3.86866e-05 0 6.79942e-06 1.53424e-09 5.64551e-11
176 2 0.001 -0.0158088 0 -0.0312951 1.37269e-05 0 3.67823e-06 7.47647e-09 2.34916e-11
177 2 0.001 -0.01569 0 -0.0306686 2.80012e-06 0 7.79069e-06 4.84378e-09 2.45062e-11
326 3 0.001 -0.0106169 0 -0.0313492 -0.000254679 0 4.88278e-05 2.02886e-09 4.75966e-09
327 3 0.001 -0.0105013 0 -0.0307235 -0.000327595 0 6.73339e-05 4.47025e-09 4.75921e-09
476 4 0.001 -0.00679726 0 -0.0312614 0.000147578 0 -0.0001189 2.01709e-08 1.58622e-08
477 4 0.001 -0.00672727 0 -0.0306299 0.000260784 0 -0.000146719 1.87184e-08 1.61089e-08
626 5 0.001 -0.00231259 0 -0.0312769 7.52329e-05 0 2.86168e-05 1.4481e-09 4.4454e-08
627 5 0.001 -0.00228516 0 -0.0306438 -1.08507e-06 0 2.80442e-05 5.05483e-10 4.43341e-08
776 6 0.001 0.00208992 0 -0.0312339 0.000325104 0 0.000125006 7.87933e-11 8.92511e-09
777 6 0.001 0.00205428 0 -0.030599 0.000371286 0 0.000132947 1.5953e-10 8.73835e-09
927 7 0.001 0.00569 0 -0.0306686 -2.80005e-06 0 7.79106e-06 4.84377e-09 2.45059e-11
926 7 0.001 0.00580877 0 -0.0312951 -1.37267e-05 0 3.67863e-06 7.47647e-09 2.34913e-11
1077 8 0.001 0.0106114 0 -0.0306725 3.86866e-05 0 6.79942e-06 1.53424e-09 5.64548e-11
1076 8 0.001 0.0107249 0 -0.0313 3.72403e-05 0 3.24117e-06 2.59268e-09 5.64706e-11
1226 9 0.001 0.0167483 0 -0.0312793 0.000176348 0 1.51537e-05 4.18209e-08 3.0944e-08
1227 9 0.001 0.0167199 0 -0.0306455 0.000238711 0 1.58138e-05 5.34164e-08 3.09832e-08
1377 10 0.001 0.0232805 0 -0.0306456 -0.000238686 0 1.58306e-05 5.34147e-08 3.09836e-08
1376 10 0.001 0.0232521 0 -0.0312793 -0.000176323 0 1.51683e-05 4.18166e-08 3.09444e-08
28 1 0.001 -0.0204972 0 -0.0300451 -3.90914e-05 0 9.48381e-06 7.83205e-10 5.67657e-11
29 1 0.001 -0.0203825 0 -0.0294178 -3.95065e-05 0 4.05901e-06 3.12261e-10 5.68168e-11
30 1 0.001 -0.0202674 0 -0.0287905 -3.90925e-05 0 1.74105e-06 9.44486e-11 5.62897e-11
178 2 0.001 -0.0155699 0 -0.0300423 -8.35561e-06 0 1.14377e-05 2.79748e-09 2.56179e-11
179 2 0.001 -0.0154487 0 -0.0294163 -2.05301e-05 0 8.09789e-06 1.34526e-09 2.6469e-11
180 2 0.001 -0.0153269 0 -0.0287903 -3.13114e-05 0 8.41524e-06 4.79439e-10 2.68982e-11
328 3 0.001 -0.0103869 0 -0.0300975 -0.000388328 0 8.50809e-05 7.50176e-09 4.75185e-09
329 3 0.001 -0.0102743 0 -0.0294713 -0.000431091 0 9.35143e-05 1.05661e-08 4.73862e-09
330 3 0.001 -0.0101637 0 -0.0288446 -0.000450249 0 0.000100555 1.3152e-08 4.71993e-09
478 4 0.001 -0.00665454 0 -0.0299989 0.000355124 0 -0.000173007 1.64894e-08 1.63874e-08
479 4 0.001 -0.00657922 0 -0.0293681 0.000411615 0 -0.00020601 1.34595e-08 1.67106e-08
628 5 0.001 -0.0022574 0 -0.0300106 -7.34219e-05 0 2.60501e-05 2.39591e-10 4.42358e-08
629 5 0.001 -0.00222969 0 -0.0293775 -0.000128713 0 1.18502e-05 6.32303e-10 4.41833e-08
779 6 0.001 0.00198386 0 -0.0293292 0.000407498 0 0.000141666 2.73401e-10 8.34382e-09
778 6 0.001 0.0020189 0 -0.0299641 0.000398405 0 0.000141296 2.59978e-10 8.5431e-09
929 7 0.001 0.00544874 0 -0.0294163 2.05304e-05 0 8.09837e-06 1.34526e-09 2.64688e-11
928 7 0.001 0.00556987 0 -0.0300423 8.35578e-06 0 1.14381e-05 2.79748e-09 2.56177e-11
930 7 0.001 0.00532694 0 -0.0287903 3.13115e-05 0 8.41573e-06 4.79438e-10 2.6898e-11
1079 8 0.001 0.0103825 0 -0.0294178 3.95065e-05 0 4.05901e-06 3.12262e-10 5.68165e-11
1078 8 0.001 0.0104972 0 -0.0300451 3.90914e-05 0 9.48381e-06 7.83206e-10 5.67654e-11
1080 8 0.001 0.0102674 0 -0.0287905 3.90925e-05 0 1.74105e-06 9.44488e-11 5.62893e-11
1228 9 0.001 0.0166962 0 -0.0300116 0.000281209 0 1.60024e-05 6.4564e-08 3.10203e-08
1229 9 0.001 0.0166775 0 -0.0293775 0.000304401 0 1.09329e-05 7.44467e-08 3.10553e-08
1378 10 0.001 0.0233043 0 -0.0300116 -0.000281187 0 1.6021e-05 6.45658e-08 3.10207e-08
1379 10 0.001 0.023323 0 -0.0293775 -0.000304377 0 1.0954e-05 7.44528e-08 3.10557e-08
31 1 0.001 -0.0201523 0 -0.0281633 -3.86983e-05 0 4.40123e-06 1.04032e-10 5.5748e-11
32 1 0.001 -0.0200373 0 -0.027536 -3.91061e-05 0 6.70502e-06 3.16602e-10 5.54981e-11
181 2 0.001 -0.0152048 0 -0.0281645 -3.96837e-05 0 1.25008e-05 1.77933e-10 2.7277e-11
182 2 0.001 -0.0150827 0 -0.0275386 -4.60608e-05 0 1.44117e-05 4.06514e-10 2.7725e-11
331 3 0.001 -0.0100554 0 -0.0282175 -0.000443873 0 0.000106801 1.48741e-08 4.69069e-09
332 3 0.001 -0.00994959 0 -0.0275901 -0.000415795 0 0.000105527 1.55248e-08 4.65059e-09
480 4 0.001 -0.00650158 0 -0.0287376 0.000419554 0 -0.000225467 9.85016e-09 1.70836e-08
481 4 0.001 -0.00642197 0 -0.0281075 0.000380155 0 -0.000233281 6.13592e-09 1.74944e-08
482 4 0.001 -0.00634082 0 -0.0274775 0.000297065 0 -0.00023481 2.969e-09 1.79401e-08
632 5 0.001 -0.00215042 0 -0.0274779 -0.000110434 0 -1.70932e-05 4.42783e-09 4.43006e-08
630 5 0.001 -0.00220241 0 -0.0287443 -0.000152987 0 2.18515e-06 1.56811e-09 4.41862e-08
631 5 0.001 -0.00217588 0 -0.0281111 -0.000146403 0 -6.00034e-06 2.8841e-09 4.42263e-08
782 6 0.001 0.00188052 0 -0.0274241 0.000338392 0 0.000148128 1.61828e-10 7.7362e-09
781 6 0.001 0.00191479 0 -0.0280592 0.00037602 0 0.000146931 8.98764e-11 7.94266e-09
780 6 0.001 0.00194918 0 -0.0286942 0.000399473 0 0.00014281 1.86845e-10 8.14504e-09
932 7 0.001 0.00508265 0 -0.0275386 4.60607e-05 0 1.44122e-05 4.06514e-10 2.77249e-11
931 7 0.001 0.0052048 0 -0.0281645 3.96838e-05 0 1.25013e-05 1.77933e-10 2.72769e-11
1082 8 0.001 0.0100373 0 -0.027536 3.91061e-05 0 6.70502e-06 3.16601e-10 5.54978e-11
1081 8 0.001 0.0101523 0 -0.0281633 3.86982e-05 0 4.40123e-06 1.04031e-10 5.57477e-11
1230 9 0.001 0.0166644 0 -0.0287433 0.000304632 0 6.67367e-06 8.2393e-08 3.10881e-08
1231 9 0.001 0.016657 0 -0.0281089 0.000284351 0 6.8195e-06 8.79514e-08 3.11061e-08
1232 9 0.001 0.0166556 0 -0.0274746 0.000245619 0 5.84565e-06 9.0931e-08 3.11032e-08
1380 10 0.001 0.0233362 0 -0.0287433 -0.000304608 0 6.6966e-06 8.24039e-08 3.10885e-08
1381 10 0.001 0.0233436 0 -0.028109 -0.000284327 0 6.84143e-06 8.79673e-08 3.11065e-08
1382 10 0.001 0.0233451 0 -0.0274746 -0.000245597 0 5.86623e-06 9.0952e-08 3.11036e-08
33 1 0.001 -0.0199226 0 -0.0269087 -3.95248e-05 0 6.88458e-06 7.08743e-10 5.53691e-11
34 1 0.001 -0.0198085 0 -0.0262813 -3.94492e-05 0 4.79026e-06 1.25803e-09 5.508e-11
183 2 0.001 -0.0149608 0 -0.0269127 -5.22513e-05 0 1.38887e-05 1.12172e-09 2.80545e-11
184 2 0.001 -0.0148396 0 -0.0262866 -5.91622e-05 0 1.23389e-05 2.27311e-09 2.81056e-11
333 3 0.001 -0.00984625 0 -0.0269622 -0.000361357 0 9.73982e-05 1.50929e-08 4.6038e-09
334 3 0.001 -0.00974537 0 -0.0263339 -0.00027831 0 8.34311e-05 1.37487e-08 4.55358e-09
483 4 0.001 -0.00625867 0 -0.0268477 0.000174127 0 -0.000227986 1.03254e-09 1.84213e-08
484 4 0.001 -0.00617613 0 -0.026218 2.78892e-05 0 -0.000220065 8.62201e-10 1.8941e-08
634 5 0.001 -0.0021037 0 -0.0262112 3.26234e-05 0 -3.56252e-05 7.89949e-09 4.45328e-08
633 5 0.001 -0.00212628 0 -0.0268446 -4.69817e-05 0 -2.49382e-05 6.10412e-09 4.44037e-08
784 6 0.001 0.00181135 0 -0.026154 0.000207312 0 0.000138272 1.76667e-09 7.33267e-09
783 6 0.001 0.00184614 0 -0.0267891 0.000282686 0 0.000145005 6.39441e-10 7.53106e-09
934 7 0.001 0.00483959 0 -0.0262866 5.91621e-05 0 1.23393e-05 2.27311e-09 2.81056e-11
933 7 0.001 0.00496081 0 -0.0269127 5.22512e-05 0 1.38892e-05 1.12172e-09 2.80544e-11
1084 8 0.001 0.00980846 0 -0.0262813 3.94492e-05 0 4.79026e-06 1.25803e-09 5.50797e-11
1083 8 0.001 0.00992264 0 -0.0269087 3.95248e-05 0 6.88457e-06 7.08741e-10 5.53688e-11
1233 9 0.001 0.0166602 0 -0.0268402 0.000194334 0 5.84947e-06 9.13923e-08 3.1082e-08
1234 9 0.001 0.0166709 0 -0.0262059 0.000132287 0 6.52402e-06 8.96091e-08 3.10446e-08
1384 10 0.001 0.0233297 0 -0.026206 -0.000132263 0 6.53876e-06 8.96395e-08 3.1045e-08
1383 10 0.001 0.0233404 0 -0.0268402 -0.00019431 0 5.86739e-06 9.14182e-08 3.10824e-08
35 1 0.001 -0.019695 0 -0.0256537 -3.88201e-05 0 4.08948e-06 1.94337e-09 5.4592e-11
36 1 0.001 -0.0195823 0 -0.025026 -3.87635e-05 0 3.24406e-06 2.74505e-09 5.39953e-11
37 1 0.001 -0.0194708 0 -0.0243981 -3.88197e-05 0 4.78814e-06 3.64432e-09 5.34356e-11
185 2 0.001 -0.0147193 0 -0.0256604 -6.53222e-05 0 1.30617e-05 3.80467e-09 2.79491e-11
186 2 0.001 -0.0146002 0 -0.0250339 -7.06707e-05 0 1.32778e-05 5.65592e-09 2.76978e-11
187 2 0.001 -0.0144825 0 -0.0244072 -7.42809e-05 0 1.5018e-05 7.76411e-09 2.74372e-11