ITEM: TIMESTEP
1100000
ITEM: NUMBER OF ATOMS
1500
ITEM: BOX BOUNDS ff ff ff
-2.5000000000000001e-02 2.5000000000000001e-02
-5.0000000000000001e-03 5.0000000000000001e-03
-5.0000000000000003e-02 5.0000000000000003e-02
ITEM: ATOMS id type radius x y z fx fy fz c_bendingE c_stretchingE
1 1 0.001 -0.0225 0 -0.04541 -0.106898 0 -3.8e-09 3.8576e-07 1.59293e-34
2 1 0.001 -0.0225 0 -0.0447724 0.10603 0 -0.0173216 7.7353e-07 1.24823e-08
3 1 0.001 -0.0224785 0 -0.0441381 1.51072e-05 0 6.67589e-06 1.15896e-06 2.49528e-08
151 2 0.001 -0.0175 0 -0.04541 -0.0911348 0 -3.8e-09 2.80356e-07 1.59293e-34
152 2 0.001 -0.0175 0 -0.0447724 0.0907047 0 -0.0166705 5.6039e-07 1.15432e-08
153 2 0.001 -0.0174816 0 -0.0441379 1.16131e-05 0 -7.97602e-06 8.37085e-07 2.30847e-08
301 3 0.001 -0.0125 0 -0.04541 -0.062778 0 -3.8e-09 1.33018e-07 1.59293e-34
302 3 0.001 -0.0125 0 -0.0447724 0.063552 0 -0.0125777 2.61742e-07 6.54797e-09
303 3 0.001 -0.0124873 0 -0.044137 5.9128e-06 0 5.20556e-06 3.85217e-07 1.30668e-08
451 4 0.001 -0.0075 0 -0.04541 -0.0345745 0 -3.8e-09 4.03436e-08 1.59293e-34
452 4 0.001 -0.0075 0 -0.0447724 0.035829 0 -0.0121113 7.75241e-08 6.07418e-09
453 4 0.001 -0.00749302 0 -0.0441369 -3.64094e-06 0 3.67165e-06 1.11406e-07 1.21294e-08
601 5 0.001 -0.0025 0 -0.04541 -0.0253776 0 -3.8e-09 2.17349e-08 1.59293e-34
602 5 0.001 -0.0025 0 -0.0447724 0.0279227 0 -0.0108425 3.92059e-08 4.86108e-09
603 5 0.001 -0.00249488 0 -0.0441366 -1.75094e-06 0 5.36219e-06 5.2775e-08 9.70005e-09
751 6 0.001 0.0025 0 -0.04541 0.014788 0 -3.8e-09 7.38028e-09 1.59293e-34
752 6 0.001 0.0025 0 -0.0447724 -0.0143343 0 -0.0102541 1.51698e-08 4.36624e-09
753 6 0.001 0.00249701 0 -0.0441365 1.04807e-05 0 2.36838e-06 2.33387e-08 8.73211e-09
901 7 0.001 0.0075 0 -0.04541 0.0363291 0 -3.8e-09 4.45424e-08 1.59293e-34
902 7 0.001 0.0075 0 -0.0447724 -0.034925 0 -0.011935 9.22342e-08 5.92803e-09
903 7 0.001 0.00749267 0 -0.0441369 -2.66673e-06 0 1.75941e-06 1.42803e-07 1.18684e-08
1051 8 0.001 0.0125 0 -0.04541 0.0587123 0 -3.8e-09 1.16345e-07 1.59293e-34
1052 8 0.001 0.0125 0 -0.0447724 -0.0588423 0 -0.00593877 2.31739e-07 1.46229e-09
1053 8 0.001 0.0124881 0 -0.0441359 1.34311e-06 0 -4.96423e-08 3.45759e-07 2.92192e-09
1201 9 0.001 0.0175 0 -0.04541 0.0556944 0 -3.8e-09 1.04691e-07 1.59293e-34
1202 9 0.001 0.0175 0 -0.0447724 -0.0557195 0 -0.00578717 2.08903e-07 1.38956e-09
1203 9 0.001 0.0174887 0 -0.0441359 7.82012e-07 0 2.55986e-08 3.1226e-07 2.7776e-09
1351 10 0.001 0.0225 0 -0.04541 0.0562488 0 -3.8e-09 1.06785e-07 1.59293e-34
1352 10 0.001 0.0225 0 -0.0447724 -0.0562851 0 -0.0058757 2.13036e-07 1.43229e-09
1353 10 0.001 0.0224886 0 -0.0441359 5.77118e-07 0 1.76603e-07 3.1836e-07 2.86282e-09
4 1 0.001 -0.0224353 0 -0.0435048 3.80156e-05 0 1.25754e-05 1.15182e-06 2.48872e-08
5 1 0.001 -0.0223707 0 -0.0428734 6.53309e-05 0 1.78507e-05 1.13142e-06 2.47355e-08
154 2 0.001 -0.0174449 0 -0.0435041 2.91584e-05 0 -1.55571e-05 8.27029e-07 2.30696e-08
155 2 0.001 -0.01739 0 -0.0428717 4.90771e-05 0 -2.29936e-05 8.07865e-07 2.30292e-08
304 3 0.001 -0.0124622 0 -0.043502 1.88714e-05 0 1.01923e-05 3.69506e-07 1.29981e-08
305 3 0.001 -0.0124249 0 -0.0428676 3.53918e-05 0 1.39733e-05 3.51044e-07 1.29093e-08
454 4 0.001 -0.00747934 0 -0.0435014 -1.15295e-05 0 7.15095e-06 1.01577e-07 1.20878e-08
455 4 0.001 -0.00745927 0 -0.0428662 -2.19347e-05 0 1.12359e-05 9.15426e-08 1.20388e-08
604 5 0.001 -0.00248516 0 -0.0435009 -5.44321e-06 0 1.06177e-05 4.11261e-08 9.65289e-09
605 5 0.001 -0.00247139 0 -0.0428653 -8.80593e-06 0 1.61501e-05 3.07252e-08 9.59992e-09
754 6 0.001 0.00249096 0 -0.0435007 2.73474e-05 0 5.23744e-06 2.44909e-08 8.72905e-09
755 6 0.001 0.00248176 0 -0.0428649 4.94289e-05 0 7.454e-06 2.56029e-08 8.72221e-09
904 7 0.001 0.00747775 0 -0.0435014 -5.27963e-06 0 3.83472e-06 1.51385e-07 1.18895e-08
905 7 0.001 0.00745502 0 -0.0428662 -7.6045e-06 0 5.97119e-06 1.59002e-07 1.19032e-08
1054 8 0.001 0.0124644 0 -0.0434998 3.52208e-06 0 1.87393e-08 3.41658e-07 2.91567e-09
1055 8 0.001 0.012429 0 -0.0428642 5.98982e-06 0 1.11019e-07 3.36349e-07 2.90766e-09
1204 9 0.001 0.0174662 0 -0.0434997 1.97972e-06 0 1.32087e-07 3.09706e-07 2.77371e-09
1205 9 0.001 0.0174326 0 -0.0428639 3.27806e-06 0 1.81694e-07 3.06055e-07 2.76819e-09
1354 10 0.001 0.0224659 0 -0.0434997 1.5208e-06 0 3.61781e-07 3.15594e-07 2.85835e-09
1355 10 0.001 0.0224319 0 -0.042864 2.67628e-06 0 4.61129e-07 3.11691e-07 2.85208e-09
6 1 0.001 -0.0222849 0 -0.0422445 9.10782e-05 0 2.16072e-05 1.09775e-06 2.44966e-08
7 1 0.001 -0.0221784 0 -0.0416188 0.000111371 0 2.51642e-05 1.05121e-06 2.41731e-08
8 1 0.001 -0.0220515 0 -0.0409968 0.000124097 0 2.98932e-05 9.92639e-07 2.37689e-08
156 2 0.001 -0.0173171 0 -0.0422411 6.92534e-05 0 -3.02667e-05 7.79671e-07 2.29599e-08
157 2 0.001 -0.0172266 0 -0.0416127 8.6724e-05 0 -3.78503e-05 7.42752e-07 2.28608e-08
158 2 0.001 -0.0171191 0 -0.0409871 9.78697e-05 0 -4.42706e-05 6.97697e-07 2.27326e-08
306 3 0.001 -0.0123757 0 -0.042234 5.3486e-05 0 1.74001e-05 3.29977e-07 1.28011e-08
307 3 0.001 -0.012315 0 -0.0416014 7.30598e-05 0 1.98966e-05 3.06494e-07 1.26742e-08
308 3 0.001 -0.0122432 0 -0.0409699 9.16768e-05 0 2.24944e-05 2.80852e-07 1.25292e-08
456 4 0.001 -0.00743313 0 -0.0422311 -3.32281e-05 0 1.4762e-05 8.15018e-08 1.19835e-08
457 4 0.001 -0.00740128 0 -0.0415963 -4.13088e-05 0 1.87994e-05 7.164e-08 1.19229e-08
458 4 0.001 -0.00736406 0 -0.0409618 -4.28955e-05 0 2.1554e-05 6.21104e-08 1.18579e-08
606 5 0.001 -0.00245414 0 -0.0422297 -1.29303e-05 0 2.14055e-05 2.17167e-08 9.54165e-09
607 5 0.001 -0.00243396 0 -0.0415942 -1.66391e-05 0 2.61424e-05 1.42166e-08 9.47925e-09
608 5 0.001 -0.00241143 0 -0.0409588 -1.98923e-05 0 3.05739e-05 8.31091e-09 9.41371e-09
756 6 0.001 0.00246936 0 -0.0422291 7.44377e-05 0 9.86855e-06 2.67367e-08 8.7126e-09
758 6 0.001 0.00243463 0 -0.0409578 0.000121014 0 1.43157e-05 2.93843e-08 8.68771e-09
757 6 0.001 0.00245367 0 -0.0415934 9.94248e-05 0 1.22124e-05 2.79693e-08 8.70081e-09
906 7 0.001 0.00742428 0 -0.0422314 -9.34679e-06 0 8.10627e-06 1.6552e-07 1.19088e-08
907 7 0.001 0.00738539 0 -0.041597 -8.51991e-06 0 1.03934e-05 1.70827e-07 1.1906e-08
908 7 0.001 0.00733822 0 -0.0409631 -4.14396e-06 0 1.30877e-05 1.74854e-07 1.18944e-08
1056 8 0.001 0.012382 0 -0.0422293 8.29468e-06 0 2.99628e-07 3.299e-07 2.89802e-09
1057 8 0.001 0.0123234 0 -0.0415954 1.00311e-05 0 4.46795e-07 3.22384e-07 2.8869e-09
1058 8 0.001 0.0122535 0 -0.0409626 1.09981e-05 0 4.87753e-07 3.13875e-07 2.87448e-09
1206 9 0.001 0.0173878 0 -0.0422289 4.43993e-06 0 2.88505e-07 3.01351e-07 2.76113e-09
1207 9 0.001 0.017332 0 -0.0415947 5.12847e-06 0 3.39861e-07 2.95638e-07 2.75263e-09
1208 9 0.001 0.0172654 0 -0.0409616 5.25754e-06 0 3.69561e-07 2.88966e-07 2.74279e-09
1356 10 0.001 0.0223867 0 -0.042229 3.82804e-06 0 6.29029e-07 3.06692e-07 2.84413e-09
1357 10 0.001 0.0223304 0 -0.0415949 4.85326e-06 0 7.62568e-07 3.0065e-07 2.8346e-09
1358 10 0.001 0.0222632 0 -0.0409618 5.67168e-06 0 9.10335e-07 2.93619e-07 2.82361e-09
9 1 0.001 -0.0219052 0 -0.0403791 0.000129926 0 3.62126e-05 9.23376e-07 2.32907e-08
10 1 0.001 -0.0217401 0 -0.0397662 0.000127371 0 4.34546e-05 8.45192e-07 2.27499e-08
159 2 0.001 -0.016995 0 -0.0403644 0.000101596 0 -4.88521e-05 6.45415e-07 2.25773e-08
160 2 0.001 -0.0168552 0 -0.0397452 9.62404e-05 0 -5.17493e-05 5.87142e-07 2.23996e-08
309 3 0.001 -0.0121609 0 -0.0403397 0.000107867 0 2.45529e-05 2.53391e-07 1.23673e-08
310 3 0.001 -0.0120686 0 -0.0397109 0.000119249 0 2.56529e-05 2.24554e-07 1.21919e-08
459 4 0.001 -0.00732187 0 -0.0403276 -3.79897e-05 0 2.40327e-05 5.30244e-08 1.17897e-08
460 4 0.001 -0.00727507 0 -0.0396938 -2.69052e-05 0 2.61696e-05 4.44553e-08 1.17183e-08
609 5 0.001 -0.00238714 0 -0.0403235 -2.17109e-05 0 3.42285e-05 4.05363e-09 9.34612e-09
610 5 0.001 -0.00236167 0 -0.0396881 -2.04316e-05 0 3.83478e-05 1.46826e-09 9.27668e-09
760 6 0.001 0.00238616 0 -0.039687 0.00014925 0 1.90046e-05 3.3082e-08 8.65875e-09
759 6 0.001 0.00241216 0 -0.0403223 0.000137933 0 1.67127e-05 3.10637e-08 8.67366e-09
909 7 0.001 0.00728267 0 -0.04033 3.29397e-06 0 1.6335e-05 1.77577e-07 1.18738e-08
910 7 0.001 0.0072187 0 -0.0396976 1.41558e-05 0 2.00208e-05 1.79021e-07 1.18442e-08
1059 8 0.001 0.0121723 0 -0.0403312 1.10816e-05 0 4.33814e-07 3.04445e-07 2.86093e-09
1060 8 0.001 0.0120802 0 -0.0397013 1.03157e-05 0 3.04123e-07 2.94162e-07 2.84633e-09
1209 9 0.001 0.017188 0 -0.0403297 4.9494e-06 0 3.82174e-07 2.81385e-07 2.73165e-09
1210 9 0.001 0.0171 0 -0.0396991 4.29394e-06 0 3.41361e-07 2.72949e-07 2.71929e-09
1359 10 0.001 0.0221851 0 -0.04033 6.23858e-06 0 1.02807e-06 2.85662e-07 2.81128e-09
1360 10 0.001 0.0220963 0 -0.0396996 6.55098e-06 0 1.12496e-06 2.76842e-07 2.79772e-09
11 1 0.001 -0.0215573 0 -0.0391582 0.000116452 0 5.19013e-05 7.60231e-07 2.21623e-08
12 1 0.001 -0.0213578 0 -0.0385555 0.000100378 0 6.15871e-05 6.70894e-07 2.15448e-08
13 1 0.001 -0.0211428 0 -0.0379581 8.01206e-05 0 7.32301e-05 5.79716e-07 2.09125e-08
161 2 0.001 -0.0167005 0 -0.0391295 8.31905e-05 0 -5.26624e-05 5.24398e-07 2.22076e-08
162 2 0.001 -0.0165317 0 -0.0385175 6.42369e-05 0 -5.10583e-05 4.58916e-07 2.20091e-08
163 2 0.001 -0.0163498 0 -0.0379092 4.19903e-05 0 -4.6813e-05 3.92536e-07 2.18112e-08
311 3 0.001 -0.0119669 0 -0.0390835 0.000126827 0 2.68497e-05 1.94883e-07 1.20066e-08
312 3 0.001 -0.0118564 0 -0.0384576 0.000131001 0 2.87977e-05 1.65008e-07 1.18138e-08
461 4 0.001 -0.00722406 0 -0.0390602 -8.49996e-06 0 2.80887e-05 3.64488e-08 1.16429e-08
462 4 0.001 -0.00716924 0 -0.0384269 1.54007e-05 0 2.91674e-05 2.9037e-08 1.15633e-08
611 5 0.001 -0.00233559 0 -0.0390529 -1.81322e-05 0 4.18947e-05 5.52062e-10 9.20531e-09
612 5 0.001 -0.00230948 0 -0.0384175 -1.59351e-05 0 4.48734e-05 1.28105e-09 9.1329e-09
762 6 0.001 0.00232312 0 -0.0384168 0.000157534 0 2.09857e-05 3.83833e-08 8.63066e-09
761 6 0.001 0.00235652 0 -0.0390518 0.000156071 0 2.03305e-05 3.55041e-08 8.64398e-09
912 7 0.001 0.00706541 0 -0.0384357 4.15707e-05 0 2.7453e-05 1.78409e-07 1.17625e-08
911 7 0.001 0.00714627 0 -0.0390661 2.73786e-05 0 2.36473e-05 1.79262e-07 1.18066e-08
1061 8 0.001 0.0119774 0 -0.0390731 8.82753e-06 0 1.21678e-07 2.83091e-07 2.83071e-09
1062 8 0.001 0.011864 0 -0.0384466 6.94332e-06 0 -2.02391e-07 2.71298e-07 2.81414e-09
1211 9 0.001 0.0170017 0 -0.0390701 3.34185e-06 0 2.25815e-07 2.6371e-07 2.70579e-09
1212 9 0.001 0.0168931 0 -0.0384428 2.19082e-06 0 -1.6003e-08 2.53728e-07 2.69127e-09
1362 10 0.001 0.0218876 0 -0.0384436 6.33736e-06 0 1.11607e-06 2.56889e-07 2.76739e-09
1361 10 0.001 0.0219971 0 -0.0390708 6.60358e-06 0 1.19635e-06 2.67228e-07 2.78304e-09
14 1 0.001 -0.0209135 0 -0.037366 5.90138e-05 0 8.56465e-05 4.89216e-07 2.02789e-08
15 1 0.001 -0.0206711 0 -0.036779 3.59075e-05 0 9.75493e-05 4.01793e-07 1.96584e-08
164 2 0.001 -0.0161559 0 -0.0373046 1.8383e-05 0 -4.06572e-05 3.27108e-07 2.16202e-08
165 2 0.001 -0.0159512 0 -0.0367036 -4.45442e-06 0 -3.45561e-05 2.64392e-07 2.14441e-08
313 3 0.001 -0.0117379 0 -0.0378331 0.000130949 0 3.01914e-05 1.35624e-07 1.16171e-08
314 3 0.001 -0.0116122 0 -0.0372101 0.000128168 0 3.25007e-05 1.07465e-07 1.142e-08
315 3 0.001 -0.01148 0 -0.0365883 0.000122957 0 3.46516e-05 8.12764e-08 1.12256e-08
463 4 0.001 -0.00711103 0 -0.037794 4.20745e-05 0 2.97118e-05 2.2255e-08 1.14798e-08
464 4 0.001 -0.00704986 0 -0.0371613 6.85841e-05 0 2.9632e-05 1.61595e-08 1.1393e-08
465 4 0.001 -0.00698617 0 -0.0365288 9.10848e-05 0 3.02378e-05 1.08433e-08 1.13033e-08
613 5 0.001 -0.00228392 0 -0.0377822 -1.4781e-05 0 4.71536e-05 3.61324e-09 9.06045e-09
614 5 0.001 -0.00225947 0 -0.0371468 -1.47701e-05 0 4.89335e-05 7.48854e-09 8.9889e-09
615 5 0.001 -0.0022367 0 -0.0365114 -1.59405e-05 0 4.96898e-05 1.28272e-08 8.91938e-09
765 6 0.001 0.0021987 0 -0.0365132 0.000129975 0 2.09516e-05 5.00426e-08 8.60272e-09
764 6 0.001 0.00224438 0 -0.0371474 0.000144379 0 2.14562e-05 4.56462e-08 8.61015e-09
763 6 0.001 0.00228579 0 -0.037782 0.00015318 0 2.11945e-05 4.17576e-08 8.61943e-09
915 7 0.001 0.00677264 0 -0.0365516 8.31618e-05 0 4.15418e-05 1.70706e-07 1.15962e-08
914 7 0.001 0.00687852 0 -0.0371783 7.01867e-05 0 3.65475e-05 1.7398e-07 1.16569e-08
913 7 0.001 0.00697614 0 -0.0378064 5.57821e-05 0 3.17788e-05 1.76599e-07 1.17125e-08
1063 8 0.001 0.0117403 0 -0.0378221 4.87937e-06 0 -5.6699e-07 2.58846e-07 2.79669e-09
1064 8 0.001 0.0116065 0 -0.0371997 2.90796e-06 0 -9.36612e-07 2.45806e-07 2.77844e-09
1065 8 0.001 0.0114631 0 -0.0365795 1.15507e-06 0 -1.31035e-06 2.32253e-07 2.75948e-09
1213 9 0.001 0.0167746 0 -0.0378173 9.51726e-07 0 -2.76147e-07 2.43064e-07 2.67584e-09
1214 9 0.001 0.0166464 0 -0.0371937 -2.08652e-07 0 -5.00816e-07 2.31783e-07 2.65956e-09
1215 9 0.001 0.0165087 0 -0.0365722 -1.15576e-06 0 -7.27223e-07 2.19959e-07 2.64253e-09
1363 10 0.001 0.0217682 0 -0.0378183 5.84034e-06 0 9.81706e-07 2.45897e-07 2.75094e-09
1364 10 0.001 0.0216389 0 -0.0371949 5.13568e-06 0 8.45288e-07 2.34328e-07 2.73378e-09
1365 10 0.001 0.0215001 0 -0.0365736 4.25923e-06 0 6.47821e-07 2.22256e-07 2.71599e-09
16 1 0.001 -0.0204171 0 -0.036197 1.3188e-05 0 0.000108089 3.1962e-07 1.90653e-08
17 1 0.001 -0.0201527 0 -0.0356195 -6.81046e-06 0 0.000117336 2.44575e-07 1.85098e-08
18 1 0.001 -0.0198794 0 -0.0350462 -2.33212e-05 0 0.000125423 1.78193e-07 1.79977e-08
166 2 0.001 -0.0157368 0 -0.036106 -2.40887e-05 0 -2.98292e-05 2.05982e-07 2.12914e-08
167 2 0.001 -0.0155138 0 -0.0355115 -3.74821e-05 0 -2.63682e-05 1.5325e-07 2.11684e-08
168 2 0.001 -0.0152836 0 -0.0349198 -4.44067e-05 0 -2.38167e-05 1.07317e-07 2.10771e-08
316 3 0.001 -0.0113423 0 -0.0359677 0.000114478 0 3.61972e-05 5.77855e-08 1.10384e-08
317 3 0.001 -0.0112 0 -0.0353482 0.000100974 0 3.7425e-05 3.76805e-08 1.08635e-08
466 4 0.001 -0.00692042 0 -0.0358966 0.000106993 0 3.17534e-05 6.44196e-09 1.12103e-08
467 4 0.001 -0.00685312 0 -0.0352645 0.000115184 0 3.41273e-05 3.13021e-09 1.11144e-08
616 5 0.001 -0.00221616 0 -0.0358758 -1.78463e-05 0 4.96509e-05 1.95288e-08 8.85318e-09
617 5 0.001 -0.0021984 0 -0.0352402 -2.02824e-05 0 4.83723e-05 2.74715e-08 8.79166e-09
767 6 0.001 0.00209372 0 -0.0352457 8.68139e-05 0 1.75729e-05 6.01733e-08 8.59411e-09
766 6 0.001 0.00214855 0 -0.0358793 0.000110623 0 1.98688e-05 5.491e-08 8.59728e-09
917 7 0.001 0.00653648 0 -0.0353025 0.000103918 0 4.93073e-05 1.62774e-07 1.14648e-08
916 7 0.001 0.00665859 0 -0.0359263 9.49228e-05 0 4.58582e-05 1.66926e-07 1.15316e-08
1067 8 0.001 0.0111483 0 -0.0353458 -1.25147e-06 0 -1.90948e-06 2.03953e-07 2.71994e-09
1066 8 0.001 0.0113102 0 -0.0359615 -2.47035e-07 0 -1.66396e-06 2.18272e-07 2.73994e-09
1216 9 0.001 0.0163618 0 -0.0359527 -1.90057e-06 0 -9.0968e-07 2.07669e-07 2.62486e-09
1217 9 0.001 0.016206 0 -0.0353354 -2.32563e-06 0 -9.84685e-07 1.94999e-07 2.60666e-09
1366 10 0.001 0.0213521 0 -0.0359544 3.20253e-06 0 4.01834e-07 2.09759e-07 2.69768e-09
1367 10 0.001 0.0211952 0 -0.0353374 2.02963e-06 0 1.2231e-07 1.96919e-07 2.67896e-09
19 1 0.001 -0.0195986 0 -0.0344765 -3.89924e-05 0 0.000132596 1.21652e-07 1.75332e-08
20 1 0.001 -0.0193115 0 -0.0339099 -5.54976e-05 0 0.000138729 7.57852e-08 1.71204e-08
169 2 0.001 -0.0150474 0 -0.0343304 -4.37163e-05 0 -2.35014e-05 6.90599e-08 2.10183e-08
170 2 0.001 -0.0148064 0 -0.033743 -3.40002e-05 0 -2.68198e-05 3.91343e-08 2.09935e-08
318 3 0.001 -0.0110539 0 -0.0347295 8.41234e-05 0 3.80856e-05 2.15812e-08 1.07058e-08
319 3 0.001 -0.010905 0 -0.0341115 6.07925e-05 0 4.0543e-05 1.00121e-08 1.05678e-08
320 3 0.001 -0.0107543 0 -0.0334939 3.31649e-05 0 4.43897e-05 3.36729e-09 1.04505e-08
468 4 0.001 -0.00678479 0 -0.0346325 0.000115556 0 3.70223e-05 1.10792e-09 1.10166e-08
469 4 0.001 -0.00671596 0 -0.0340006 0.000109111 0 4.00052e-05 5.79855e-10 1.09186e-08
470 4 0.001 -0.0066472 0 -0.0333686 9.76189e-05 0 4.26344e-05 1.73312e-09 1.08226e-08
618 5 0.001 -0.00218394 0 -0.0346045 -2.56356e-05 0 4.69605e-05 3.65098e-08 8.73556e-09
619 5 0.001 -0.0021733 0 -0.0339687 -3.26759e-05 0 4.59119e-05 4.64721e-08 8.68413e-09
620 5 0.001 -0.00216697 0 -0.0333329 -4.13264e-05 0 4.41814e-05 5.71575e-08 8.63693e-09
768 6 0.001 0.00203398 0 -0.0346127 5.96289e-05 0 1.51615e-05 6.57164e-08 8.5929e-09
770 6 0.001 0.00189895 0 -0.0333481 4.94089e-06 0 1.00326e-05 7.69951e-08 8.59145e-09
769 6 0.001 0.00196913 0 -0.0339801 3.2008e-05 0 1.28393e-05 7.13853e-08 8.59231e-09
918 7 0.001 0.00640644 0 -0.0346803 0.000108832 0 5.20944e-05 1.58359e-07 1.13969e-08
920 7 0.001 0.00612306 0 -0.033441 0.000102994 0 5.32701e-05 1.49004e-07 1.12604e-08
919 7 0.001 0.00626858 0 -0.0340598 0.000108937 0 5.33913e-05 1.53757e-07 1.13286e-08
1068 8 0.001 0.0109775 0 -0.0347325 -1.8941e-06 0 -2.03627e-06 1.89393e-07 2.69961e-09
1070 8 0.001 0.0106112 0 -0.033513 -2.12038e-06 0 -2.06755e-06 1.59975e-07 2.65855e-09
1069 8 0.001 0.0107984 0 -0.0341215 -2.17747e-06 0 -2.09714e-06 1.74698e-07 2.67909e-09
1220 9 0.001 0.0156884 0 -0.033497 -1.64598e-06 0 -8.5391e-07 1.55635e-07 2.55022e-09
1219 9 0.001 0.015869 0 -0.0341075 -2.19755e-06 0 -9.52697e-07 1.68884e-07 2.56914e-09
1218 9 0.001 0.0160416 0 -0.0347203 -2.46028e-06 0 -9.63427e-07 1.82039e-07 2.58802e-09
1368 10 0.001 0.0210296 0 -0.0347227 8.14574e-07 0 -1.8736e-07 1.83818e-07 2.65992e-09
1369 10 0.001 0.0208557 0 -0.0341103 -3.61198e-07 0 -4.89845e-07 1.7054e-07 2.64068e-09
1370 10 0.001 0.0206739 0 -0.0335001 -1.4506e-06 0 -7.60502e-07 1.57172e-07 2.62133e-09
21 1 0.001 -0.0190197 0 -0.0333457 -7.07011e-05 0 0.000143512 4.10878e-08 1.6762e-08
22 1 0.001 -0.0187244 0 -0.0327833 -8.50022e-05 0 0.000147725 1.7731e-08 1.64577e-08
23 1 0.001 -0.018427 0 -0.0322219 -9.84178e-05 0 0.000150197 5.57507e-09 1.62066e-08
171 2 0.001 -0.0145618 0 -0.033157 -1.90812e-05 0 -3.17821e-05 1.80118e-08 2.10034e-08
172 2 0.001 -0.014315 0 -0.032572 -1.29211e-06 0 -3.75012e-05 6.02592e-09 2.10478e-08
173 2 0.001 -0.0140672 0 -0.0319874 1.74937e-05 0 -4.37219e-05 3.40742e-09 2.11271e-08
321 3 0.001 -0.0106029 0 -0.0328765 9.87065e-07 0 4.83724e-05 1.8798e-09 1.03551e-08
322 3 0.001 -0.0104517 0 -0.032259 -3.36276e-05 0 5.29853e-05 5.59203e-09 1.02822e-08
471 4 0.001 -0.00657911 0 -0.0327366 8.3254e-05 0 4.53354e-05 4.71687e-09 1.07303e-08
472 4 0.001 -0.0065123 0 -0.0321044 6.76079e-05 0 4.77693e-05 9.62722e-09 1.06426e-08
622 5 0.001 -0.00216914 0 -0.0320611 -6.50013e-05 0 3.91941e-05 7.97493e-08 8.55575e-09
621 5 0.001 -0.00216543 0 -0.032697 -5.21899e-05 0 4.17501e-05 6.83363e-08 8.59426e-09
772 6 0.001 0.00174179 0 -0.032086 -4.09019e-05 0 4.95252e-06 8.72179e-08 8.5857e-09
771 6 0.001 0.00182323 0 -0.0327167 -2.01704e-05 0 7.29342e-06 8.23418e-08 8.5896e-09
922 7 0.001 0.00580957 0 -0.032209 7.58883e-05 0 4.86457e-05 1.3897e-07 1.1124e-08
921 7 0.001 0.00597001 0 -0.0328241 9.20551e-05 0 5.168e-05 1.4409e-07 1.11923e-08
1071 8 0.001 0.0104164 0 -0.032907 -1.76745e-06 0 -1.93854e-06 1.45335e-07 2.63818e-09
1072 8 0.001 0.0102142 0 -0.0323032 -1.1634e-06 0 -1.69733e-06 1.3089e-07 2.61812e-09
1222 9 0.001 0.0153048 0 -0.0322828 -8.74005e-08 0 -3.6802e-07 1.29256e-07 2.51277e-09
1221 9 0.001 0.0155002 0 -0.0328888 -9.01607e-07 0 -6.26257e-07 1.42391e-07 2.53139e-09
1372 10 0.001 0.0202877 0 -0.0322868 -3.24121e-06 0 -1.18937e-06 1.30527e-07 2.58275e-09
1371 10 0.001 0.0204844 0 -0.0328923 -2.41498e-06 0 -9.92085e-07 1.43803e-07 2.60199e-09
24 1 0.001 -0.0181288 0 -0.031661 -0.000110743 0 0.0001513 4.19691e-09 1.60075e-08
25 1 0.001 -0.0178312 0 -0.0310997 -0.000119725 0 0.000150451 1.29225e-08 1.58571e-08
26 1 0.001 -0.0175352 0 -0.0305376 -0.000123757 0 0.000147314 3.08718e-08 1.57504e-08
174 2 0.001 -0.0138197 0 -0.0314027 3.48099e-05 0 -4.86173e-05 1.02973e-08 2.12414e-08
175 2 0.001 -0.0135737 0 -0.0308174 5.0563e-05 0 -5.19078e-05 2.67439e-08 2.13894e-08
323 3 0.001 -0.0103017 0 -0.0316412 -6.75901e-05 0 5.62348e-05 1.43419e-08 1.02321e-08
324 3 0.001 -0.0101539 0 -0.0310229 -9.94258e-05 0 5.78724e-05 2.77656e-08 1.02049e-08
325 3 0.001 -0.0100092 0 -0.0304038 -0.000128027 0 5.8482e-05 4.53182e-08 1.01996e-08
473 4 0.001 -0.00644737 0 -0.031472 5.25977e-05 0 4.96187e-05 1.64995e-08 1.05605e-08
474 4 0.001 -0.00638496 0 -0.0308394 4.07492e-05 0 5.05506e-05 2.53094e-08 1.04846e-08
624 5 0.001 -0.00219395 0 -0.0307895 -8.88359e-05 0 3.12135e-05 1.02133e-07 8.49075e-09
623 5 0.001 -0.00217851 0 -0.0314253 -7.74584e-05 0 3.5684e-05 9.11134e-08 8.52113e-09
774 6 0.001 0.00156113 0 -0.0308272 -6.36835e-05 0 2.90621e-06 9.48208e-08 8.56751e-09
773 6 0.001 0.00165447 0 -0.0314562 -5.59396e-05 0 3.50104e-06 9.14302e-08 8.57863e-09
925 7 0.001 0.00528554 0 -0.0303755 1.00407e-05 0 3.31443e-05 1.21525e-07 1.09106e-08
924 7 0.001 0.00546716 0 -0.0309847 3.32701e-05 0 3.90052e-05 1.27784e-07 1.09838e-08
923 7 0.001 0.0056419 0 -0.0315958 5.56267e-05 0 4.43778e-05 1.33567e-07 1.10547e-08
1075 8 0.001 0.00956822 0 -0.0305059 2.11126e-06 0 -3.6803e-07 8.98386e-08 2.56141e-09
1074 8 0.001 0.00978975 0 -0.0311028 8.33003e-07 0 -8.92511e-07 1.03034e-07 2.57957e-09
1073 8 0.001 0.0100052 0 -0.0317019 -2.95211e-07 0 -1.35406e-06 1.16754e-07 2.59853e-09
1223 9 0.001 0.0151025 0 -0.0316791 7.24688e-07 0 -1.92687e-07 1.1633e-07 2.49457e-09
1225 9 0.001 0.0146789 0 -0.0304783 1.82941e-06 0 -1.33637e-07 9.14848e-08 2.46016e-09
1224 9 0.001 0.0148938 0 -0.0310777 1.41504e-06 0 -1.02207e-07 1.03709e-07 2.47697e-09
1373 10 0.001 0.0200841 0 -0.0316836 -3.78739e-06 0 -1.35291e-06 1.17435e-07 2.56378e-09
1375 10 0.001 0.0196577 0 -0.0304838 -4.03953e-06 0 -1.2979e-06 9.21812e-08 2.52712e-09
1374 10 0.001 0.0198739 0 -0.0310826 -4.05718e-06 0 -1.3683e-06 1.04621e-07 2.5452e-09
27 1 0.001 -0.0172423 0 -0.0299738 -0.000121325 0 0.000140737 5.70164e-08 1.56822e-08
28 1 0.001 -0.0169535 0 -0.029408 -0.000109427 0 0.000129066 9.02543e-08 1.56477e-08
29 1 0.001 -0.0166701 0 -0.0288394 -8.80253e-05 0 0.000112544 1.29493e-07 1.56433e-08
176 2 0.001 -0.0133306 0 -0.0302309 6.18419e-05 0 -5.2568e-05 5.26843e-08 2.157e-08
177 2 0.001 -0.0130916 0 -0.0296426 6.84079e-05 0 -5.08593e-05 8.79147e-08 2.17818e-08
178 2 0.001 -0.0128581 0 -0.0290523 6.89285e-05 0 -4.79728e-05 1.32054e-07 2.20254e-08
326 3 0.001 -0.00986869 0 -0.0297838 -0.000149919 0 5.71595e-05 6.6311e-08 1.02137e-08
327 3 0.001 -0.00973317 0 -0.0291627 -0.000162649 0 5.37181e-05 8.99653e-08 1.02445e-08
475 4 0.001 -0.00632568 0 -0.0302065 3.57481e-05 0 5.0255e-05 3.59857e-08 1.04157e-08
476 4 0.001 -0.00627016 0 -0.0295732 3.65758e-05 0 4.91476e-05 4.84293e-08 1.03543e-08
477 4 0.001 -0.00621901 0 -0.0289395 4.24217e-05 0 4.79483e-05 6.25332e-08 1.02999e-08
627 5 0.001 -0.00227999 0 -0.0288838 -0.000109007 0 1.52665e-05 1.30272e-07 8.42589e-09
625 5 0.001 -0.0022158 0 -0.030154 -9.84962e-05 0 2.5867e-05 1.12514e-07 8.46498e-09
626 5 0.001 -0.00224439 0 -0.0295187 -0.000105755 0 2.02686e-05 1.21976e-07 8.4437e-09
777 6 0.001 0.00124416 0 -0.028946 -4.35059e-05 0 8.74878e-06 9.92941e-08 8.50704e-09
776 6 0.001 0.00135603 0 -0.029572 -5.70356e-05 0 5.27049e-06 9.87668e-08 8.53203e-09
775 6 0.001 0.00146168 0 -0.0301991 -6.44676e-05 0 3.24481e-06 9.72816e-08 8.55209e-09
927 7 0.001 0.0049024 0 -0.0291632 -3.67277e-05 0 2.07954e-05 1.07251e-07 1.07544e-08
926 7 0.001 0.00509721 0 -0.0297683 -1.34746e-05 0 2.70261e-05 1.14702e-07 1.08345e-08
1077 8 0.001 0.00910869 0 -0.0293184 4.57687e-06 0 7.49271e-07 6.54153e-08 2.52796e-09
1076 8 0.001 0.00934105 0 -0.0299112 3.3678e-06 0 2.00869e-07 7.72676e-08 2.54416e-09
1227 9 0.001 0.0142325 0 -0.0292858 1.71612e-06 0 -4.10623e-07 6.85689e-08 2.42926e-09
1226 9 0.001 0.0144584 0 -0.0298811 1.89368e-06 0 -2.3056e-07 7.97448e-08 2.44423e-09
1376 10 0.001 0.0194357 0 -0.0298871 -3.81921e-06 0 -1.17959e-06 8.02076e-08 2.50969e-09
1377 10 0.001 0.0192084 0 -0.0292924 -3.40859e-06 0 -1.01635e-06 6.87916e-08 2.49308e-09
30 1 0.001 -0.016393 0 -0.0282677 -5.88875e-05 0 9.23762e-05 1.73721e-07 1.56656e-08
31 1 0.001 -0.0161235 0 -0.0276924 -2.10686e-05 0 6.87812e-05 2.22077e-07 1.57123e-08
179 2 0.001 -0.0126312 0 -0.0284593 6.37293e-05 0 -4.21188e-05 1.84504e-07 2.22998e-08
180 2 0.001 -0.0124124 0 -0.0278634 5.34674e-05 0 -3.32714e-05 2.44417e-07 2.25996e-08
328 3 0.001 -0.00960352 0 -0.0285403 -0.000165327 0 4.7972e-05 1.15476e-07 1.02891e-08
329 3 0.001 -0.00948054 0 -0.0279166 -0.000155529 0 3.92242e-05 1.4208e-07 1.03456e-08
330 3 0.001 -0.00936499 0 -0.0272914 -0.000134153 0 2.72876e-05 1.69121e-07 1.04135e-08
478 4 0.001 -0.00617285 0 -0.0283054 5.1649e-05 0 4.62413e-05 7.81951e-08 1.02523e-08
479 4 0.001 -0.00613227 0 -0.027671 6.25732e-05 0 4.43165e-05 9.53243e-08 1.0212e-08
629 5 0.001 -0.00237311 0 -0.0276154 -9.82747e-05 0 3.58088e-06 1.42649e-07 8.40163e-09
628 5 0.001 -0.00232284 0 -0.0282494 -0.000106084 0 9.42543e-06 1.37207e-07 8.41153e-09
779 6 0.001 0.00100175 0 -0.0276976 -3.52136e-06 0 1.79259e-05 9.78284e-08 8.44447e-09
778 6 0.001 0.00112605 0 -0.0283212 -2.48725e-05 0 1.31429e-05 9.89407e-08 8.47748e-09
930 7 0.001 0.00428152 0 -0.0273601 -9.16403e-05 0 5.1286e-06 8.10344e-08 1.04874e-08
929 7 0.001 0.00449428 0 -0.0279591 -7.66868e-05 0 9.54229e-06 9.03789e-08 1.05807e-08
928 7 0.001 0.00470134 0 -0.0285602 -5.81799e-05 0 1.49468e-05 9.91391e-08 1.06698e-08
1078 8 0.001 0.00887155 0 -0.0287276 5.59106e-06 0 1.23322e-06 5.43672e-08 2.51294e-09
1080 8 0.001 0.00838473 0 -0.0275509 6.61468e-06 0 1.88549e-06 3.498e-08 2.48677e-09
1079 8 0.001 0.00863008 0 -0.0281384 6.28734e-06 0 1.62266e-06 4.41999e-08 2.49919e-09
1228 9 0.001 0.0140017 0 -0.0286924 1.44977e-06 0 -6.17783e-07 5.8032e-08 2.41534e-09
1230 9 0.001 0.0135271 0 -0.0275108 7.22778e-07 0 -1.26574e-06 3.9148e-08 2.39106e-09
1229 9 0.001 0.0137665 0 -0.0281008 1.10751e-06 0 -9.02922e-07 4.82035e-08 2.40257e-09
1380 10 0.001 0.0184987 0 -0.0275191 -1.16873e-06 0 -2.07684e-07 3.87393e-08 2.44948e-09
1379 10 0.001 0.0187395 0 -0.0281085 -2.04489e-06 0 -5.32061e-07 4.79777e-08 2.46285e-09
1378 10 0.001 0.0189762 0 -0.0286996 -2.79519e-06 0 -8.01663e-07 5.80208e-08 2.47742e-09
32 1 0.001 -0.0158626 0 -0.0271131 2.35432e-05 0 4.21786e-05 2.73886e-07 1.57829e-08
33 1 0.001 -0.0156112 0 -0.0265297 7.00867e-05 0 1.58465e-05 3.28674e-07 1.58779e-08
34 1 0.001 -0.0153705 0 -0.0259418 0.000114879 0 -8.58988e-06 3.8614e-07 1.59984e-08
181 2 0.001 -0.0122029 0 -0.0272641 3.86292e-05 0 -2.30675e-05 3.10677e-07 2.29186e-08
182 2 0.001 -0.0120039 0 -0.0266613 2.01885e-05 0 -1.26442e-05 3.8189e-07 2.32514e-08
183 2 0.001 -0.0118167 0 -0.0260547 -1.78761e-07 0 -1.54701e-06 4.56413e-07 2.35905e-08
331 3 0.001 -0.00925757 0 -0.0266648 -0.000100845 0 1.40926e-05 1.96094e-07 1.04923e-08
332 3 0.001 -0.00915891 0 -0.0260368 -5.77679e-05 0 1.15181e-07 2.22685e-07 1.05813e-08
481 4 0.001 -0.00607019 0 -0.026401 7.42435e-05 0 3.83617e-05 1.33634e-07 1.01578e-08
480 4 0.001 -0.00609786 0 -0.0270362 7.15693e-05 0 4.17206e-05 1.13837e-07 1.01799e-08
482 4 0.001 -0.00604985 0 -0.0257656 6.71851e-05 0 3.53595e-05 1.54568e-07 1.01465e-08
631 5 0.001 -0.00249646 0 -0.0263496 -6.43134e-05 0 -5.26017e-06 1.48923e-07 8.39491e-09
630 5 0.001 -0.00243096 0 -0.0269822 -8.40953e-05 0 -1.0531e-06 1.46546e-07 8.39604e-09
782 6 0.001 0.000592164 0 -0.0258344 4.90977e-05 0 3.05025e-05 9.13967e-08 8.33468e-09
781 6 0.001 0.000734725 0 -0.0264541 3.45266e-05 0 2.6983e-05 9.39147e-08 8.37223e-09
780 6 0.001 0.00087128 0 -0.0270752 1.70176e-05 0 2.26718e-05 9.61035e-08 8.40912e-09
932 7 0.001 0.00384021 0 -0.0261677 -0.000108364 0 4.83074e-07 6.11323e-08 1.02899e-08
931 7 0.001 0.00406338 0 -0.0267629 -0.000102634 0 1.90579e-06 7.12264e-08 1.03903e-08
1082 8 0.001 0.00788411 0 -0.0263801 6.35296e-06 0 1.97262e-06 1.96022e-08 2.4662e-09
1081 8 0.001 0.00813592 0 -0.0269649 6.65954e-06 0 2.00911e-06 2.67647e-08 2.47575e-09
1083 8 0.001 0.00762974 0 -0.0257965 5.6417e-06 0 1.82252e-06 1.35319e-08 2.45815e-09
1232 9 0.001 0.0130378 0 -0.0263352 1.19305e-07 0 -1.95578e-06 2.35897e-08 2.37222e-09
1231 9 0.001 0.0132841 0 -0.0269223 3.76483e-07 0 -1.62701e-06 3.09253e-08 2.38092e-09
1381 10 0.001 0.0182543 0 -0.0269312 -2.16105e-07 0 1.88699e-07 3.03755e-08 2.43739e-09
1383 10 0.001 0.0177563 0 -0.0257593 1.51335e-06 0 9.36489e-07 1.65131e-08 2.41733e-09
1382 10 0.001 0.0180067 0 -0.0263447 7.16581e-07 0 5.91138e-07 2.29488e-08 2.42665e-09
35 1 0.001 -0.0151413 0 -0.0253493 0.000154257 0 -2.96281e-05 4.46095e-07 1.61462e-08
36 1 0.001 -0.0149246 0 -0.0247521 0.000184808 0 -4.64461e-05 5.08385e-07 1.63234e-08
184 2 0.001 -0.0116424 0 -0.0254443 -2.09198e-05 0 1.03801e-05 5.32386e-07 2.39238e-08
185 2 0.001 -0.0114823 0 -0.0248301 -4.09506e-05 0 2.11362e-05 6.07802e-07 2.42398e-08
333 3 0.001 -0.00906963 0 -0.0254074 -1.06065e-05 0 -1.3293e-05 2.4876e-07 1.06804e-08
334 3 0.001 -0.00899027 0 -0.0247767 3.81384e-05 0 -2.6906e-05 2.74342e-07 1.07916e-08
484 4 0.001 -0.00603334 0 -0.0244942 2.30562e-05 0 2.77593e-05 1.98779e-07 1.01555e-08
483 4 0.001 -0.00603739 0 -0.02513 4.98544e-05 0 3.1699e-05 1.76401e-07 1.01459e-08
632 5 0.001 -0.00256967 0 -0.0257179 -3.93683e-05 0 -8.4651e-06 1.49882e-07 8.399e-09
634 5 0.001 -0.00273925 0 -0.0244575 2.26532e-05 0 -1.20606e-05 1.48274e-07 8.42662e-09
633 5 0.001 -0.00265061 0 -0.0250872 -9.75849e-06 0 -1.09958e-05 1.49591e-07 8.40931e-09
784 6 0.001 0.000289415 0 -0.0245991 6.12271e-05 0 3.38814e-05 8.57774e-08 8.26043e-09
783 6 0.001 0.000443693 0 -0.025216 5.84136e-05 0 3.27079e-05 8.86587e-08 8.29738e-09
933 7 0.001 0.00361239 0 -0.0255742 -0.000107177 0 1.95232e-06 5.09844e-08 1.0187e-08
935 7 0.001 0.00314454 0 -0.0243919 -8.3645e-05 0 1.3233e-05 3.16683e-08 9.97669e-09
934 7 0.001 0.00338036 0 -0.0249823 -9.86423e-05 0 6.42344e-06 4.1061e-08 1.00822e-08
1085 8 0.001 0.00711512 0 -0.0246317 3.50476e-06 0 1.14302e-06 4.7881e-09 2.44656e-09
1084 8 0.001 0.00737327 0 -0.0252137 4.62415e-06 0 1.53373e-06 8.58568e-09 2.45158e-09
1233 9 0.001 0.0127887 0 -0.0257492 4.69112e-08 0 -2.21113e-06 1.71908e-08 2.36502e-09
1235 9 0.001 0.0122838 0 -0.0245802 3.40141e-07 0 -2.43748e-06 7.37206e-09 2.35529e-09
1234 9 0.001 0.0125372 0 -0.0251643 1.27647e-07 0 -2.384e-06 1.17723e-08 2.35937e-09
1385 10 0.001 0.0172488 0 -0.0245914 2.5126e-06 0 1.37318e-06 6.78486e-09 2.40317e-09