ITEM: TIMESTEP
1300000
ITEM: NUMBER OF ATOMS
1500
ITEM: BOX BOUNDS ff ff ff
-2.5000000000000001e-02 2.5000000000000001e-02
-5.0000000000000001e-03 5.0000000000000001e-03
-5.0000000000000003e-02 5.0000000000000003e-02
ITEM: ATOMS id type radius x y z fx fy fz c_bendingE c_stretchingE
1 1 0.001 -0.0225 0 -0.04503 -0.120225 0 -3.8e-09 4.87977e-07 1.59293e-34
2 1 0.001 -0.0225 0 -0.0443924 0.119746 0 -0.0175742 9.74402e-07 1.28282e-08
151 2 0.001 -0.0175 0 -0.04503 -0.111643 0 -3.8e-09 4.20777e-07 1.59293e-34
152 2 0.001 -0.0175 0 -0.0443924 0.112016 0 -0.0175175 8.34124e-07 1.27024e-08
301 3 0.001 -0.0125 0 -0.04503 -0.0847627 0 -3.8e-09 2.42515e-07 1.59293e-34
302 3 0.001 -0.0125 0 -0.0443924 0.0859318 0 -0.0170816 4.75841e-07 1.20583e-08
451 4 0.001 -0.0075 0 -0.04503 -0.0493001 0 -3.8e-09 8.20301e-08 1.59293e-34
452 4 0.001 -0.0075 0 -0.0443924 0.051381 0 -0.0108229 1.56763e-07 4.83175e-09
601 5 0.001 -0.0025 0 -0.04503 -0.0216068 0 -3.8e-09 1.57557e-08 1.59293e-34
602 5 0.001 -0.0025 0 -0.0443924 0.023887 0 -0.00751531 2.83001e-08 2.33458e-09
751 6 0.001 0.0025 0 -0.04503 0.00340552 0 -3.8e-09 3.91398e-10 1.59293e-34
752 6 0.001 0.0025 0 -0.0443924 -0.00173893 0 -0.00879218 1.25507e-09 3.21009e-09
901 7 0.001 0.0075 0 -0.04503 0.0351999 0 -3.8e-09 4.18166e-08 1.59293e-34
902 7 0.001 0.0075 0 -0.0443924 -0.0342623 0 -0.00609327 8.57212e-08 1.54627e-09
1051 8 0.001 0.0125 0 -0.04503 0.0613729 0 -3.8e-09 1.27129e-07 1.59293e-34
1052 8 0.001 0.0125 0 -0.0443924 -0.0613919 0 -0.00582026 2.53711e-07 1.40543e-09
1201 9 0.001 0.0175 0 -0.04503 0.0607046 0 -3.8e-09 1.24375e-07 1.59293e-34
1202 9 0.001 0.0175 0 -0.0443924 -0.0606945 0 -0.0058166 2.48333e-07 1.40395e-09
1351 10 0.001 0.0225 0 -0.04503 0.0611396 0 -3.8e-09 1.26164e-07 1.59293e-34
1352 10 0.001 0.0225 0 -0.0443924 -0.0611589 0 -0.00580922 2.51785e-07 1.40011e-09
3 1 0.001 -0.0224758 0 -0.0437582 1.52293e-06 0 3.42387e-06 1.45388e-06 2.5622e-08
4 1 0.001 -0.0224274 0 -0.0431254 3.86904e-06 0 6.87456e-06 1.43321e-06 2.55111e-08
5 1 0.001 -0.0223551 0 -0.0424948 6.25832e-06 0 1.01159e-05 1.39693e-06 2.53182e-08
153 2 0.001 -0.0174775 0 -0.0437581 -2.32194e-07 0 -1.52764e-06 1.2356e-06 2.53407e-08
154 2 0.001 -0.0174327 0 -0.043125 -1.16061e-06 0 -3.39894e-06 1.20024e-06 2.5186e-08
155 2 0.001 -0.017366 0 -0.0424938 -2.27413e-06 0 -5.66931e-06 1.15249e-06 2.49815e-08
303 3 0.001 -0.0124829 0 -0.0437579 7.38121e-06 0 5.3889e-07 6.97657e-07 2.40461e-08
304 3 0.001 -0.0124491 0 -0.043124 1.85584e-05 0 6.5057e-07 6.63331e-07 2.38891e-08
305 3 0.001 -0.0123989 0 -0.0424912 3.10224e-05 0 -4.27538e-08 6.22693e-07 2.37019e-08
453 4 0.001 -0.00749005 0 -0.0437567 -1.27105e-06 0 1.74193e-06 2.24057e-07 9.63082e-09
454 4 0.001 -0.00747059 0 -0.0431212 -3.88973e-06 0 3.542e-06 2.01852e-07 9.56374e-09
455 4 0.001 -0.00744213 0 -0.042486 -7.03193e-06 0 5.38428e-06 1.79554e-07 9.4937e-09
603 5 0.001 -0.00249563 0 -0.0437561 -4.3956e-06 0 -4.73395e-06 3.79514e-08 4.66316e-09
604 5 0.001 -0.00248737 0 -0.0431198 -1.22317e-05 0 -9.60486e-06 2.93052e-08 4.65527e-09
605 5 0.001 -0.00247569 0 -0.0424836 -2.15517e-05 0 -1.42543e-05 2.17053e-08 4.65561e-09
753 6 0.001 0.00249931 0 -0.0437563 4.93152e-06 0 2.16362e-07 2.77135e-09 6.42196e-09
754 6 0.001 0.0024976 0 -0.0431202 1.2832e-05 0 3.5782e-07 4.72797e-09 6.42607e-09
755 6 0.001 0.00249454 0 -0.0424841 2.19291e-05 0 4.76412e-07 7.22424e-09 6.43132e-09
903 7 0.001 0.00749288 0 -0.0437559 -1.93119e-06 0 -9.49826e-07 1.31586e-07 3.09785e-09
904 7 0.001 0.00747848 0 -0.0431195 -5.21836e-06 0 -1.72556e-06 1.37442e-07 3.10847e-09
905 7 0.001 0.00745662 0 -0.0424833 -9.03307e-06 0 -2.49423e-06 1.42841e-07 3.119e-09
1053 8 0.001 0.0124876 0 -0.0437559 -6.75623e-08 0 2.49908e-08 3.7928e-07 2.80907e-09
1054 8 0.001 0.0124628 0 -0.0431198 -1.48013e-07 0 4.3478e-08 3.76251e-07 2.80443e-09
1055 8 0.001 0.0124257 0 -0.0424842 -2.11775e-07 0 9.06169e-08 3.71854e-07 2.79768e-09
1203 9 0.001 0.0174877 0 -0.0437559 -2.14332e-07 0 -1.10644e-07 3.71418e-07 2.80648e-09
1204 9 0.001 0.0174632 0 -0.0431198 -5.04873e-07 0 -2.28034e-07 3.68803e-07 2.80265e-09
1205 9 0.001 0.0174265 0 -0.0424842 -7.73558e-07 0 -3.05201e-07 3.6484e-07 2.79686e-09
1353 10 0.001 0.0224876 0 -0.0437559 1.89032e-07 0 1.07734e-07 3.76402e-07 2.79841e-09
1354 10 0.001 0.0224629 0 -0.0431198 4.96173e-07 0 2.07149e-07 3.73401e-07 2.79372e-09
1355 10 0.001 0.022426 0 -0.0424842 8.55042e-07 0 3.26857e-07 3.69054e-07 2.78691e-09
6 1 0.001 -0.0222592 0 -0.0418674 8.7176e-06 0 1.33469e-05 1.34589e-06 2.50478e-08
7 1 0.001 -0.0221405 0 -0.0412439 1.14087e-05 0 1.63697e-05 1.28124e-06 2.47065e-08
156 2 0.001 -0.017278 0 -0.0418653 -3.10294e-06 0 -8.18161e-06 1.09343e-06 2.47338e-08
157 2 0.001 -0.0171692 0 -0.0412399 -2.73053e-06 0 -1.04346e-05 1.02442e-06 2.44494e-08
306 3 0.001 -0.012333 0 -0.0418599 4.24141e-05 0 -7.57621e-07 5.76494e-07 2.34876e-08
307 3 0.001 -0.012252 0 -0.0412303 5.13673e-05 0 -1.26013e-06 5.25645e-07 2.32494e-08
456 4 0.001 -0.00740517 0 -0.0418513 -9.57273e-06 0 7.21175e-06 1.57486e-07 9.42174e-09
457 4 0.001 -0.00736027 0 -0.0412171 -1.03516e-05 0 9.28441e-06 1.35956e-07 9.34852e-09
606 5 0.001 -0.00246108 0 -0.0418474 -3.12796e-05 0 -1.86205e-05 1.52267e-08 4.66412e-09
607 5 0.001 -0.00244402 0 -0.0412113 -4.02346e-05 0 -2.28105e-05 9.91793e-09 4.6807e-09
756 6 0.001 0.00248979 0 -0.041848 3.08457e-05 0 7.34109e-07 1.02629e-08 6.43772e-09
757 6 0.001 0.00248302 0 -0.0412119 3.83219e-05 0 9.12218e-07 1.38516e-08 6.44531e-09
906 7 0.001 0.00742717 0 -0.0418474 -1.32337e-05 0 -3.32442e-06 1.47708e-07 3.12923e-09
907 7 0.001 0.00739001 0 -0.0412119 -1.70364e-05 0 -4.33555e-06 1.5197e-07 3.13906e-09
1056 8 0.001 0.0123764 0 -0.0418495 -2.10427e-07 0 1.11409e-07 3.66123e-07 2.78888e-09
1057 8 0.001 0.0123149 0 -0.0412159 -1.39308e-07 0 1.34627e-07 3.59101e-07 2.77813e-09
1206 9 0.001 0.0173777 0 -0.0418495 -9.27469e-07 0 -4.00738e-07 3.59557e-07 2.78913e-09
1207 9 0.001 0.0173168 0 -0.0412158 -9.53314e-07 0 -4.8345e-07 3.52991e-07 2.77953e-09
1356 10 0.001 0.0223768 0 -0.0418495 1.22143e-06 0 4.20842e-07 3.63397e-07 2.77807e-09
1357 10 0.001 0.0223156 0 -0.0412158 1.54497e-06 0 5.2607e-07 3.56478e-07 2.76731e-09
8 1 0.001 -0.0219995 0 -0.0406251 1.36198e-05 0 1.91307e-05 1.20449e-06 2.43028e-08
9 1 0.001 -0.0218371 0 -0.0400114 1.4266e-05 0 2.2097e-05 1.1174e-06 2.38468e-08
10 1 0.001 -0.0216543 0 -0.0394035 1.37539e-05 0 2.5237e-05 1.02202e-06 2.33497e-08
158 2 0.001 -0.0170404 0 -0.0406184 -8.12018e-07 0 -1.27274e-05 9.46999e-07 2.41347e-08
159 2 0.001 -0.0168926 0 -0.0400011 2.51832e-06 0 -1.55494e-05 8.6286e-07 2.37973e-08
160 2 0.001 -0.0167268 0 -0.0393883 7.06615e-06 0 -1.96808e-05 7.73807e-07 2.34468e-08
308 3 0.001 -0.0121565 0 -0.0406027 5.66809e-05 0 -1.51836e-06 4.71222e-07 2.2992e-08
309 3 0.001 -0.0120475 0 -0.0399773 5.6323e-05 0 -9.3118e-07 4.14458e-07 2.27211e-08
458 4 0.001 -0.007308 0 -0.0405834 -8.20493e-06 0 1.09342e-05 1.15248e-07 9.27472e-09
459 4 0.001 -0.00724895 0 -0.0399503 -3.17761e-06 0 1.20421e-05 9.56143e-08 9.20136e-09
608 5 0.001 -0.002425 0 -0.0405752 -4.77707e-05 0 -2.67773e-05 5.79778e-09 4.70518e-09
609 5 0.001 -0.00240451 0 -0.0399392 -5.27947e-05 0 -3.09058e-05 2.85658e-09 4.7375e-09
758 6 0.001 0.00247391 0 -0.0405758 4.3715e-05 0 9.734e-07 1.79993e-08 6.45434e-09
759 6 0.001 0.00246212 0 -0.0399398 4.5726e-05 0 6.99405e-07 2.27114e-08 6.46518e-09
908 7 0.001 0.00734502 0 -0.040577 -2.02416e-05 0 -5.415e-06 1.55557e-07 3.14846e-09
909 7 0.001 0.00729212 0 -0.0399426 -2.26646e-05 0 -6.5043e-06 1.58412e-07 3.15731e-09
1058 8 0.001 0.0122415 0 -0.0405835 -6.01734e-09 0 1.93104e-07 3.50845e-07 2.7655e-09
1059 8 0.001 0.0121562 0 -0.0399526 1.75572e-07 0 2.22267e-07 3.41418e-07 2.75112e-09
1208 9 0.001 0.0172441 0 -0.0405833 -7.97685e-07 0 -5.06506e-07 3.45195e-07 2.76813e-09
1209 9 0.001 0.0171596 0 -0.0399523 -4.97218e-07 0 -5.36012e-07 3.36229e-07 2.75504e-09
1358 10 0.001 0.0222424 0 -0.0405834 1.7951e-06 0 6.65572e-07 3.48355e-07 2.75469e-09
1359 10 0.001 0.0221575 0 -0.0399525 1.92812e-06 0 7.53646e-07 3.39092e-07 2.74033e-09
11 1 0.001 -0.0214521 0 -0.0388018 1.22177e-05 0 2.84941e-05 9.20536e-07 2.28233e-08
12 1 0.001 -0.0212318 0 -0.0382064 1.01927e-05 0 3.201e-05 8.15285e-07 2.22795e-08
161 2 0.001 -0.016544 0 -0.0387804 1.18243e-05 0 -2.38485e-05 6.81734e-07 2.30921e-08
162 2 0.001 -0.0163454 0 -0.0381775 1.68341e-05 0 -2.77942e-05 5.88591e-07 2.27408e-08
310 3 0.001 -0.0119257 0 -0.0393542 5.06274e-05 0 5.86075e-07 3.56712e-07 2.24433e-08
311 3 0.001 -0.0117923 0 -0.0387336 4.07091e-05 0 2.96426e-06 2.99422e-07 2.21659e-08
312 3 0.001 -0.0116481 0 -0.0381153 2.75482e-05 0 6.57764e-06 2.44037e-07 2.18954e-08
460 4 0.001 -0.00718375 0 -0.0393178 3.95573e-06 0 1.26345e-05 7.72803e-08 9.12941e-09
461 4 0.001 -0.00711301 0 -0.0386859 1.37062e-05 0 1.31057e-05 6.04522e-08 9.05932e-09
462 4 0.001 -0.00703739 0 -0.0380546 2.51552e-05 0 1.30703e-05 4.53238e-08 8.99148e-09
610 5 0.001 -0.00238302 0 -0.0393033 -5.46762e-05 0 -3.48875e-05 1.05994e-09 4.77754e-09
611 5 0.001 -0.002361 0 -0.0386673 -5.228e-05 0 -3.87254e-05 3.55039e-10 4.82492e-09
612 5 0.001 -0.00233891 0 -0.0380314 -4.67166e-05 0 -4.24537e-05 6.7884e-10 4.87922e-09
760 6 0.001 0.00244732 0 -0.0393039 4.55511e-05 0 1.22614e-07 2.79852e-08 6.4783e-09
762 6 0.001 0.00240734 0 -0.0380323 3.86181e-05 0 -4.9904e-07 4.01415e-08 6.51071e-09
761 6 0.001 0.00242917 0 -0.038668 4.32078e-05 0 -9.49366e-08 3.38055e-08 6.49357e-09
910 7 0.001 0.00723126 0 -0.039309 -2.41801e-05 0 -7.53474e-06 1.60485e-07 3.16553e-09
912 7 0.001 0.00708547 0 -0.0380442 -2.31225e-05 0 -9.27764e-06 1.62174e-07 3.17986e-09
911 7 0.001 0.00716238 0 -0.0386761 -2.44333e-05 0 -8.4784e-06 1.61744e-07 3.17304e-09
1060 8 0.001 0.0120593 0 -0.0393234 3.68109e-07 0 2.5861e-07 3.30895e-07 2.73513e-09
1061 8 0.001 0.011951 0 -0.0386961 5.17195e-07 0 3.05904e-07 3.19359e-07 2.71767e-09
1062 8 0.001 0.0118316 0 -0.0380707 5.74895e-07 0 3.30727e-07 3.06898e-07 2.69888e-09
1210 9 0.001 0.0170636 0 -0.0393229 -6.63112e-08 0 -5.05617e-07 3.26166e-07 2.74037e-09
1211 9 0.001 0.0169563 0 -0.0386954 4.28615e-07 0 -4.35449e-07 3.15086e-07 2.72423e-09
1212 9 0.001 0.0168379 0 -0.0380699 9.51187e-07 0 -3.61928e-07 3.0308e-07 2.70679e-09
1362 10 0.001 0.021834 0 -0.0380704 1.44134e-06 0 9.13081e-07 3.05207e-07 2.68817e-09
1361 10 0.001 0.0219531 0 -0.0386958 1.75213e-06 0 8.99713e-07 3.17437e-07 2.70694e-09
1360 10 0.001 0.022061 0 -0.0393232 1.91997e-06 0 8.37303e-07 3.2876e-07 2.72438e-09
13 1 0.001 -0.0209947 0 -0.0376175 7.62875e-06 0 3.61805e-05 7.08639e-07 2.17291e-08
14 1 0.001 -0.0207419 0 -0.037035 4.06624e-06 0 4.06991e-05 6.02957e-07 2.11827e-08
15 1 0.001 -0.0204749 0 -0.0364589 8.81515e-07 0 4.48542e-05 5.00519e-07 2.06507e-08
163 2 0.001 -0.0161322 0 -0.0375795 2.1916e-05 0 -3.20385e-05 4.96361e-07 2.24005e-08
164 2 0.001 -0.0159058 0 -0.0369864 2.63608e-05 0 -3.6178e-05 4.07021e-07 2.20795e-08
165 2 0.001 -0.0156675 0 -0.0363979 3.05413e-05 0 -4.03775e-05 3.22509e-07 2.17855e-08
313 3 0.001 -0.0114944 0 -0.0374993 1.23474e-05 0 1.11565e-05 1.91948e-07 2.16378e-08
314 3 0.001 -0.0113322 0 -0.0368854 -3.00211e-06 0 1.63692e-05 1.44433e-07 2.13983e-08
463 4 0.001 -0.00695756 0 -0.0374238 3.68584e-05 0 1.28715e-05 3.20842e-08 8.9265e-09
464 4 0.001 -0.0068742 0 -0.0367934 4.74448e-05 0 1.2601e-05 2.09257e-08 8.865e-09
613 5 0.001 -0.00231721 0 -0.0373955 -3.86305e-05 0 -4.54748e-05 1.96611e-09 4.93975e-09
614 5 0.001 -0.00229632 0 -0.0367595 -2.85935e-05 0 -4.79228e-05 4.15607e-09 5.00555e-09
764 6 0.001 0.00235131 0 -0.0367613 2.34905e-05 0 -2.18136e-06 5.41424e-08 6.55106e-09
763 6 0.001 0.0023815 0 -0.0373967 3.19437e-05 0 -1.29158e-06 4.69441e-08 6.52988e-09
914 7 0.001 0.00690757 0 -0.0367836 -1.71949e-05 0 -1.02081e-05 1.60574e-07 3.19146e-09
913 7 0.001 0.00700052 0 -0.0374134 -2.08479e-05 0 -9.91327e-06 1.61777e-07 3.186e-09
1063 8 0.001 0.0117012 0 -0.0374476 5.35638e-07 0 3.54649e-07 2.93606e-07 2.67891e-09
1064 8 0.001 0.0115602 0 -0.0368268 4.22905e-07 0 3.57685e-07 2.79584e-07 2.65792e-09
1213 9 0.001 0.0167086 0 -0.0374465 1.40875e-06 0 -2.66126e-07 2.90243e-07 2.6882e-09
1214 9 0.001 0.0165687 0 -0.0368255 1.7279e-06 0 -1.77183e-07 2.76675e-07 2.66859e-09
1363 10 0.001 0.0217041 0 -0.0374471 1.01245e-06 0 8.87876e-07 2.92156e-07 2.66821e-09
1364 10 0.001 0.0215635 0 -0.0368262 5.01235e-07 0 8.31074e-07 2.78379e-07 2.64722e-09
16 1 0.001 -0.0201952 0 -0.0358889 -2.44385e-06 0 4.87192e-05 4.03469e-07 2.01429e-08
17 1 0.001 -0.0199041 0 -0.0353245 -5.17988e-06 0 5.21374e-05 3.13767e-07 1.96675e-08
166 2 0.001 -0.0154188 0 -0.0358137 3.42457e-05 0 -4.42718e-05 2.44692e-07 2.15256e-08
167 2 0.001 -0.015161 0 -0.0352335 3.68269e-05 0 -4.75315e-05 1.75325e-07 2.13061e-08
315 3 0.001 -0.0111626 0 -0.0362736 -1.67894e-05 0 2.08948e-05 1.026e-07 2.11817e-08
316 3 0.001 -0.010987 0 -0.0356634 -2.88586e-05 0 2.47917e-05 6.73515e-08 2.0993e-08
317 3 0.001 -0.0108064 0 -0.0350547 -3.82747e-05 0 2.84048e-05 3.9374e-08 2.08345e-08
465 4 0.001 -0.00678802 0 -0.0361634 5.60998e-05 0 1.26929e-05 1.20464e-08 8.80747e-09
466 4 0.001 -0.00669973 0 -0.0355337 6.13974e-05 0 1.27928e-05 5.64783e-09 8.75469e-09
467 4 0.001 -0.00661007 0 -0.0349041 6.28378e-05 0 1.32863e-05 1.92607e-09 8.70774e-09
615 5 0.001 -0.00227668 0 -0.0361235 -1.74423e-05 0 -5.03607e-05 7.19657e-09 5.07618e-09
616 5 0.001 -0.00225871 0 -0.0354875 -5.41563e-06 0 -5.23648e-05 1.10466e-08 5.15137e-09
617 5 0.001 -0.00224283 0 -0.0348514 6.7025e-06 0 -5.38015e-05 1.56771e-08 5.23055e-09
767 6 0.001 0.00223157 0 -0.0348568 -7.56644e-06 0 -4.86086e-06 7.70815e-08 6.62227e-09
766 6 0.001 0.00227666 0 -0.0354913 3.43501e-06 0 -4.00442e-06 6.93347e-08 6.59788e-09
765 6 0.001 0.00231647 0 -0.0361261 1.38747e-05 0 -3.13823e-06 6.1644e-08 6.57391e-09
917 7 0.001 0.00658121 0 -0.0349022 7.17306e-07 0 -9.73747e-06 1.52593e-07 3.20491e-09
916 7 0.001 0.00669783 0 -0.035528 -6.12092e-06 0 -1.01318e-05 1.55921e-07 3.20071e-09
915 7 0.001 0.00680665 0 -0.0361551 -1.22358e-05 0 -1.0249e-05 1.58604e-07 3.1963e-09
1067 8 0.001 0.0110762 0 -0.0349793 -2.04654e-08 0 3.00444e-07 2.34181e-07 2.59051e-09
1066 8 0.001 0.0112474 0 -0.0355925 1.19143e-07 0 3.03472e-07 2.49762e-07 2.61355e-09
1065 8 0.001 0.0114088 0 -0.0362084 2.78221e-07 0 3.29273e-07 2.64933e-07 2.63607e-09
1215 9 0.001 0.0164186 0 -0.0362068 1.86158e-06 0 -1.23804e-07 2.6248e-07 2.64815e-09
1216 9 0.001 0.0162584 0 -0.0355906 1.76547e-06 0 -1.12492e-07 2.47763e-07 2.62701e-09
1217 9 0.001 0.0160886 0 -0.034977 1.41843e-06 0 -1.35429e-07 2.32631e-07 2.60533e-09
1365 10 0.001 0.0214127 0 -0.0362077 -1.08525e-07 0 7.56581e-07 2.63971e-07 2.62533e-09
1366 10 0.001 0.0212518 0 -0.0355917 -7.34039e-07 0 6.68822e-07 2.49034e-07 2.60269e-09
1367 10 0.001 0.0210812 0 -0.0349783 -1.32027e-06 0 5.9036e-07 2.33671e-07 2.57946e-09
18 1 0.001 -0.0196031 0 -0.0347653 -6.45512e-06 0 5.49433e-05 2.33148e-07 1.92308e-08
19 1 0.001 -0.0192937 0 -0.0342107 -6.31978e-06 0 5.64694e-05 1.63097e-07 1.88378e-08
20 1 0.001 -0.0189773 0 -0.0336601 -4.37006e-06 0 5.66356e-05 1.04837e-07 1.84931e-08
168 2 0.001 -0.0148956 0 -0.0346567 3.85919e-05 0 -5.11384e-05 1.16024e-07 2.11341e-08
169 2 0.001 -0.0146242 0 -0.0340827 3.87155e-05 0 -5.38274e-05 6.82315e-08 2.10157e-08
170 2 0.001 -0.0143481 0 -0.0335109 3.61547e-05 0 -5.49601e-05 3.3181e-08 2.09555e-08
318 3 0.001 -0.0106222 0 -0.034447 -4.46767e-05 0 3.08344e-05 1.91313e-08 2.07077e-08
319 3 0.001 -0.0104355 0 -0.0338401 -4.65443e-05 0 3.20619e-05 6.87449e-09 2.06135e-08
468 4 0.001 -0.00651979 0 -0.0342747 5.97457e-05 0 1.45216e-05 1.05883e-09 8.66719e-09
469 4 0.001 -0.00642965 0 -0.0336452 5.17306e-05 0 1.65552e-05 3.18777e-09 8.63336e-09
618 5 0.001 -0.00222944 0 -0.0342153 1.87578e-05 0 -5.50774e-05 2.10706e-08 5.3134e-09
619 5 0.001 -0.00221895 0 -0.0335791 2.9799e-05 0 -5.58491e-05 2.7219e-08 5.39969e-09
768 6 0.001 0.00218092 0 -0.0342227 -1.81667e-05 0 -5.90388e-06 8.47361e-08 6.6466e-09
769 6 0.001 0.00212444 0 -0.0335891 -2.79261e-05 0 -7.14727e-06 9.21411e-08 6.67055e-09
918 7 0.001 0.00645687 0 -0.0342779 7.93082e-06 0 -9.1657e-06 1.487e-07 3.20907e-09
919 7 0.001 0.00632493 0 -0.0336552 1.49302e-05 0 -8.50583e-06 1.44324e-07 3.21338e-09
1068 8 0.001 0.0108958 0 -0.0343687 -1.02836e-07 0 2.82056e-07 2.18303e-07 2.56711e-09
1069 8 0.001 0.0107063 0 -0.0337609 -1.39503e-07 0 2.62039e-07 2.02242e-07 2.54357e-09
1219 9 0.001 0.0157213 0 -0.0337578 1.41955e-07 0 -3.77568e-07 2.01548e-07 2.5609e-09
1218 9 0.001 0.0159094 0 -0.0343661 8.60784e-07 0 -2.25371e-07 2.17191e-07 2.58324e-09
1368 10 0.001 0.0209012 0 -0.0343676 -1.82149e-06 0 5.16368e-07 2.17991e-07 2.55578e-09
1369 10 0.001 0.0207123 0 -0.0337596 -2.20624e-06 0 4.65505e-07 2.02105e-07 2.53183e-09
21 1 0.001 -0.0186554 0 -0.0331126 -1.51082e-06 0 5.56736e-05 5.93251e-08 1.81996e-08
22 1 0.001 -0.0183294 0 -0.0325675 2.89958e-06 0 5.34002e-05 2.72619e-08 1.79598e-08
23 1 0.001 -0.0180009 0 -0.0320239 8.49745e-06 0 4.99849e-05 9.10147e-09 1.77749e-08
171 2 0.001 -0.0140691 0 -0.0329406 3.06013e-05 0 -5.42192e-05 1.18639e-08 2.0957e-08
172 2 0.001 -0.0137885 0 -0.032371 2.16607e-05 0 -5.11627e-05 4.98566e-09 2.10225e-08
320 3 0.001 -0.0102476 0 -0.0332336 -4.31912e-05 0 3.17952e-05 2.66172e-09 2.05512e-08
321 3 0.001 -0.0100596 0 -0.0326271 -3.45769e-05 0 2.9795e-05 6.38748e-09 2.052e-08
322 3 0.001 -0.00987284 0 -0.0320202 -2.15374e-05 0 2.6463e-05 1.78187e-08 2.05188e-08
470 4 0.001 -0.00634044 0 -0.0330156 3.9216e-05 0 1.92338e-05 8.39894e-09 8.60643e-09
471 4 0.001 -0.00625293 0 -0.0323858 2.27522e-05 0 2.19469e-05 1.67034e-08 8.58685e-09
620 5 0.001 -0.00221176 0 -0.0329429 3.96536e-05 0 -5.6148e-05 3.41216e-08 5.48901e-09
621 5 0.001 -0.00220826 0 -0.0323067 4.73232e-05 0 -5.58167e-05 4.17793e-08 5.58086e-09
770 6 0.001 0.00206189 0 -0.0329561 -3.59254e-05 0 -8.34898e-06 9.91378e-08 6.69377e-09
771 6 0.001 0.00199305 0 -0.0323237 -4.19985e-05 0 -9.2147e-06 1.05575e-07 6.71564e-09
920 7 0.001 0.00618554 0 -0.0330341 2.11485e-05 0 -7.95458e-06 1.39546e-07 3.21803e-09
921 7 0.001 0.00603883 0 -0.0324146 2.5979e-05 0 -7.53784e-06 1.34443e-07 3.22318e-09
1070 8 0.001 0.0105083 0 -0.0331558 -1.42411e-07 0 2.97791e-07 1.86115e-07 2.52002e-09
1071 8 0.001 0.010302 0 -0.0325535 -8.6265e-08 0 3.42278e-07 1.70039e-07 2.49662e-09
1072 8 0.001 0.0100879 0 -0.0319539 1.42887e-09 0 3.71392e-07 1.54128e-07 2.47356e-09
1220 9 0.001 0.0155246 0 -0.0331523 -6.67621e-07 0 -5.50675e-07 1.85811e-07 2.53845e-09
1222 9 0.001 0.0151069 0 -0.0319495 -2.20582e-06 0 -8.68934e-07 1.54479e-07 2.49376e-09
1221 9 0.001 0.0153197 0 -0.0325496 -1.47287e-06 0 -7.3287e-07 1.70085e-07 2.51602e-09
1372 10 0.001 0.0200955 0 -0.0319521 -2.61237e-06 0 5.77978e-07 1.54349e-07 2.45993e-09
1371 10 0.001 0.0203091 0 -0.0325519 -2.59805e-06 0 5.06209e-07 1.70169e-07 2.48373e-09
1370 10 0.001 0.0205148 0 -0.0331544 -2.46351e-06 0 4.80044e-07 1.86126e-07 2.50776e-09
24 1 0.001 -0.0176712 0 -0.031481 1.54139e-05 0 4.55258e-05 5.06486e-09 1.76454e-08
25 1 0.001 -0.0173418 0 -0.0309379 2.25887e-05 0 4.07779e-05 1.51547e-08 1.75708e-08
26 1 0.001 -0.0170142 0 -0.0303937 2.97768e-05 0 3.567e-05 3.91677e-08 1.75507e-08
173 2 0.001 -0.0135079 0 -0.0318014 1.02925e-05 0 -4.69611e-05 1.29215e-08 2.11534e-08
174 2 0.001 -0.013229 0 -0.031231 -3.58355e-06 0 -4.17026e-05 3.56771e-08 2.13509e-08
175 2 0.001 -0.0129532 0 -0.0306591 -1.85202e-05 0 -3.59931e-05 7.28612e-08 2.16143e-08
323 3 0.001 -0.00968844 0 -0.0314126 -6.37288e-06 0 2.22238e-05 3.66274e-08 2.05463e-08
324 3 0.001 -0.0095076 0 -0.0308039 1.0189e-05 0 1.73438e-05 6.24153e-08 2.06021e-08
472 4 0.001 -0.00616791 0 -0.0317556 3.49366e-06 0 2.49277e-05 2.80215e-08 8.57476e-09
473 4 0.001 -0.00608617 0 -0.031125 -1.69945e-05 0 2.80297e-05 4.21738e-08 8.56954e-09
474 4 0.001 -0.00600847 0 -0.0304938 -3.58015e-05 0 3.04998e-05 5.88837e-08 8.57042e-09
622 5 0.001 -0.00220885 0 -0.0316705 5.1647e-05 0 -5.55058e-05 5.01885e-08 5.67506e-09
624 5 0.001 -0.0022239 0 -0.0303982 4.93192e-05 0 -5.40352e-05 6.91704e-08 5.86984e-09
623 5 0.001 -0.00221393 0 -0.0310343 5.21508e-05 0 -5.49392e-05 5.93319e-08 5.77153e-09
772 6 0.001 0.00191772 0 -0.0316921 -4.53305e-05 0 -9.81458e-06 1.11318e-07 6.73555e-09
774 6 0.001 0.00174696 0 -0.0304315 -4.56735e-05 0 -9.05753e-06 1.20295e-07 6.76649e-09
773 6 0.001 0.00183574 0 -0.0310613 -4.66034e-05 0 -9.60635e-06 1.16253e-07 6.75274e-09
922 7 0.001 0.00588496 0 -0.031797 2.99047e-05 0 -7.4159e-06 1.29081e-07 3.22898e-09
924 7 0.001 0.00555641 0 -0.030567 3.6454e-05 0 -7.12022e-06 1.17808e-07 3.24309e-09
923 7 0.001 0.0057241 0 -0.0311811 3.33898e-05 0 -7.2971e-06 1.23518e-07 3.23561e-09
1074 8 0.001 0.0096379 0 -0.0307628 4.27649e-08 0 3.60351e-07 1.23254e-07 2.42913e-09
1073 8 0.001 0.0098664 0 -0.031357 5.52069e-08 0 3.83457e-07 1.38496e-07 2.45101e-09
1223 9 0.001 0.0148867 0 -0.0313521 -2.8091e-06 0 -9.5001e-07 1.39099e-07 2.47177e-09
1224 9 0.001 0.0146595 0 -0.0307573 -3.20308e-06 0 -9.81947e-07 1.24055e-07 2.45022e-09
1373 10 0.001 0.0198745 0 -0.031355 -2.52891e-06 0 7.01634e-07 1.38783e-07 2.43651e-09
1374 10 0.001 0.0196465 0 -0.0307605 -2.33235e-06 0 8.46168e-07 1.23582e-07 2.41362e-09
27 1 0.001 -0.0166898 0 -0.0298477 3.58012e-05 0 3.08534e-05 7.67004e-08 1.75845e-08
28 1 0.001 -0.01637 0 -0.0292989 4.02707e-05 0 2.6563e-05 1.2715e-07 1.7671e-08
176 2 0.001 -0.0126822 0 -0.030085 -3.28116e-05 0 -3.06353e-05 1.23679e-07 2.1941e-08
177 2 0.001 -0.0124175 0 -0.0295079 -4.53027e-05 0 -2.58844e-05 1.86947e-07 2.23263e-08
178 2 0.001 -0.0121606 0 -0.0289274 -5.52105e-05 0 -2.20923e-05 2.61127e-07 2.27632e-08
325 3 0.001 -0.00933147 0 -0.0301939 2.63793e-05 0 1.30563e-05 9.47264e-08 2.06844e-08
326 3 0.001 -0.00916122 0 -0.0295821 3.9406e-05 0 1.00689e-05 1.33045e-07 2.07911e-08
327 3 0.001 -0.00899798 0 -0.0289685 4.78216e-05 0 7.9283e-06 1.76779e-07 2.09208e-08
475 4 0.001 -0.00593558 0 -0.0298621 -5.18716e-05 0 3.21368e-05 7.77903e-08 8.57671e-09
476 4 0.001 -0.00586823 0 -0.0292298 -6.27332e-05 0 3.31225e-05 9.84735e-08 8.58725e-09
626 5 0.001 -0.00226002 0 -0.0291264 3.54591e-05 0 -5.03907e-05 9.06354e-08 6.06792e-09
625 5 0.001 -0.00223913 0 -0.0297622 4.34877e-05 0 -5.24402e-05 7.96374e-08 5.96904e-09
776 6 0.001 0.00154864 0 -0.0291749 -3.76836e-05 0 -6.66183e-06 1.25504e-07 6.78295e-09
775 6 0.001 0.00165129 0 -0.0298026 -4.26741e-05 0 -8.20935e-06 1.23388e-07 6.77665e-09
926 7 0.001 0.00520129 0 -0.0293445 3.82677e-05 0 -7.82086e-06 1.06125e-07 3.26068e-09
925 7 0.001 0.00538207 0 -0.0299548 3.83346e-05 0 -7.23895e-06 1.11998e-07 3.25144e-09
1075 8 0.001 0.00940282 0 -0.0301711 -5.43605e-08 0 3.1947e-07 1.08508e-07 2.40805e-09
1077 8 0.001 0.00891471 0 -0.0289949 -4.16431e-07 0 1.23525e-07 8.09079e-08 2.36884e-09
1076 8 0.001 0.00916161 0 -0.0295818 -2.15908e-07 0 2.38154e-07 9.43604e-08 2.38791e-09
1227 9 0.001 0.01394 0 -0.028988 -2.86294e-06 0 -3.93979e-07 8.19907e-08 2.38957e-09
1226 9 0.001 0.0141857 0 -0.0295754 -3.25903e-06 0 -7.30347e-07 9.5396e-08 2.40899e-09
1225 9 0.001 0.0144257 0 -0.0301651 -3.36661e-06 0 -9.13741e-07 1.09452e-07 2.42925e-09
1375 10 0.001 0.0194119 0 -0.0301686 -2.05196e-06 0 1.00259e-06 1.08858e-07 2.39144e-09
1376 10 0.001 0.0191712 0 -0.0295792 -1.73478e-06 0 1.1781e-06 9.47165e-08 2.37012e-09
1377 10 0.001 0.0189248 0 -0.0289921 -1.38726e-06 0 1.37784e-06 8.12604e-08 2.3498e-09
29 1 0.001 -0.0160564 0 -0.0287466 4.24878e-05 0 2.3324e-05 1.89708e-07 1.78087e-08
30 1 0.001 -0.0157503 0 -0.02819 4.22154e-05 0 2.12178e-05 2.6335e-07 1.79951e-08
31 1 0.001 -0.0154532 0 -0.0276287 3.95623e-05 0 2.05508e-05 3.46827e-07 1.82264e-08
179 2 0.001 -0.011913 0 -0.0283428 -6.05022e-05 0 -1.99688e-05 3.4439e-07 2.32434e-08
180 2 0.001 -0.0116763 0 -0.0277538 -6.07811e-05 0 -1.96077e-05 4.34686e-07 2.37571e-08
328 3 0.001 -0.00884286 0 -0.0283528 5.18642e-05 0 6.72492e-06 2.25243e-07 2.10723e-08
329 3 0.001 -0.00869696 0 -0.0277349 4.967e-05 0 7.52484e-06 2.77631e-07 2.12425e-08
477 4 0.001 -0.00580713 0 -0.0285968 -6.74332e-05 0 3.30949e-05 1.20485e-07 8.60081e-09
478 4 0.001 -0.00575296 0 -0.0279633 -6.57994e-05 0 3.25506e-05 1.43383e-07 8.6162e-09
479 4 0.001 -0.00570637 0 -0.0273291 -5.95683e-05 0 3.15338e-05 1.66754e-07 8.63231e-09
628 5 0.001 -0.00232028 0 -0.0278555 1.75616e-05 0 -4.62997e-05 1.1369e-07 6.26138e-09
627 5 0.001 -0.00228695 0 -0.0284908 2.63957e-05 0 -4.83218e-05 1.02037e-07 6.16557e-09
777 6 0.001 0.00143897 0 -0.0285483 -3.04729e-05 0 -4.41345e-06 1.26648e-07 6.78505e-09
779 6 0.001 0.00119852 0 -0.0272991 -1.29294e-05 0 9.81182e-07 1.26184e-07 6.77687e-09
778 6 0.001 0.00132226 0 -0.027923 -2.19631e-05 0 -1.78926e-06 1.26856e-07 6.78293e-09
927 7 0.001 0.00501423 0 -0.0287361 3.62434e-05 0 -9.05898e-06 1.00214e-07 3.27083e-09
929 7 0.001 0.00462211 0 -0.0275249 2.55863e-05 0 -1.3825e-05 8.83177e-08 3.29395e-09
928 7 0.001 0.00482111 0 -0.0281295 3.21297e-05 0 -1.10793e-05 9.42785e-08 3.28194e-09
1080 8 0.001 0.00814428 0 -0.0272471 -8.45459e-07 0 -1.40563e-07 4.56094e-08 2.3192e-09
1078 8 0.001 0.00866255 0 -0.0284103 -6.30834e-07 0 -1.32581e-08 6.82421e-08 2.35096e-09
1079 8 0.001 0.00840559 0 -0.0278278 -7.93948e-07 0 -1.09267e-07 5.64491e-08 2.33439e-09
1228 9 0.001 0.013689 0 -0.0284029 -2.17827e-06 0 4.53123e-08 6.93353e-08 2.37113e-09
1229 9 0.001 0.0134332 0 -0.0278199 -1.336e-06 0 5.56729e-07 5.75241e-08 2.3538e-09
1379 10 0.001 0.0184166 0 -0.0278245 -6.49374e-07 0 1.68297e-06 5.67803e-08 2.31274e-09
1378 10 0.001 0.0186731 0 -0.0284073 -1.01632e-06 0 1.52901e-06 6.85852e-08 2.33063e-09
32 1 0.001 -0.0151665 0 -0.0270619 3.4646e-05 0 2.06416e-05 4.38663e-07 1.84981e-08
33 1 0.001 -0.0148917 0 -0.0264894 2.81932e-05 0 2.09289e-05 5.3716e-07 1.8805e-08
34 1 0.001 -0.0146303 0 -0.0259106 2.11423e-05 0 2.1389e-05 6.40426e-07 1.91408e-08
181 2 0.001 -0.0114519 0 -0.0271601 -5.71866e-05 0 -2.02354e-05 5.29826e-07 2.42941e-08
182 2 0.001 -0.0112412 0 -0.0265613 -4.9735e-05 0 -2.22922e-05 6.27552e-07 2.48441e-08
183 2 0.001 -0.0110455 0 -0.0259575 -3.93251e-05 0 -2.46181e-05 7.25607e-07 2.53966e-08
330 3 0.001 -0.00856133 0 -0.0271146 4.17643e-05 0 9.42284e-06 3.32998e-07 2.14275e-08
331 3 0.001 -0.00843702 0 -0.026492 2.90237e-05 0 1.21069e-05 3.90246e-07 2.16227e-08
332 3 0.001 -0.008325 0 -0.0258671 1.32222e-05 0 1.52048e-05 4.4814e-07 2.18223e-08
481 4 0.001 -0.00563827 0 -0.0260592 -3.58853e-05 0 2.89745e-05 2.13517e-07 8.66391e-09
480 4 0.001 -0.00566795 0 -0.0266944 -4.90528e-05 0 3.02532e-05 1.90235e-07 8.6484e-09
631 5 0.001 -0.00246215 0 -0.0259525 -6.66671e-06 0 -3.87554e-05 1.48395e-07 6.52837e-09
629 5 0.001 -0.00236037 0 -0.0272206 9.50167e-06 0 -4.39868e-05 1.25424e-07 6.35449e-09
630 5 0.001 -0.00240755 0 -0.0265863 1.41435e-06 0 -4.15179e-05 1.37057e-07 6.44387e-09
781 6 0.001 0.000930105 0 -0.0260556 4.35309e-06 0 6.09151e-06 1.2251e-07 6.75544e-09
780 6 0.001 0.00106778 0 -0.0266766 -3.84099e-06 0 3.49697e-06 1.24708e-07 6.76754e-09
931 7 0.001 0.00420735 0 -0.0263213 7.97099e-06 0 -2.13714e-05 7.628e-08 3.32034e-09
930 7 0.001 0.00441746 0 -0.0269221 1.72546e-05 0 -1.7363e-05 8.23227e-08 3.30676e-09
1082 8 0.001 0.00761044 0 -0.026091 -5.14594e-07 0 -5.06402e-08 2.70801e-08 2.29333e-09
1081 8 0.001 0.00787908 0 -0.0266683 -7.43427e-07 0 -1.32159e-07 3.57972e-08 2.30548e-09
1232 9 0.001 0.0126411 0 -0.0260818 1.12899e-06 0 2.11002e-06 2.79883e-08 2.3096e-09
1230 9 0.001 0.0131729 0 -0.0272388 -4.29896e-07 0 1.1188e-06 4.66446e-08 2.3377e-09
1231 9 0.001 0.0129088 0 -0.0266595 4.25094e-07 0 1.64698e-06 3.6776e-08 2.32294e-09
1380 10 0.001 0.0181557 0 -0.0272437 -3.01383e-07 0 1.846e-06 4.59279e-08 2.29622e-09
1381 10 0.001 0.0178909 0 -0.0266647 3.12226e-08 0 1.99755e-06 3.61026e-08 2.28118e-09
1382 10 0.001 0.0176227 0 -0.0260872 3.03108e-07 0 2.11691e-06 2.73708e-08 2.26768e-09
35 1 0.001 -0.0143835 0 -0.0253255 1.44677e-05 0 2.14521e-05 7.46408e-07 1.94976e-08
36 1 0.001 -0.0141528 0 -0.0247338 9.15359e-06 0 2.08919e-05 8.52949e-07 1.98668e-08
184 2 0.001 -0.0108661 0 -0.0253487 -2.62912e-05 0 -2.73206e-05 8.21787e-07 2.5941e-08
185 2 0.001 -0.0107043 0 -0.0247351 -1.25177e-05 0 -2.9998e-05 9.13993e-07 2.6468e-08
333 3 0.001 -0.00822622 0 -0.0252399 -4.2172e-06 0 1.76466e-05 5.05327e-07 2.20206e-08
334 3 0.001 -0.00814154 0 -0.0246107 -2.1846e-05 0 1.99775e-05 5.60386e-07 2.22106e-08
482 4 0.001 -0.00561787 0 -0.0254236 -2.15069e-05 0 2.74895e-05 2.36348e-07 8.67873e-09
483 4 0.001 -0.00560722 0 -0.0247878 -6.96987e-06 0 2.60021e-05 2.58525e-07 8.69314e-09
632 5 0.001 -0.00252445 0 -0.0253194 -1.43088e-05 0 -3.59225e-05 1.59241e-07 6.60689e-09
633 5 0.001 -0.00259472 0 -0.0246872 -2.18754e-05 0 -3.29129e-05 1.69393e-07 6.67842e-09
783 6 0.001 0.00063428 0 -0.0248183 1.92117e-05 0 1.20843e-05 1.16298e-07 6.72306e-09
782 6 0.001 0.000785573 0 -0.0254362 1.20141e-05 0 8.86988e-06 1.19677e-07 6.74066e-09
934 7 0.001 0.00354658 0 -0.0245297 -1.91193e-05 0 -3.33935e-05 5.77875e-08 3.36471e-09
932 7 0.001 0.00399202 0 -0.0257223 -1.67403e-06 0 -2.56168e-05 7.01773e-08 3.33462e-09
933 7 0.001 0.00377168 0 -0.0251251 -1.07833e-05 0 -2.96979e-05 6.40105e-08 3.34947e-09
1085 8 0.001 0.00678853 0 -0.0243668 4.68933e-07 0 4.04771e-07 8.05988e-09 2.26684e-09
1083 8 0.001 0.00733883 0 -0.0255152 -2.00305e-07 0 8.75424e-08 1.95183e-08 2.28281e-09
1084 8 0.001 0.0070647 0 -0.0249405 1.46424e-07 0 2.51597e-07 1.31638e-08 2.27396e-09
1233 9 0.001 0.0123704 0 -0.0255055 1.60094e-06 0 2.4599e-06 2.03416e-08 2.29778e-09
1235 9 0.001 0.0118218 0 -0.0243563 1.6195e-06 0 2.67266e-06 8.66098e-09 2.27892e-09
1234 9 0.001 0.0120971 0 -0.0249304 1.76457e-06 0 2.64386e-06 1.38858e-08 2.28753e-09
1385 10 0.001 0.0168019 0 -0.0243624 5.53553e-07 0 2.11496e-06 8.27171e-09 2.23719e-09
1384 10 0.001 0.0170777 0 -0.0249363 5.73243e-07 0 2.17729e-06 1.34105e-08 2.24562e-09
1383 10 0.001 0.0173515 0 -0.0255111 4.91033e-07 0 2.17433e-06 1.97904e-08 2.2558e-09
37 1 0.001 -0.0139395 0 -0.0241357 5.76856e-06 0 1.9464e-05 9.5785e-07 2.02393e-08
38 1 0.001 -0.0137447 0 -0.0235314 5.04086e-06 0 1.69012e-05 1.05894e-06 2.06062e-08