ITEM: TIMESTEP
1000000
ITEM: NUMBER OF ATOMS
1500
ITEM: BOX BOUNDS ff ff ff
-2.5000000000000001e-02 2.5000000000000001e-02
-5.0000000000000001e-03 5.0000000000000001e-03
-5.0000000000000003e-02 5.0000000000000003e-02
ITEM: ATOMS id type radius x y z fx fy fz c_bendingE c_stretchingE
1 1 0.001 -0.0225 0 -0.0456 -0.0980428 0 -3.8e-09 3.24479e-07 1.59293e-34
151 2 0.001 -0.0175 0 -0.0456 -0.105408 0 -3.8e-09 3.75078e-07 1.59293e-34
301 3 0.001 -0.0125 0 -0.0456 -0.0486126 0 -3.8e-09 7.9758e-08 1.59293e-34
451 4 0.001 -0.0075 0 -0.0456 -0.0426369 0 -3.8e-09 6.1354e-08 1.59293e-34
601 5 0.001 -0.0025 0 -0.0456 -0.0147521 0 -3.8e-09 7.34448e-09 1.59293e-34
751 6 0.001 0.0025 0 -0.0456 0.0177349 0 -3.8e-09 1.06148e-08 1.59293e-34
901 7 0.001 0.0075 0 -0.0456 0.0593577 0 -3.8e-09 1.18917e-07 1.59293e-34
1051 8 0.001 0.0125 0 -0.0456 0.0592615 0 -3.8e-09 1.18532e-07 1.59293e-34
1201 9 0.001 0.0175 0 -0.0456 0.0532436 0 -3.8e-09 9.56789e-08 1.59293e-34
1351 10 0.001 0.0225 0 -0.0456 0.0538409 0 -3.8e-09 9.78381e-08 1.59293e-34
2 1 0.001 -0.0225 0 -0.0449624 0.0971316 0 -0.0167467 6.5153e-07 1.16695e-08
3 1 0.001 -0.0224802 0 -0.0443279 3.40481e-06 0 2.0572e-06 9.77665e-07 2.33415e-08
152 2 0.001 -0.0175 0 -0.0449624 0.108205 0 -0.0161692 7.2688e-07 1.07149e-08
153 2 0.001 -0.0174787 0 -0.0443279 -1.59639e-05 0 -4.47018e-06 1.05282e-06 2.12822e-08
302 3 0.001 -0.0125 0 -0.0449624 0.0486853 0 -0.012984 1.58625e-07 6.99495e-09
303 3 0.001 -0.0124902 0 -0.0443271 1.0146e-06 0 7.35251e-06 2.35961e-07 1.39758e-08
452 4 0.001 -0.0075 0 -0.0449624 0.0445039 0 -0.0129438 1.1699e-07 6.92616e-09
453 4 0.001 -0.0074914 0 -0.044327 7.04001e-06 0 3.89752e-06 1.6674e-07 1.38186e-08
602 5 0.001 -0.0025 0 -0.0449624 0.0172465 0 -0.0116207 1.23766e-08 5.59403e-09
603 5 0.001 -0.00249702 0 -0.0443268 -1.54487e-05 0 8.2651e-06 1.55131e-08 1.11706e-08
752 6 0.001 0.0025 0 -0.0449624 -0.0161757 0 -0.00860239 2.31107e-08 3.07792e-09
753 6 0.001 0.00249642 0 -0.0443263 2.3747e-06 0 5.80495e-06 3.75709e-08 6.15819e-09
902 7 0.001 0.0075 0 -0.0449624 -0.0615651 0 -0.000400047 2.29126e-07 5.33068e-12
903 7 0.001 0.00748798 0 -0.044325 1.50532e-05 0 -2.93914e-06 3.30991e-07 9.62375e-12
1052 8 0.001 0.0125 0 -0.0449624 -0.059548 0 -0.00577312 2.3549e-07 1.38039e-09
1053 8 0.001 0.012488 0 -0.0443259 7.73329e-07 0 1.90363e-07 3.50464e-07 2.75668e-09
1202 9 0.001 0.0175 0 -0.0449624 -0.0533254 0 -0.0056951 1.9072e-07 1.34528e-09
1203 9 0.001 0.0174892 0 -0.0443259 2.19734e-06 0 6.13713e-07 2.84791e-07 2.68851e-09
1352 10 0.001 0.0225 0 -0.0449624 -0.0539021 0 -0.00572558 1.951e-07 1.35987e-09
1353 10 0.001 0.0224891 0 -0.0443259 6.62299e-07 0 1.20877e-07 2.91437e-07 2.71801e-09
4 1 0.001 -0.0224406 0 -0.0436944 1.13323e-05 0 4.13638e-06 9.74891e-07 2.33192e-08
5 1 0.001 -0.0223813 0 -0.0430623 2.24844e-05 0 5.80427e-06 9.6163e-07 2.32426e-08
6 1 0.001 -0.0223024 0 -0.0424325 3.72124e-05 0 6.18686e-06 9.37977e-07 2.31118e-08
154 2 0.001 -0.0174369 0 -0.0436943 -4.25698e-05 0 -9.48606e-06 9.75914e-07 2.0984e-08
155 2 0.001 -0.0173754 0 -0.0430623 -7.71646e-05 0 -1.26767e-05 8.9338e-07 2.06855e-08
156 2 0.001 -0.0172949 0 -0.0424325 -0.000116004 0 -1.34338e-05 8.07396e-07 2.03968e-08
304 3 0.001 -0.0124706 0 -0.0436919 3.21412e-06 0 1.44682e-05 2.31386e-07 1.39366e-08
305 3 0.001 -0.0124414 0 -0.0430572 5.58425e-06 0 2.12269e-05 2.24962e-07 1.3876e-08
454 4 0.001 -0.0074746 0 -0.0436918 1.94149e-05 0 7.81563e-06 1.4915e-07 1.37458e-08
455 4 0.001 -0.00745006 0 -0.0430568 3.39496e-05 0 1.12706e-05 1.31269e-07 1.36629e-08
604 5 0.001 -0.00249158 0 -0.0436911 -4.00848e-05 0 1.63294e-05 9.85765e-09 1.11303e-08
605 5 0.001 -0.00248419 0 -0.0430555 -6.97414e-05 0 2.40862e-05 5.52502e-09 1.10796e-08
754 6 0.001 0.00248895 0 -0.0436902 6.00052e-06 0 1.08086e-05 4.34489e-08 6.15962e-09
755 6 0.001 0.00247729 0 -0.0430541 9.55911e-06 0 1.56206e-05 4.95319e-08 6.15463e-09
904 7 0.001 0.0074644 0 -0.0436879 4.14081e-05 0 -4.71781e-06 3.06051e-07 7.7844e-12
905 7 0.001 0.0074297 0 -0.0430513 7.46885e-05 0 -5.66636e-06 2.82487e-07 6.39671e-12
1054 8 0.001 0.0124641 0 -0.0436897 2.10561e-06 0 2.94404e-07 3.44533e-07 2.74758e-09
1055 8 0.001 0.0124285 0 -0.0430541 3.73143e-06 0 4.55166e-07 3.37434e-07 2.73672e-09
1204 9 0.001 0.0174677 0 -0.0436896 5.70657e-06 0 1.22435e-06 2.81902e-07 2.68348e-09
1205 9 0.001 0.0174356 0 -0.0430538 9.69068e-06 0 1.96951e-06 2.78081e-07 2.67668e-09
1354 10 0.001 0.0224674 0 -0.0436896 1.81241e-06 0 2.05853e-07 2.88676e-07 2.71377e-09
1355 10 0.001 0.0224348 0 -0.0430538 3.08266e-06 0 4.14368e-07 2.84909e-07 2.70797e-09
7 1 0.001 -0.0222042 0 -0.0418053 5.45268e-05 0 5.42457e-06 9.04212e-07 2.29284e-08
8 1 0.001 -0.0220872 0 -0.0411813 7.27046e-05 0 3.94784e-06 8.60823e-07 2.26943e-08
157 2 0.001 -0.0171967 0 -0.0418051 -0.000155458 0 -1.22096e-05 7.20126e-07 2.01269e-08
158 2 0.001 -0.0170817 0 -0.0411806 -0.000195046 0 -1.06684e-05 6.33606e-07 1.98858e-08
306 3 0.001 -0.0124027 0 -0.0424229 1.0367e-05 0 2.71445e-05 2.16776e-07 1.37955e-08
307 3 0.001 -0.0123546 0 -0.0417893 1.9137e-05 0 3.2493e-05 2.06927e-07 1.36964e-08
308 3 0.001 -0.0122975 0 -0.0411564 3.26178e-05 0 3.77192e-05 1.95517e-07 1.35786e-08
456 4 0.001 -0.00741826 0 -0.0424222 4.73832e-05 0 1.52116e-05 1.13333e-07 1.35702e-08
457 4 0.001 -0.00737971 0 -0.0417879 5.83391e-05 0 1.86489e-05 9.5608e-08 1.34681e-08
458 4 0.001 -0.00733499 0 -0.041154 6.62192e-05 0 2.21188e-05 7.84016e-08 1.33585e-08
606 5 0.001 -0.00247537 0 -0.0424199 -0.000100101 0 3.24258e-05 2.53943e-09 1.10188e-08
607 5 0.001 -0.00246564 0 -0.0417843 -0.000127869 0 4.08068e-05 8.51754e-10 1.09472e-08
608 5 0.001 -0.00245547 0 -0.0411487 -0.000149358 0 4.90705e-05 3.42033e-10 1.08645e-08
756 6 0.001 0.00246118 0 -0.0424182 9.0239e-06 0 2.02261e-05 5.57698e-08 6.1434e-09
758 6 0.001 0.00241447 0 -0.0411467 -4.34143e-06 0 2.74151e-05 6.84339e-08 6.10378e-09
757 6 0.001 0.00244032 0 -0.0417824 3.97645e-06 0 2.41265e-05 6.20989e-08 6.12629e-09
906 7 0.001 0.00738434 0 -0.0424154 0.000110012 0 -6.58602e-06 2.60577e-07 5.43512e-12
907 7 0.001 0.00732875 0 -0.0417803 0.000142452 0 -7.66164e-06 2.40568e-07 4.88516e-12
908 7 0.001 0.00726335 0 -0.0411461 0.000167748 0 -9.08788e-06 2.2263e-07 4.73152e-12
1056 8 0.001 0.0123811 0 -0.0424192 5.32335e-06 0 6.6435e-07 3.29239e-07 2.72424e-09
1057 8 0.001 0.0123223 0 -0.0417853 6.63218e-06 0 8.51086e-07 3.20025e-07 2.71028e-09
1058 8 0.001 0.0122522 0 -0.0411525 7.42243e-06 0 1.10241e-06 3.09874e-07 2.69496e-09
1206 9 0.001 0.0173928 0 -0.0424186 1.33724e-05 0 2.70913e-06 2.73394e-07 2.66828e-09
1207 9 0.001 0.0173396 0 -0.0417841 1.61208e-05 0 3.27759e-06 2.67912e-07 2.65853e-09
1208 9 0.001 0.017276 0 -0.0411507 1.73807e-05 0 3.72903e-06 2.61699e-07 2.64765e-09
1356 10 0.001 0.0223916 0 -0.0424186 4.18776e-06 0 6.24287e-07 2.80175e-07 2.70066e-09
1357 10 0.001 0.0223378 0 -0.0417843 4.94867e-06 0 7.38183e-07 2.74521e-07 2.69197e-09
1358 10 0.001 0.0222734 0 -0.0411509 5.41366e-06 0 8.5084e-07 2.67997e-07 2.68202e-09
9 1 0.001 -0.021952 0 -0.040561 8.9638e-05 0 3.01704e-06 8.08537e-07 2.24111e-08
10 1 0.001 -0.0217992 0 -0.0399448 0.000102865 0 2.65046e-06 7.48353e-07 2.20817e-08
159 2 0.001 -0.016951 0 -0.0405592 -0.000230341 0 -8.79211e-06 5.49637e-07 1.96828e-08
160 2 0.001 -0.0168059 0 -0.039941 -0.000257842 0 -7.10415e-06 4.69718e-07 1.95232e-08
309 3 0.001 -0.0122315 0 -0.0405244 5.15727e-05 0 4.23733e-05 1.82646e-07 1.34418e-08
310 3 0.001 -0.0121569 0 -0.0398933 7.48343e-05 0 4.5062e-05 1.68415e-07 1.32873e-08
459 4 0.001 -0.00728467 0 -0.0405205 6.78664e-05 0 2.55523e-05 6.20591e-08 1.32431e-08
460 4 0.001 -0.00722939 0 -0.0398874 6.37834e-05 0 2.96752e-05 4.69535e-08 1.31235e-08
609 5 0.001 -0.00244535 0 -0.0405131 -0.000161577 0 5.64619e-05 8.35216e-10 1.07708e-08
610 5 0.001 -0.00243571 0 -0.0398775 -0.000163584 0 6.31086e-05 2.12533e-09 1.06666e-08
760 6 0.001 0.00234677 0 -0.0398762 -3.42535e-05 0 3.48921e-05 8.0648e-08 6.04013e-09
759 6 0.001 0.00238336 0 -0.0405113 -1.67457e-05 0 3.09813e-05 7.46636e-08 6.07551e-09
909 7 0.001 0.00718853 0 -0.040513 0.000183924 0 -1.04121e-05 2.06837e-07 4.95864e-12
910 7 0.001 0.00710465 0 -0.039881 0.000189311 0 -1.2507e-05 1.93161e-07 5.56937e-12
1059 8 0.001 0.012171 0 -0.0405211 7.59508e-06 0 1.257e-06 2.98868e-07 2.67841e-09
1060 8 0.001 0.0120788 0 -0.0398912 7.19608e-06 0 1.29918e-06 2.87087e-07 2.66077e-09
1209 9 0.001 0.0172022 0 -0.0405183 1.68984e-05 0 3.99072e-06 2.54807e-07 2.63577e-09
1210 9 0.001 0.0171184 0 -0.0398872 1.46239e-05 0 3.93887e-06 2.47276e-07 2.62297e-09
1359 10 0.001 0.0221987 0 -0.0405187 5.57248e-06 0 8.74519e-07 2.60654e-07 2.67093e-09
1360 10 0.001 0.0221139 0 -0.0398877 5.39479e-06 0 8.03657e-07 2.52546e-07 2.65883e-09
11 1 0.001 -0.0216296 0 -0.039333 0.000109949 0 3.51182e-06 6.81563e-07 2.17119e-08
12 1 0.001 -0.021444 0 -0.0387258 0.000110148 0 6.25979e-06 6.09737e-07 2.13097e-08
13 1 0.001 -0.0212436 0 -0.0381234 0.000102589 0 1.07115e-05 5.34695e-07 2.08853e-08
161 2 0.001 -0.0166474 0 -0.039326 -0.000273567 0 -8.08471e-06 3.9499e-07 1.94107e-08
162 2 0.001 -0.0164768 0 -0.0387143 -0.0002766 0 -1.26018e-05 3.26234e-07 1.93483e-08
163 2 0.001 -0.0162953 0 -0.0381058 -0.000267343 0 -1.94345e-05 2.63909e-07 1.93349e-08
311 3 0.001 -0.0120742 0 -0.0392632 0.000101613 0 4.60501e-05 1.52941e-07 1.31174e-08
312 3 0.001 -0.0119837 0 -0.0386342 0.000131386 0 4.56175e-05 1.36374e-07 1.29339e-08
313 3 0.001 -0.0118859 0 -0.0380062 0.000160242 0 4.438e-05 1.18925e-07 1.27387e-08
461 4 0.001 -0.0071698 0 -0.0392547 5.45302e-05 0 3.42035e-05 3.34663e-08 1.30013e-08
462 4 0.001 -0.0071066 0 -0.0386224 4.09858e-05 0 3.94276e-05 2.19603e-08 1.28778e-08
463 4 0.001 -0.0070405 0 -0.0379903 2.50967e-05 0 4.51386e-05 1.27514e-08 1.27538e-08
611 5 0.001 -0.00242694 0 -0.0392418 -0.000151838 0 6.93254e-05 4.00443e-09 1.0552e-08
612 5 0.001 -0.00241943 0 -0.0386062 -0.000127929 0 7.47923e-05 6.28998e-09 1.04274e-08
613 5 0.001 -0.0024135 0 -0.0379705 -9.13372e-05 0 7.87761e-05 8.84788e-09 1.02944e-08
763 6 0.001 0.0022021 0 -0.0379732 -9.52899e-05 0 4.52832e-05 9.5351e-08 5.87988e-09
762 6 0.001 0.00225632 0 -0.0386071 -7.44939e-05 0 4.28946e-05 9.11852e-08 5.9424e-09
761 6 0.001 0.00230449 0 -0.0392414 -5.40415e-05 0 3.93487e-05 8.62183e-08 5.996e-09
913 7 0.001 0.00680164 0 -0.0379926 0.000145526 0 -2.77826e-05 1.63289e-07 1.02325e-11
912 7 0.001 0.00691093 0 -0.0386207 0.000169358 0 -2.10519e-05 1.71611e-07 8.13391e-12
911 7 0.001 0.00701202 0 -0.0392502 0.000184239 0 -1.5964e-05 1.81484e-07 6.60513e-12
1061 8 0.001 0.011976 0 -0.0392629 6.30111e-06 0 1.2947e-06 2.7461e-07 2.64217e-09
1062 8 0.001 0.0118629 0 -0.0386364 5.16067e-06 0 1.31671e-06 2.61519e-07 2.62266e-09
1063 8 0.001 0.0117396 0 -0.0380118 4.03592e-06 0 1.34683e-06 2.47893e-07 2.6023e-09
1211 9 0.001 0.0170246 0 -0.0392575 1.07116e-05 0 3.61558e-06 2.39135e-07 2.60928e-09
1212 9 0.001 0.0169211 0 -0.0386293 5.60501e-06 0 3.09888e-06 2.304e-07 2.59465e-09
1213 9 0.001 0.0168081 0 -0.0380028 -1.5174e-07 0 2.28977e-06 2.21084e-07 2.57904e-09
1363 10 0.001 0.0218 0 -0.0380039 2.18116e-06 0 4.47742e-07 2.24193e-07 2.61697e-09
1362 10 0.001 0.0219143 0 -0.0386302 3.63297e-06 0 7.10332e-07 2.34259e-07 2.6318e-09
1361 10 0.001 0.022019 0 -0.0392582 4.72753e-06 0 7.68843e-07 2.43729e-07 2.64579e-09
14 1 0.001 -0.0210293 0 -0.0375257 8.72851e-05 0 1.80812e-05 4.5843e-07 2.04499e-08
15 1 0.001 -0.0208022 0 -0.0369327 6.56684e-05 0 2.91215e-05 3.83019e-07 2.00128e-08
164 2 0.001 -0.0161039 0 -0.0375002 -0.000248455 0 -2.84162e-05 2.08228e-07 1.9367e-08
165 2 0.001 -0.0159039 0 -0.0368975 -0.000220481 0 -3.99113e-05 1.59244e-07 1.94404e-08
314 3 0.001 -0.0117812 0 -0.0373794 0.000186642 0 4.28608e-05 1.00884e-07 1.25335e-08
315 3 0.001 -0.0116703 0 -0.0367536 0.000207044 0 4.22045e-05 8.26498e-08 1.23199e-08
464 4 0.001 -0.00697221 0 -0.0373584 8.92711e-06 0 5.06446e-05 6.08559e-09 1.26306e-08
465 4 0.001 -0.00690249 0 -0.0367267 -7.3397e-06 0 5.5937e-05 2.12394e-09 1.25094e-08
614 5 0.001 -0.00240944 0 -0.0373347 -4.73916e-05 0 8.34303e-05 1.16048e-08 1.01539e-08
615 5 0.001 -0.00240755 0 -0.036699 3.06037e-06 0 8.77242e-05 1.45533e-08 1.0006e-08
765 6 0.001 0.00207499 0 -0.0367072 -0.000129045 0 4.96764e-05 1.00535e-07 5.72797e-09
764 6 0.001 0.00214168 0 -0.0373399 -0.000114646 0 4.78129e-05 9.85236e-08 5.80837e-09
915 7 0.001 0.00655927 0 -0.0367409 7.62544e-05 0 -4.58591e-05 1.50076e-07 1.64014e-11
914 7 0.001 0.00668436 0 -0.037366 0.0001138 0 -3.62028e-05 1.5622e-07 1.29726e-11
1064 8 0.001 0.0116066 0 -0.0373892 3.12768e-06 0 1.41171e-06 2.3382e-07 2.5812e-09
1065 8 0.001 0.011464 0 -0.0367687 2.5381e-06 0 1.55637e-06 2.19391e-07 2.55947e-09
1214 9 0.001 0.0166858 0 -0.037378 -5.97131e-06 0 1.34274e-06 2.11199e-07 2.56248e-09
1215 9 0.001 0.0165545 0 -0.036755 -1.12508e-05 0 4.0986e-07 2.00768e-07 2.54493e-09
1364 10 0.001 0.0216764 0 -0.0373793 4.94267e-07 0 9.77666e-08 2.1359e-07 2.60143e-09
1365 10 0.001 0.0215437 0 -0.0367567 -1.34486e-06 0 -2.96009e-07 2.0251e-07 2.58525e-09
16 1 0.001 -0.0205636 0 -0.0363442 3.99971e-05 0 4.22597e-05 3.10515e-07 1.95832e-08
17 1 0.001 -0.0203147 0 -0.0357599 1.27086e-05 0 5.60487e-05 2.42829e-07 1.9171e-08
18 1 0.001 -0.0200568 0 -0.0351796 -1.35636e-05 0 7.00522e-05 1.81633e-07 1.8784e-08
166 2 0.001 -0.0156963 0 -0.0362973 -0.000186207 0 -5.41337e-05 1.16919e-07 1.95524e-08
167 2 0.001 -0.0154824 0 -0.0356994 -0.000146197 0 -7.03584e-05 8.11906e-08 1.97008e-08
168 2 0.001 -0.0152632 0 -0.0351035 -0.000105701 0 -8.66465e-05 5.20232e-08 1.98828e-08
316 3 0.001 -0.0115536 0 -0.0361288 0.000220033 0 4.14701e-05 6.47328e-08 1.2101e-08
317 3 0.001 -0.011432 0 -0.035505 0.000223606 0 4.12715e-05 4.77501e-08 1.18815e-08
318 3 0.001 -0.0113061 0 -0.034882 0.000215644 0 4.3154e-05 3.24017e-08 1.16655e-08
466 4 0.001 -0.00683208 0 -0.0360951 -2.25675e-05 0 6.12339e-05 9.35361e-10 1.23905e-08
467 4 0.001 -0.00676173 0 -0.0354634 -3.53748e-05 0 6.60146e-05 2.49808e-09 1.2274e-08
616 5 0.001 -0.00240807 0 -0.0360632 5.42661e-05 0 9.17435e-05 1.77465e-08 9.85226e-09
617 5 0.001 -0.00241125 0 -0.0354274 9.99157e-05 0 9.57069e-05 2.12871e-08 9.69418e-09
767 6 0.001 0.00192255 0 -0.035444 -0.000134161 0 5.51444e-05 1.00681e-07 5.54316e-09
766 6 0.001 0.00200195 0 -0.0360752 -0.000135189 0 5.17005e-05 1.0127e-07 5.63954e-09
918 7 0.001 0.00613889 0 -0.0348752 -3.9493e-05 0 -7.70535e-05 1.33805e-07 3.0747e-11
917 7 0.001 0.00628638 0 -0.0354954 -2.40882e-06 0 -6.65044e-05 1.39192e-07 2.53149e-11
916 7 0.001 0.00642656 0 -0.0361173 3.65956e-05 0 -5.59861e-05 1.44512e-07 2.0522e-11
1068 8 0.001 0.0109828 0 -0.0349204 2.48273e-06 0 2.2792e-06 1.74963e-07 2.49224e-09
1067 8 0.001 0.0111518 0 -0.0355343 2.37244e-06 0 1.89976e-06 1.8986e-07 2.51486e-09
1066 8 0.001 0.0113123 0 -0.0361503 2.32021e-06 0 1.68323e-06 2.04704e-07 2.5373e-09
1216 9 0.001 0.0164143 0 -0.036134 -1.55282e-05 0 -5.04783e-07 1.89825e-07 2.52646e-09
1217 9 0.001 0.0162656 0 -0.0355149 -1.84926e-05 0 -1.27331e-06 1.7842e-07 2.50721e-09
1218 9 0.001 0.0161087 0 -0.0348979 -1.97676e-05 0 -1.55517e-06 1.66625e-07 2.48727e-09
1366 10 0.001 0.0214022 0 -0.0361359 -3.06312e-06 0 -6.61205e-07 1.91019e-07 2.5685e-09
1367 10 0.001 0.0212521 0 -0.0355172 -4.5523e-06 0 -1.03368e-06 1.79186e-07 2.55127e-09
1368 10 0.001 0.0210937 0 -0.0349006 -5.74882e-06 0 -1.31349e-06 1.67088e-07 2.53364e-09
19 1 0.001 -0.0197912 0 -0.0346027 -3.82275e-05 0 8.39269e-05 1.28292e-07 1.84277e-08
20 1 0.001 -0.0195191 0 -0.0340288 -5.90007e-05 0 9.60706e-05 8.3824e-08 1.81058e-08
21 1 0.001 -0.0192419 0 -0.0334573 -7.40631e-05 0 0.000105355 4.88929e-08 1.78208e-08
169 2 0.001 -0.0150398 0 -0.0345091 -6.69979e-05 0 -0.000102106 2.94441e-08 2.00966e-08
170 2 0.001 -0.0148132 0 -0.0339158 -3.03895e-05 0 -0.000114889 1.35595e-08 2.03389e-08
319 3 0.001 -0.0111767 0 -0.0342596 0.000197015 0 4.68106e-05 1.9429e-08 1.14566e-08
320 3 0.001 -0.0110446 0 -0.0336379 0.000167876 0 5.24501e-05 9.55783e-09 1.12582e-08
468 4 0.001 -0.00669218 0 -0.0348317 -4.66433e-05 0 7.09235e-05 6.70581e-09 1.21592e-08
469 4 0.001 -0.00662416 0 -0.0341997 -5.54743e-05 0 7.49651e-05 1.33786e-08 1.20459e-08
470 4 0.001 -0.00655838 0 -0.0335676 -6.13861e-05 0 7.83353e-05 2.2277e-08 1.19338e-08
618 5 0.001 -0.00241735 0 -0.0347917 0.000135881 0 9.93134e-05 2.53093e-08 9.53329e-09
619 5 0.001 -0.00242663 0 -0.0341559 0.000160168 0 0.000102494 2.99596e-08 9.3713e-09
620 5 0.001 -0.00243937 0 -0.0335202 0.000171631 0 0.000104698 3.53796e-08 9.21013e-09
768 6 0.001 0.00183682 0 -0.0348135 -0.000122942 0 6.03094e-05 9.88055e-08 5.43856e-09
770 6 0.001 0.00164667 0 -0.0335553 -6.97974e-05 0 7.4657e-05 9.17745e-08 5.20835e-09
769 6 0.001 0.00174482 0 -0.034184 -0.000100316 0 6.69345e-05 9.57681e-08 5.32647e-09
920 7 0.001 0.00582263 0 -0.0336402 -9.64856e-05 0 -9.53021e-05 1.21811e-07 4.33309e-11
919 7 0.001 0.00598425 0 -0.0342568 -7.2045e-05 0 -8.71814e-05 1.28081e-07 3.67752e-11
1070 8 0.001 0.0106209 0 -0.0336996 2.42591e-06 0 2.54058e-06 1.4543e-07 2.44718e-09
1069 8 0.001 0.0108057 0 -0.0343089 2.54327e-06 0 2.49428e-06 1.60119e-07 2.46959e-09
1220 9 0.001 0.0157714 0 -0.03367 -1.74336e-05 0 -9.43305e-07 1.42235e-07 2.44582e-09
1219 9 0.001 0.0159438 0 -0.0342829 -1.93985e-05 0 -1.47321e-06 1.54528e-07 2.46674e-09
1369 10 0.001 0.0209274 0 -0.034286 -6.55827e-06 0 -1.5798e-06 1.54804e-07 2.51575e-09
1370 10 0.001 0.0207535 0 -0.0336735 -6.91353e-06 0 -1.73685e-06 1.42423e-07 2.49775e-09
22 1 0.001 -0.0189608 0 -0.0328878 -8.22144e-05 0 0.000111157 2.38227e-08 1.75734e-08
23 1 0.001 -0.0186772 0 -0.0323194 -8.46377e-05 0 0.00011455 8.6392e-09 1.73624e-08
171 2 0.001 -0.0145848 0 -0.0333234 2.28566e-06 0 -0.000125607 4.54628e-09 2.06072e-08
172 2 0.001 -0.0143554 0 -0.0327313 2.89865e-05 0 -0.000134238 2.6288e-09 2.09021e-08
173 2 0.001 -0.0141263 0 -0.0321391 4.73583e-05 0 -0.000138528 8.04371e-09 2.12244e-08
321 3 0.001 -0.0109108 0 -0.0330165 0.000130795 0 6.0077e-05 3.43222e-09 1.10729e-08
322 3 0.001 -0.010776 0 -0.0323952 8.96898e-05 0 6.74827e-05 1.55209e-09 1.09033e-08
471 4 0.001 -0.00649553 0 -0.0329351 -6.45738e-05 0 8.13587e-05 3.31174e-08 1.18223e-08
472 4 0.001 -0.00643628 0 -0.0323022 -6.5721e-05 0 8.3466e-05 4.55877e-08 1.1711e-08
622 5 0.001 -0.00247644 0 -0.0322491 0.000158393 0 0.000106937 4.89706e-08 8.89622e-09
621 5 0.001 -0.00245587 0 -0.0328846 0.0001716 0 0.000106383 4.16898e-08 9.05137e-09
772 6 0.001 0.00143247 0 -0.0323009 3.7707e-07 0 9.1477e-05 8.19774e-08 4.96081e-09
771 6 0.001 0.00154249 0 -0.0329276 -3.51441e-05 0 8.29103e-05 8.70846e-08 5.08593e-09
922 7 0.001 0.00547924 0 -0.0324124 -0.000120057 0 -0.000103586 1.07196e-07 5.75461e-11
921 7 0.001 0.00565422 0 -0.0330253 -0.0001128 0 -0.000100944 1.14864e-07 5.02991e-11
1071 8 0.001 0.0104288 0 -0.0330926 1.98146e-06 0 2.51439e-06 1.30997e-07 2.42518e-09
1073 8 0.001 0.0100242 0 -0.0318852 3.13939e-07 0 2.25903e-06 1.03271e-07 2.38278e-09
1072 8 0.001 0.0102298 0 -0.0324878 1.20775e-06 0 2.42574e-06 1.16913e-07 2.40368e-09
1223 9 0.001 0.0152116 0 -0.0318439 -5.43036e-06 0 2.27767e-06 1.054e-07 2.38337e-09
1222 9 0.001 0.0154049 0 -0.0324506 -9.99417e-06 0 9.84479e-07 1.17545e-07 2.40387e-09
1221 9 0.001 0.0155916 0 -0.0330593 -1.41581e-05 0 -8.8912e-08 1.29865e-07 2.42476e-09
1373 10 0.001 0.0201894 0 -0.0318488 -5.36464e-06 0 -1.45925e-06 1.05628e-07 2.44452e-09
1372 10 0.001 0.0203841 0 -0.032455 -6.25093e-06 0 -1.66898e-06 1.17739e-07 2.46198e-09
1371 10 0.001 0.0205723 0 -0.0330632 -6.80242e-06 0 -1.75296e-06 1.30037e-07 2.47978e-09
24 1 0.001 -0.0183922 0 -0.0317518 -7.92839e-05 0 0.0001147 3.12561e-09 1.71845e-08
25 1 0.001 -0.0181071 0 -0.0311841 -6.73379e-05 0 0.000110457 6.88536e-09 1.70376e-08
26 1 0.001 -0.0178232 0 -0.0306159 -5.01665e-05 0 0.000102944 1.94035e-08 1.69205e-08
174 2 0.001 -0.0138986 0 -0.0315465 5.83783e-05 0 -0.000138892 2.09908e-08 2.15731e-08
175 2 0.001 -0.0136735 0 -0.0309528 6.20079e-05 0 -0.000135458 4.15761e-08 2.19476e-08
176 2 0.001 -0.013452 0 -0.0303578 5.84984e-05 0 -0.000128395 6.97536e-08 2.23463e-08
323 3 0.001 -0.0106413 0 -0.031774 4.938e-05 0 7.36896e-05 4.22613e-09 1.07524e-08
324 3 0.001 -0.0105076 0 -0.0311525 1.27087e-05 0 7.85922e-05 1.15507e-08 1.06215e-08
325 3 0.001 -0.0103759 0 -0.0305306 -1.71653e-05 0 8.08787e-05 2.34178e-08 1.05112e-08
473 4 0.001 -0.00638128 0 -0.031669 -6.67897e-05 0 8.44997e-05 5.93577e-08 1.16004e-08
474 4 0.001 -0.00633114 0 -0.0310354 -6.92471e-05 0 8.54757e-05 7.40833e-08 1.14904e-08
475 4 0.001 -0.00628644 0 -0.0304013 -7.32652e-05 0 8.62986e-05 8.94068e-08 1.13803e-08
625 5 0.001 -0.00256617 0 -0.0303436 5.77378e-05 0 0.000104201 7.64404e-08 8.45482e-09
624 5 0.001 -0.00253123 0 -0.0309785 9.87829e-05 0 0.000106199 6.64502e-08 8.59804e-09
623 5 0.001 -0.00250144 0 -0.0316137 0.000133889 0 0.000107119 5.72437e-08 8.74516e-09
775 6 0.001 0.00106922 0 -0.0304269 9.42989e-05 0 0.000114864 6.66992e-08 4.58265e-09
774 6 0.001 0.00119564 0 -0.0310505 6.81075e-05 0 0.00010833 7.15665e-08 4.70792e-09
773 6 0.001 0.00131679 0 -0.0316752 3.63995e-05 0 0.000100209 7.67245e-08 4.8344e-09
925 7 0.001 0.00491744 0 -0.0305845 -8.40022e-05 0 -9.36421e-05 8.0707e-08 8.04345e-11
923 7 0.001 0.00529793 0 -0.0318013 -0.000117207 0 -0.000103337 9.88512e-08 6.4991e-11
924 7 0.001 0.00511056 0 -0.031192 -0.00010469 0 -9.99466e-05 8.99569e-08 7.26172e-11
1075 8 0.001 0.00959527 0 -0.0306862 -1.13184e-06 0 1.86995e-06 7.76565e-08 2.3434e-09
1074 8 0.001 0.00981258 0 -0.0312847 -5.0759e-07 0 1.9878e-06 9.01573e-08 2.36265e-09
1225 9 0.001 0.0148068 0 -0.0306366 3.31708e-06 0 4.63334e-06 8.21216e-08 2.34453e-09
1224 9 0.001 0.0150121 0 -0.0312393 -8.43529e-07 0 3.56623e-06 9.35549e-08 2.3635e-09
1375 10 0.001 0.0197818 0 -0.0306424 -2.7115e-06 0 -8.62118e-07 8.23525e-08 2.41127e-09
1374 10 0.001 0.0199885 0 -0.0312446 -4.16224e-06 0 -1.16764e-06 9.38006e-08 2.42755e-09
27 1 0.001 -0.0175415 0 -0.0300465 -2.87093e-05 0 9.37417e-05 4.01027e-08 1.68309e-08
28 1 0.001 -0.0172634 0 -0.0294754 -5.03752e-06 0 8.38793e-05 6.83844e-08 1.67655e-08
29 1 0.001 -0.0169899 0 -0.0289021 1.92406e-05 0 7.35156e-05 1.03653e-07 1.67224e-08
177 2 0.001 -0.0132355 0 -0.029761 4.87813e-05 0 -0.00011745 1.05273e-07 2.27658e-08
178 2 0.001 -0.013025 0 -0.0291621 3.73099e-05 0 -0.000105716 1.47648e-07 2.32019e-08
326 3 0.001 -0.0102471 0 -0.029908 -3.93957e-05 0 8.04594e-05 3.95454e-08 1.04219e-08
327 3 0.001 -0.0101222 0 -0.0292847 -5.47703e-05 0 7.79646e-05 5.9519e-08 1.03533e-08
476 4 0.001 -0.00624771 0 -0.0297668 -8.02417e-05 0 8.72633e-05 1.04955e-07 1.12689e-08
477 4 0.001 -0.00621548 0 -0.029132 -8.76194e-05 0 8.8211e-05 1.20343e-07 1.11548e-08
627 5 0.001 -0.00265302 0 -0.0290747 -2.59485e-05 0 9.83179e-05 9.7737e-08 8.17686e-09
626 5 0.001 -0.00260664 0 -0.0297089 1.50189e-05 0 0.000101751 8.69741e-08 8.31472e-09
777 6 0.001 0.000801323 0 -0.0291827 0.000120023 0 0.00011956 5.83294e-08 4.34258e-09
776 6 0.001 0.000937718 0 -0.0298043 0.000112604 0 0.00011845 6.2261e-08 4.46045e-09
927 7 0.001 0.00451521 0 -0.0293748 -2.73707e-05 0 -7.48746e-05 6.21017e-08 9.685e-11
926 7 0.001 0.00471887 0 -0.0299788 -5.70303e-05 0 -8.49296e-05 7.13386e-08 8.84884e-11
1078 8 0.001 0.00891357 0 -0.0289019 -2.04131e-08 0 2.24817e-06 4.46432e-08 2.29198e-09
1077 8 0.001 0.00914532 0 -0.029495 -1.04023e-06 0 1.99093e-06 5.4821e-08 2.30788e-09
1076 8 0.001 0.0093727 0 -0.0300897 -1.37429e-06 0 1.90994e-06 6.58511e-08 2.32509e-09
1228 9 0.001 0.0141599 0 -0.0288394 1.00722e-05 0 5.8328e-06 5.12287e-08 2.29504e-09
1227 9 0.001 0.0143803 0 -0.0294367 8.94492e-06 0 5.76555e-06 6.08798e-08 2.31019e-09
1226 9 0.001 0.0145961 0 -0.0300358 6.67142e-06 0 5.39131e-06 7.12012e-08 2.32671e-09
1376 10 0.001 0.0195696 0 -0.0300422 -1.12503e-06 0 -5.11487e-07 7.13756e-08 2.39585e-09
1378 10 0.001 0.0191304 0 -0.0288469 2.47248e-06 0 4.07157e-07 5.11777e-08 2.36811e-09
1377 10 0.001 0.0193523 0 -0.0294437 6.74161e-07 0 -7.65796e-08 6.0957e-08 2.38142e-09
30 1 0.001 -0.0167222 0 -0.0283261 4.17185e-05 0 6.28752e-05 1.45324e-07 1.67017e-08
31 1 0.001 -0.0164614 0 -0.0277468 6.20046e-05 0 5.25159e-05 1.92819e-07 1.67045e-08
179 2 0.001 -0.0128217 0 -0.0285608 2.46404e-05 0 -9.4161e-05 1.96147e-07 2.36519e-08
180 2 0.001 -0.0126269 0 -0.0279566 1.25748e-05 0 -8.26621e-05 2.49811e-07 2.41115e-08
181 2 0.001 -0.0124416 0 -0.0273495 2.72801e-06 0 -7.13315e-05 3.0748e-07 2.45736e-08
328 3 0.001 -0.010002 0 -0.0286605 -6.26845e-05 0 7.3432e-05 8.28376e-08 1.03043e-08
329 3 0.001 -0.00988739 0 -0.0280351 -6.34074e-05 0 6.7576e-05 1.08958e-07 1.02732e-08
330 3 0.001 -0.00977933 0 -0.0274086 -5.71405e-05 0 5.99577e-05 1.37336e-07 1.02588e-08
478 4 0.001 -0.00619021 0 -0.0284968 -9.43938e-05 0 8.83605e-05 1.35186e-07 1.10372e-08
479 4 0.001 -0.00617231 0 -0.0278614 -9.7776e-05 0 8.79495e-05 1.49119e-07 1.0916e-08
629 5 0.001 -0.00276489 0 -0.0278077 -9.43237e-05 0 9.16683e-05 1.18468e-07 7.90318e-09
628 5 0.001 -0.00270566 0 -0.0284409 -6.2782e-05 0 9.47501e-05 1.08364e-07 8.0403e-09
778 6 0.001 0.000660197 0 -0.0285621 0.000118373 0 0.000118969 5.49241e-08 4.22898e-09
779 6 0.001 0.000514489 0 -0.0279426 0.000108487 0 0.000116582 5.20165e-08 4.11916e-09
780 6 0.001 0.000364328 0 -0.0273242 9.31107e-05 0 0.000112742 4.95452e-08 4.01277e-09
928 7 0.001 0.00430681 0 -0.0287725 2.51866e-06 0 -6.41667e-05 5.32308e-08 1.05587e-10
930 7 0.001 0.00387727 0 -0.0275722 5.56395e-05 0 -4.43459e-05 3.73222e-08 1.24512e-10
929 7 0.001 0.00409404 0 -0.0281716 3.09408e-05 0 -5.36864e-05 4.49224e-08 1.14776e-10
1080 8 0.001 0.00843868 0 -0.0277204 3.24593e-06 0 3.31674e-06 2.71265e-08 2.26459e-09
1079 8 0.001 0.00867787 0 -0.0283105 1.51204e-06 0 2.6829e-06 3.53899e-08 2.27753e-09
1230 9 0.001 0.0137066 0 -0.0276494 9.1602e-06 0 4.46432e-06 3.41564e-08 2.26921e-09
1229 9 0.001 0.0139352 0 -0.0282437 1.01036e-05 0 5.3896e-06 4.23055e-08 2.28134e-09
1380 10 0.001 0.0186743 0 -0.027658 5.17323e-06 0 1.08653e-06 3.38216e-08 2.34516e-09
1379 10 0.001 0.0189043 0 -0.0282517 4.00716e-06 0 7.99548e-07 4.21111e-08 2.35599e-09
32 1 0.001 -0.0162086 0 -0.0271641 7.89655e-05 0 4.47448e-05 2.45549e-07 1.67297e-08
33 1 0.001 -0.0159649 0 -0.0265775 9.30143e-05 0 3.87388e-05 3.02897e-07 1.67748e-08
34 1 0.001 -0.0157314 0 -0.0259867 0.00010194 0 3.46964e-05 3.64195e-07 1.68383e-08
182 2 0.001 -0.0122669 0 -0.0267393 -5.53039e-06 0 -6.03121e-05 3.67836e-07 2.50301e-08
183 2 0.001 -0.0121039 0 -0.0261259 -1.2531e-05 0 -5.0337e-05 4.29445e-07 2.54738e-08
331 3 0.001 -0.00967858 0 -0.0267809 -4.56146e-05 0 5.09157e-05 1.67461e-07 1.02604e-08
332 3 0.001 -0.00958594 0 -0.026152 -3.2895e-05 0 4.08788e-05 1.98865e-07 1.02785e-08
480 4 0.001 -0.00616218 0 -0.0272258 -9.69484e-05 0 8.80319e-05 1.61822e-07 1.07899e-08
481 4 0.001 -0.00616012 0 -0.0265901 -8.96259e-05 0 8.74873e-05 1.73044e-07 1.06582e-08
482 4 0.001 -0.00616643 0 -0.0259544 -7.46157e-05 0 8.67448e-05 1.82629e-07 1.05216e-08
632 5 0.001 -0.00298486 0 -0.0259126 -0.000151024 0 8.24189e-05 1.41996e-07 7.47616e-09
631 5 0.001 -0.00290425 0 -0.0265435 -0.000138809 0 8.56253e-05 1.35606e-07 7.62135e-09
630 5 0.001 -0.002831 0 -0.0271752 -0.000120424 0 8.87404e-05 1.27665e-07 7.76373e-09
782 6 0.001 5.10856e-05 0 -0.0260904 5.17297e-05 0 9.9055e-05 4.55663e-08 3.81154e-09
781 6 0.001 0.000209827 0 -0.0267068 7.33955e-05 0 0.000106655 4.74267e-08 3.91003e-09
932 7 0.001 0.00343319 0 -0.0263774 8.62932e-05 0 -3.2408e-05 2.45478e-08 1.45927e-10
931 7 0.001 0.00365687 0 -0.0269742 7.46071e-05 0 -3.68475e-05 3.05195e-08 1.34864e-10
933 7 0.001 0.00320658 0 -0.0257816 8.94178e-05 0 -3.08523e-05 1.93921e-08 1.57749e-10
1083 8 0.001 0.00770464 0 -0.0259569 8.42355e-06 0 5.25964e-06 8.79107e-09 2.23506e-09
1082 8 0.001 0.00795162 0 -0.0265438 6.82756e-06 0 4.72891e-06 1.37864e-08 2.24327e-09
1081 8 0.001 0.00819645 0 -0.0271315 5.06807e-06 0 4.08059e-06 1.99099e-08 2.25315e-09
1233 9 0.001 0.0130019 0 -0.025874 3.15701e-06 0 6.59377e-07 1.46979e-08 2.24249e-09
1232 9 0.001 0.0132396 0 -0.0264647 5.39478e-06 0 2.0034e-06 2.03233e-08 2.24982e-09
1231 9 0.001 0.0134746 0 -0.0270564 7.48911e-06 0 3.27402e-06 2.68186e-08 2.25872e-09
1381 10 0.001 0.0184409 0 -0.0270656 5.86806e-06 0 1.20806e-06 2.63643e-08 2.33565e-09
1383 10 0.001 0.0179655 0 -0.0258843 5.98352e-06 0 7.34254e-07 1.41218e-08 2.32098e-09
1382 10 0.001 0.0182045 0 -0.0264744 6.14567e-06 0 1.10138e-06 1.97852e-08 2.32756e-09
35 1 0.001 -0.0155092 0 -0.0253916 0.000104526 0 3.27027e-05 4.28692e-07 1.69192e-08
36 1 0.001 -0.0152993 0 -0.0247921 9.99414e-05 0 3.2562e-05 4.95519e-07 1.70165e-08
184 2 0.001 -0.0119537 0 -0.0255093 -1.82552e-05 0 -4.07612e-05 4.90802e-07 2.58971e-08
185 2 0.001 -0.0118171 0 -0.0248895 -2.19081e-05 0 -3.08748e-05 5.50379e-07 2.62902e-08
186 2 0.001 -0.0116952 0 -0.0242667 -2.19275e-05 0 -2.19958e-05 6.06692e-07 2.66437e-08
333 3 0.001 -0.00950216 0 -0.0255218 -1.91321e-05 0 3.15735e-05 2.31127e-07 1.03125e-08
334 3 0.001 -0.00942794 0 -0.0248904 -5.16714e-06 0 2.25754e-05 2.63866e-07 1.03609e-08
335 3 0.001 -0.00936398 0 -0.0242579 5.95254e-06 0 1.36665e-05 2.96723e-07 1.04235e-08
484 4 0.001 -0.00620498 0 -0.0246836 -2.66801e-05 0 8.58795e-05 1.96781e-07 1.02374e-08
483 4 0.001 -0.00618132 0 -0.0253189 -5.33583e-05 0 8.61071e-05 1.90523e-07 1.0381e-08
634 5 0.001 -0.00316873 0 -0.0246539 -0.000153637 0 7.86936e-05 1.49347e-07 7.17697e-09
633 5 0.001 -0.00307298 0 -0.0252827 -0.000155797 0 7.98807e-05 1.46619e-07 7.32817e-09
784 6 0.001 -0.000278763 0 -0.024861 1.11617e-05 0 8.54187e-05 4.22402e-08 3.62619e-09
783 6 0.001 -0.000111806 0 -0.0254752 3.05652e-05 0 9.15101e-05 4.38673e-08 3.71729e-09
935 7 0.001 0.00274589 0 -0.0245931 7.5367e-05 0 -3.57733e-05 1.13061e-08 1.83644e-10
934 7 0.001 0.00297737 0 -0.0251869 8.56099e-05 0 -3.20606e-05 1.50017e-08 1.70321e-10
1085 8 0.001 0.00720604 0 -0.0247851 1.09898e-05 0 5.91968e-06 2.26918e-09 2.22387e-09
1084 8 0.001 0.00745597 0 -0.0253707 9.83747e-06 0 5.66212e-06 4.94779e-09 2.22858e-09
1235 9 0.001 0.0125202 0 -0.0246952 3.28828e-08 0 -1.48007e-06 6.15553e-09 2.23262e-09