ITEM: TIMESTEP
600000
ITEM: NUMBER OF ATOMS
1500
ITEM: BOX BOUNDS ff ff ff
-2.5000000000000001e-02 2.5000000000000001e-02
-5.0000000000000001e-03 5.0000000000000001e-03
-5.0000000000000003e-02 5.0000000000000003e-02
ITEM: ATOMS id type radius x y z fx fy fz c_bendingE c_stretchingE
1 1 0.001 -0.0225 0 -0.04636 -0.0408743 0 -3.8e-09 5.63857e-08 1.59293e-34
2 1 0.001 -0.0225 0 -0.0457224 0.0401054 0 -0.00721237 1.14646e-07 2.16486e-09
151 2 0.001 -0.0175 0 -0.04636 -0.0530086 0 -3.8e-09 9.48361e-08 1.59293e-34
152 2 0.001 -0.0175 0 -0.0457224 0.0524253 0 -0.00978822 1.91172e-07 3.98383e-09
301 3 0.001 -0.0125 0 -0.04636 -0.0625955 0 -3.8e-09 1.32245e-07 1.59293e-34
302 3 0.001 -0.0125 0 -0.0457224 0.0618562 0 -0.0109736 2.66695e-07 5.00995e-09
451 4 0.001 -0.0075 0 -0.04636 -0.0658368 0 -3.8e-09 1.46297e-07 1.59293e-34
452 4 0.001 -0.0075 0 -0.0457224 0.0667785 0 -0.0124999 2.87314e-07 6.46249e-09
601 5 0.001 -0.0025 0 -0.04636 -0.0463112 0 -3.8e-09 7.23847e-08 1.59293e-34
602 5 0.001 -0.0025 0 -0.0457224 0.0467316 0 -0.0151324 1.42781e-07 9.49538e-09
751 6 0.001 0.0025 0 -0.04636 -0.0266218 0 -3.8e-09 2.39184e-08 1.59293e-34
752 6 0.001 0.0025 0 -0.0457224 0.027863 0 -0.0114241 4.55002e-08 5.40701e-09
901 7 0.001 0.0075 0 -0.04636 0.0019809 0 -3.8e-09 1.32426e-10 1.59293e-34
902 7 0.001 0.0075 0 -0.0457224 -0.00151517 0 -0.00887732 3.33345e-10 3.27144e-09
1051 8 0.001 0.0125 0 -0.04636 0.0267208 0 -3.8e-09 2.40967e-08 1.59293e-34
1052 8 0.001 0.0125 0 -0.0457224 -0.0258598 0 -0.00587077 4.96762e-08 1.43412e-09
1201 9 0.001 0.0175 0 -0.04636 0.0367451 0 -3.8e-09 4.55684e-08 1.59293e-34
1202 9 0.001 0.0175 0 -0.0457224 -0.0365549 0 -0.00490008 9.14667e-08 9.97437e-10
1351 10 0.001 0.0225 0 -0.04636 0.0302878 0 -3.8e-09 3.09597e-08 1.59293e-34
1352 10 0.001 0.0225 0 -0.0457224 -0.0293024 0 -0.00517067 6.38591e-08 1.11376e-09
3 1 0.001 -0.0224917 0 -0.0450861 1.145e-05 0 1.26938e-07 1.74508e-07 4.33442e-09
4 1 0.001 -0.0224751 0 -0.0444499 2.96302e-05 0 2.47051e-07 1.79245e-07 4.34245e-09
153 2 0.001 -0.0174893 0 -0.0450865 7.16335e-07 0 -1.35556e-06 2.88413e-07 7.97338e-09
154 2 0.001 -0.0174678 0 -0.044451 2.54839e-06 0 -2.19052e-06 2.91114e-07 7.98309e-09
303 3 0.001 -0.0124874 0 -0.0450868 2.29161e-05 0 -3.80093e-06 4.02326e-07 1.00301e-08
304 3 0.001 -0.012462 0 -0.0444515 5.84783e-05 0 -8.07094e-06 4.05701e-07 1.00474e-08
453 4 0.001 -0.00748671 0 -0.045087 -1.8784e-05 0 -2.32208e-06 4.22137e-07 1.28999e-08
454 4 0.001 -0.00746038 0 -0.0444521 -4.89081e-05 0 -2.96112e-06 4.03774e-07 1.28486e-08
603 5 0.001 -0.00249066 0 -0.0450874 1.45786e-05 0 2.30921e-06 2.10511e-07 1.89736e-08
604 5 0.001 -0.00247211 0 -0.0444526 3.42045e-05 0 4.23517e-06 2.02508e-07 1.89318e-08
753 6 0.001 0.00250537 0 -0.0450867 7.58267e-06 0 -2.66091e-06 6.47057e-08 1.08059e-08
754 6 0.001 0.00251585 0 -0.0444511 1.99763e-05 0 -6.65018e-06 5.75948e-08 1.0793e-08
903 7 0.001 0.0074996 0 -0.0450863 4.92673e-06 0 -2.54797e-06 6.166e-10 6.54502e-09
904 7 0.001 0.00749871 0 -0.0444502 1.38822e-05 0 -4.87193e-06 8.65156e-10 6.55108e-09
1053 8 0.001 0.0124946 0 -0.0450858 -1.18828e-05 0 -2.72679e-06 7.66619e-08 2.87282e-09
1054 8 0.001 0.0124836 0 -0.0444493 -3.09014e-05 0 -5.07046e-06 8.0831e-08 2.88265e-09
1203 9 0.001 0.0174926 0 -0.0450857 -8.35586e-07 0 -3.41e-06 1.37551e-07 1.99675e-09
1204 9 0.001 0.0174777 0 -0.0444491 -2.02778e-06 0 -5.78193e-06 1.38103e-07 2.00117e-09
1353 10 0.001 0.0224939 0 -0.0450857 -8.54951e-06 0 -2.08456e-06 9.86273e-08 2.23222e-09
1354 10 0.001 0.0224814 0 -0.0444491 -2.17492e-05 0 -3.50655e-06 1.0419e-07 2.24189e-09
5 1 0.001 -0.0224499 0 -0.043814 5.03035e-05 0 -2.95806e-07 1.82954e-07 4.34754e-09
6 1 0.001 -0.0224162 0 -0.0431785 6.98432e-05 0 -1.22102e-06 1.85424e-07 4.34923e-09
7 1 0.001 -0.0223738 0 -0.0425436 8.50348e-05 0 -1.80151e-06 1.86465e-07 4.34676e-09
155 2 0.001 -0.0174355 0 -0.0438158 5.46515e-06 0 -3.07293e-06 2.91984e-07 7.98925e-09
156 2 0.001 -0.0173923 0 -0.0431813 8.73048e-06 0 -3.97928e-06 2.90982e-07 7.9916e-09
157 2 0.001 -0.0173383 0 -0.0425477 1.19229e-05 0 -4.91534e-06 2.88086e-07 7.98993e-09
305 3 0.001 -0.0124238 0 -0.0438169 9.701e-05 0 -1.22462e-05 4.055e-07 1.00566e-08
306 3 0.001 -0.0123729 0 -0.0431832 0.000131947 0 -1.77008e-05 4.01265e-07 1.00547e-08
307 3 0.001 -0.0123093 0 -0.0425506 0.000157027 0 -2.34422e-05 3.9266e-07 1.00408e-08
455 4 0.001 -0.00742131 0 -0.0438178 -8.22787e-05 0 1.48811e-07 3.83336e-07 1.27935e-08
456 4 0.001 -0.00736985 0 -0.0431843 -0.000111984 0 3.3466e-06 3.61474e-07 1.27354e-08
457 4 0.001 -0.00730637 0 -0.042552 -0.000134036 0 5.76959e-06 3.38782e-07 1.2678e-08
605 5 0.001 -0.00244453 0 -0.0438181 5.46509e-05 0 8.28741e-06 1.92479e-07 1.88714e-08
606 5 0.001 -0.00240815 0 -0.0431841 6.85954e-05 0 1.24575e-05 1.80491e-07 1.87892e-08
607 5 0.001 -0.00236326 0 -0.0425506 7.28489e-05 0 1.56794e-05 1.66718e-07 1.86874e-08
755 6 0.001 0.00253115 0 -0.0438156 3.29949e-05 0 -9.70098e-06 5.04235e-08 1.07858e-08
756 6 0.001 0.00255095 0 -0.0431803 4.38109e-05 0 -1.25222e-05 4.3264e-08 1.07831e-08
757 6 0.001 0.00257492 0 -0.042545 4.66529e-05 0 -1.45338e-05 3.6217e-08 1.07844e-08
905 7 0.001 0.00749723 0 -0.0438141 2.52393e-05 0 -7.41322e-06 1.16146e-09 6.56091e-09
906 7 0.001 0.00749507 0 -0.043178 3.79501e-05 0 -9.25984e-06 1.51503e-09 6.5742e-09
907 7 0.001 0.00749214 0 -0.0425419 5.05162e-05 0 -1.05443e-05 1.94022e-09 6.59014e-09
1055 8 0.001 0.0124669 0 -0.0438129 -5.28855e-05 0 -7.73783e-06 8.46128e-08 2.89364e-09
1056 8 0.001 0.0124444 0 -0.0431767 -7.38207e-05 0 -1.06414e-05 8.78429e-08 2.90542e-09
1057 8 0.001 0.0124159 0 -0.0425408 -8.99035e-05 0 -1.35225e-05 9.03602e-08 2.91756e-09
1207 9 0.001 0.0173882 0 -0.042541 -6.10454e-06 0 -1.40454e-05 1.3704e-07 2.0235e-09
1206 9 0.001 0.0174255 0 -0.0431767 -4.6976e-06 0 -1.13452e-05 1.37859e-07 2.01445e-09
1205 9 0.001 0.0174553 0 -0.0438127 -3.09029e-06 0 -8.38092e-06 1.3821e-07 2.007e-09
1355 10 0.001 0.0224625 0 -0.0438127 -3.73746e-05 0 -5.37247e-06 1.09402e-07 2.25202e-09
1356 10 0.001 0.0224369 0 -0.0431765 -5.31472e-05 0 -7.74368e-06 1.14117e-07 2.26251e-09
1357 10 0.001 0.0224046 0 -0.0425406 -6.72336e-05 0 -1.02354e-05 1.1818e-07 2.27317e-09
8 1 0.001 -0.0223227 0 -0.0419092 9.33701e-05 0 -1.98706e-06 1.8594e-07 4.33941e-09
9 1 0.001 -0.022263 0 -0.0412757 9.35404e-05 0 -1.66626e-06 1.83792e-07 4.32699e-09
158 2 0.001 -0.0172736 0 -0.041915 1.49011e-05 0 -5.95016e-06 2.83299e-07 7.9842e-09
159 2 0.001 -0.0171983 0 -0.0412835 1.61757e-05 0 -6.45258e-06 2.76656e-07 7.97417e-09
308 3 0.001 -0.0122331 0 -0.0419195 0.000166927 0 -2.74559e-05 3.79566e-07 1.00137e-08
309 3 0.001 -0.0121447 0 -0.0412899 0.000161881 0 -2.97669e-05 3.62142e-07 9.97365e-09
458 4 0.001 -0.00723128 0 -0.0419209 -0.000141654 0 6.71121e-06 3.15721e-07 1.26242e-08
459 4 0.001 -0.00714501 0 -0.0412912 -0.000133886 0 5.99351e-06 2.92579e-07 1.2575e-08
608 5 0.001 -0.00231019 0 -0.0419177 6.91326e-05 0 1.84219e-05 1.51455e-07 1.85703e-08
609 5 0.001 -0.00224935 0 -0.0412855 5.39286e-05 0 2.19392e-05 1.35111e-07 1.84419e-08
758 6 0.001 0.00260269 0 -0.0419099 4.11582e-05 0 -1.61436e-05 2.94169e-08 1.07895e-08
759 6 0.001 0.0026339 0 -0.041275 2.85055e-05 0 -1.82391e-05 2.30253e-08 1.07996e-08
908 7 0.001 0.00748833 0 -0.0419058 6.22112e-05 0 -1.12636e-05 2.45621e-09 6.608e-09
909 7 0.001 0.00748353 0 -0.0412697 7.18452e-05 0 -1.23377e-05 3.08638e-09 6.62772e-09
1058 8 0.001 0.0123814 0 -0.0419051 -9.85976e-05 0 -1.61748e-05 9.20337e-08 2.92971e-09
1059 8 0.001 0.0123408 0 -0.0412698 -9.80748e-05 0 -1.8064e-05 9.27852e-08 2.94156e-09
1209 9 0.001 0.0172914 0 -0.0412712 -8.13183e-06 0 -1.96206e-05 1.3397e-07 2.04635e-09
1208 9 0.001 0.0173435 0 -0.0419058 -7.49676e-06 0 -1.70186e-05 1.35745e-07 2.03415e-09
1358 10 0.001 0.0223653 0 -0.0419051 -7.71633e-05 0 -1.29711e-05 1.21452e-07 2.28383e-09
1359 10 0.001 0.022319 0 -0.0412701 -8.28982e-05 0 -1.53422e-05 1.23821e-07 2.29431e-09
10 1 0.001 -0.0221947 0 -0.040643 8.56619e-05 0 -8.76222e-07 1.80053e-07 4.30995e-09
11 1 0.001 -0.0221179 0 -0.0400112 7.09962e-05 0 1.74364e-06 1.74846e-07 4.28837e-09
160 2 0.001 -0.0171125 0 -0.0406534 1.60673e-05 0 -6.71945e-06 2.68231e-07 7.95963e-09
161 2 0.001 -0.0170163 0 -0.0400248 1.54389e-05 0 -6.52931e-06 2.58136e-07 7.94054e-09
162 2 0.001 -0.0169101 0 -0.0393977 1.45293e-05 0 -7.39712e-06 2.4651e-07 7.91787e-09
310 3 0.001 -0.0120443 0 -0.0406621 0.000143835 0 -3.03433e-05 3.40816e-07 9.92266e-09
311 3 0.001 -0.0119324 0 -0.0400362 0.000115087 0 -2.81242e-05 3.16252e-07 9.86341e-09
312 3 0.001 -0.0118093 0 -0.0394125 7.93615e-05 0 -2.55113e-05 2.89267e-07 9.80023e-09
460 4 0.001 -0.00704801 0 -0.0406631 -0.000113123 0 3.40822e-06 2.6948e-07 1.25297e-08
461 4 0.001 -0.00694072 0 -0.0400367 -8.22744e-05 0 -1.8851e-06 2.46421e-07 1.24876e-08
462 4 0.001 -0.00682364 0 -0.039412 -4.35217e-05 0 -1.00127e-05 2.23325e-07 1.24488e-08
610 5 0.001 -0.00218117 0 -0.0406541 2.93627e-05 0 2.69102e-05 1.1818e-07 1.83049e-08
611 5 0.001 -0.00210614 0 -0.0400234 -1.03951e-06 0 3.29915e-05 1.01205e-07 1.81617e-08
760 6 0.001 0.00266814 0 -0.0406402 1.01426e-05 0 -2.03733e-05 1.72107e-08 1.08168e-08
761 6 0.001 0.00270498 0 -0.0400056 -1.15786e-05 0 -2.1707e-05 1.21273e-08 1.08416e-08
910 7 0.001 0.00747763 0 -0.0406336 7.81534e-05 0 -1.41372e-05 3.85709e-09 6.65022e-09
911 7 0.001 0.00747048 0 -0.0399976 8.00414e-05 0 -1.48547e-05 4.79532e-09 6.67531e-09
1060 8 0.001 0.012294 0 -0.0406349 -8.84907e-05 0 -1.92779e-05 9.26028e-08 2.95293e-09
1061 8 0.001 0.0122412 0 -0.0400005 -7.07867e-05 0 -1.87249e-05 9.15435e-08 2.96353e-09
1211 9 0.001 0.0171653 0 -0.0400039 -5.03983e-06 0 -2.40444e-05 1.29014e-07 2.07534e-09
1210 9 0.001 0.017232 0 -0.0406372 -7.09038e-06 0 -2.2574e-05 1.31721e-07 2.06019e-09
1360 10 0.001 0.0222657 0 -0.0406356 -8.42159e-05 0 -1.74786e-05 1.25213e-07 2.30438e-09
1361 10 0.001 0.0222053 0 -0.0400017 -8.08732e-05 0 -1.78591e-05 1.25597e-07 2.31345e-09
12 1 0.001 -0.0220328 0 -0.0393805 5.14992e-05 0 4.46468e-06 1.68369e-07 4.26282e-09
13 1 0.001 -0.0219396 0 -0.038751 2.9673e-05 0 7.3587e-06 1.60866e-07 4.23481e-09
14 1 0.001 -0.0218383 0 -0.0381227 8.49519e-06 0 1.07728e-05 1.52601e-07 4.20525e-09
163 2 0.001 -0.0167941 0 -0.0387724 1.51441e-05 0 -8.46225e-06 2.33514e-07 7.89291e-09
164 2 0.001 -0.0166685 0 -0.038149 1.85433e-05 0 -8.49686e-06 2.19311e-07 7.86473e-09
313 3 0.001 -0.0116757 0 -0.0387909 3.98391e-05 0 -2.16734e-05 2.60759e-07 9.73843e-09
314 3 0.001 -0.0115321 0 -0.0381716 1.44498e-06 0 -1.72053e-05 2.31618e-07 9.68175e-09
463 4 0.001 -0.00669725 0 -0.0387892 -1.08421e-06 0 -2.01796e-05 2.00101e-07 1.24133e-08
464 4 0.001 -0.00656207 0 -0.0381682 3.98395e-05 0 -3.03891e-05 1.76698e-07 1.238e-08
612 5 0.001 -0.00202478 0 -0.0393935 -3.384e-05 0 4.0073e-05 8.4716e-08 1.80147e-08
613 5 0.001 -0.00193765 0 -0.0387644 -6.23491e-05 0 4.69499e-05 6.91785e-08 1.78658e-08
614 5 0.001 -0.00184532 0 -0.038136 -8.62324e-05 0 5.43027e-05 5.49597e-08 1.77159e-08
762 6 0.001 0.00274401 0 -0.0393711 -3.23887e-05 0 -2.30125e-05 7.89575e-09 1.08739e-08
763 6 0.001 0.00278478 0 -0.0387368 -5.03808e-05 0 -2.42261e-05 4.5908e-09 1.09139e-08
764 6 0.001 0.00282685 0 -0.0381025 -6.36989e-05 0 -2.53441e-05 2.23745e-09 1.09612e-08
912 7 0.001 0.00746196 0 -0.0393615 7.7371e-05 0 -1.61908e-05 5.92564e-09 6.70268e-09
914 7 0.001 0.00744014 0 -0.0380896 6.24623e-05 0 -1.76328e-05 8.82991e-09 6.76409e-09
913 7 0.001 0.0074519 0 -0.0387255 7.1001e-05 0 -1.71654e-05 7.26689e-09 6.7325e-09
1062 8 0.001 0.0121823 0 -0.0393667 -4.69659e-05 0 -1.83114e-05 8.97241e-08 2.97362e-09
1063 8 0.001 0.0121173 0 -0.0387334 -1.92173e-05 0 -1.75527e-05 8.73056e-08 2.98426e-09
1064 8 0.001 0.0120465 0 -0.0381008 9.18536e-06 0 -1.54225e-05 8.44707e-08 2.99564e-09
1212 9 0.001 0.0170914 0 -0.0393715 -1.37132e-06 0 -2.57657e-05 1.25881e-07 2.09151e-09
1214 9 0.001 0.0169225 0 -0.0381092 6.21195e-06 0 -2.91484e-05 1.18498e-07 2.12829e-09
1213 9 0.001 0.0170104 0 -0.0387399 2.76203e-06 0 -2.78637e-05 1.22361e-07 2.10918e-09
1364 10 0.001 0.0219816 0 -0.0381049 -5.48105e-05 0 -1.82397e-05 1.21017e-07 2.334e-09
1362 10 0.001 0.0221378 0 -0.0393686 -7.40588e-05 0 -1.82503e-05 1.24988e-07 2.32116e-09
1363 10 0.001 0.0220632 0 -0.0387363 -6.52916e-05 0 -1.87287e-05 1.23435e-07 2.32798e-09
15 1 0.001 -0.0217293 0 -0.0374957 -9.85558e-06 0 1.31395e-05 1.43825e-07 4.17522e-09
16 1 0.001 -0.0216128 0 -0.0368701 -2.30425e-05 0 1.48022e-05 1.34758e-07 4.14585e-09
165 2 0.001 -0.0165338 0 -0.0375275 2.47319e-05 0 -9.60236e-06 2.04063e-07 7.83276e-09
166 2 0.001 -0.0163902 0 -0.0369079 3.26772e-05 0 -1.16603e-05 1.87931e-07 7.79799e-09
315 3 0.001 -0.011379 0 -0.0375545 -3.17764e-05 0 -1.40381e-05 2.02655e-07 9.63385e-09
316 3 0.001 -0.0112172 0 -0.0369396 -5.69604e-05 0 -1.20435e-05 1.7455e-07 9.59756e-09
465 4 0.001 -0.00641867 0 -0.037549 7.3036e-05 0 -3.86278e-05 1.53171e-07 1.2347e-08
466 4 0.001 -0.00626762 0 -0.0369316 9.99832e-05 0 -4.55024e-05 1.29707e-07 1.23131e-08
615 5 0.001 -0.00174836 0 -0.0375082 -0.000102181 0 6.00702e-05 4.23095e-08 1.75657e-08
616 5 0.001 -0.00164735 0 -0.0368812 -0.000108576 0 6.53988e-05 3.13671e-08 1.74153e-08
765 6 0.001 0.0028698 0 -0.0374683 -6.96134e-05 0 -2.68892e-05 8.16543e-10 1.10153e-08
766 6 0.001 0.00291321 0 -0.0368341 -6.98356e-05 0 -2.8864e-05 2.76003e-10 1.10761e-08
915 7 0.001 0.0074265 0 -0.0374536 5.39956e-05 0 -1.933e-05 1.06171e-08 6.79793e-09
916 7 0.001 0.0074108 0 -0.0368177 4.66647e-05 0 -2.10321e-05 1.26232e-08 6.83493e-09
1065 8 0.001 0.0119699 0 -0.0374688 3.57573e-05 0 -1.38199e-05 8.14031e-08 3.00805e-09
1066 8 0.001 0.0118876 0 -0.0368376 5.80839e-05 0 -1.25943e-05 7.82672e-08 3.02233e-09
1216 9 0.001 0.0167263 0 -0.036851 9.35434e-06 0 -3.18051e-05 1.09906e-07 2.16999e-09
1215 9 0.001 0.0168277 0 -0.0374796 8.53902e-06 0 -3.05935e-05 1.14335e-07 2.14859e-09
1366 10 0.001 0.0217977 0 -0.0368448 -3.20718e-05 0 -1.74669e-05 1.13992e-07 2.34473e-09
1365 10 0.001 0.0218931 0 -0.0374743 -4.33617e-05 0 -1.82087e-05 1.17833e-07 2.33948e-09
17 1 0.001 -0.0214891 0 -0.0362458 -2.97585e-05 0 1.58952e-05 1.25567e-07 4.11729e-09
18 1 0.001 -0.0213584 0 -0.0356229 -3.01123e-05 0 1.56131e-05 1.16369e-07 4.08955e-09
19 1 0.001 -0.021221 0 -0.0350015 -2.49249e-05 0 1.40945e-05 1.07227e-07 4.06282e-09
167 2 0.001 -0.0162381 0 -0.0362904 4.122e-05 0 -1.39455e-05 1.71081e-07 7.76101e-09
168 2 0.001 -0.0160779 0 -0.0356749 5.0189e-05 0 -1.61625e-05 1.53695e-07 7.72191e-09
169 2 0.001 -0.0159102 0 -0.0350614 5.78106e-05 0 -1.76438e-05 1.35982e-07 7.68049e-09
317 3 0.001 -0.0110474 0 -0.0363269 -7.47691e-05 0 -1.1756e-05 1.47833e-07 9.57443e-09
318 3 0.001 -0.0108701 0 -0.0357163 -8.29181e-05 0 -1.40367e-05 1.22886e-07 9.56574e-09
319 3 0.001 -0.0106861 0 -0.0351077 -8.35532e-05 0 -1.80194e-05 9.99674e-08 9.57174e-09
467 4 0.001 -0.00610958 0 -0.036316 0.000115843 0 -5.05923e-05 1.06643e-07 1.22792e-08
468 4 0.001 -0.0059452 0 -0.0357021 0.000119785 0 -5.18439e-05 8.44477e-08 1.22469e-08
469 4 0.001 -0.00577521 0 -0.0350897 0.000113909 0 -4.89394e-05 6.36982e-08 1.22157e-08
617 5 0.001 -0.00154288 0 -0.0362546 -0.000100542 0 6.90282e-05 2.21716e-08 1.72628e-08
618 5 0.001 -0.00143549 0 -0.0356286 -7.9078e-05 0 7.15561e-05 1.46885e-08 1.71054e-08
619 5 0.001 -0.00132575 0 -0.0350029 -4.90333e-05 0 7.16552e-05 8.84539e-09 1.69421e-08
767 6 0.001 0.00295667 0 -0.0361999 -6.46989e-05 0 -3.18427e-05 5.44413e-10 1.11439e-08
769 6 0.001 0.00304216 0 -0.0349315 -4.13077e-05 0 -3.7772e-05 3.20385e-09 1.13004e-08
768 6 0.001 0.00299978 0 -0.0355657 -5.39152e-05 0 -3.49834e-05 1.54469e-09 1.1219e-08
917 7 0.001 0.00739285 0 -0.0361819 4.15443e-05 0 -2.21848e-05 1.48384e-08 6.87468e-09
919 7 0.001 0.00734945 0 -0.0349105 3.80867e-05 0 -2.42375e-05 1.98466e-08 6.96104e-09
918 7 0.001 0.00737247 0 -0.0355462 3.8911e-05 0 -2.31787e-05 1.72503e-08 6.91672e-09
1069 8 0.001 0.0116077 0 -0.0349485 8.06425e-05 0 -1.3043e-05 6.95315e-08 3.07854e-09
1067 8 0.001 0.0117997 0 -0.0362071 7.38736e-05 0 -1.18518e-05 7.51936e-08 3.0388e-09
1068 8 0.001 0.0117064 0 -0.0355774 8.17124e-05 0 -1.21595e-05 7.22689e-08 3.05761e-09
1217 9 0.001 0.0166182 0 -0.0362235 8.49943e-06 0 -3.26697e-05 1.0524e-07 2.19207e-09
1219 9 0.001 0.016383 0 -0.034972 2.63996e-06 0 -3.45318e-05 9.52632e-08 2.23712e-09
1218 9 0.001 0.0165037 0 -0.0355972 6.00815e-06 0 -3.36626e-05 1.00355e-07 2.21452e-09
1367 10 0.001 0.0216956 0 -0.0362163 -2.16083e-05 0 -1.62017e-05 1.09607e-07 2.34953e-09
1369 10 0.001 0.021472 0 -0.0349628 -8.2971e-06 0 -1.58153e-05 9.9621e-08 2.35894e-09
1368 10 0.001 0.021587 0 -0.035589 -1.34063e-05 0 -1.5773e-05 1.04786e-07 2.35411e-09
20 1 0.001 -0.0210772 0 -0.0343816 -1.59383e-05 0 1.14384e-05 9.81705e-08 4.03718e-09
21 1 0.001 -0.0209272 0 -0.0337631 -4.60739e-06 0 8.6528e-06 8.92073e-08 4.01234e-09
170 2 0.001 -0.0157353 0 -0.03445 6.20266e-05 0 -1.83787e-05 1.18183e-07 7.63702e-09
171 2 0.001 -0.0155538 0 -0.0338404 6.07254e-05 0 -1.77393e-05 1.00584e-07 7.59252e-09
320 3 0.001 -0.0104961 0 -0.034501 -7.88328e-05 0 -2.37325e-05 7.92376e-08 9.59239e-09
321 3 0.001 -0.0103007 0 -0.033896 -6.85256e-05 0 -3.06983e-05 6.07958e-08 9.62727e-09
470 4 0.001 -0.00560038 0 -0.0344786 9.97123e-05 0 -4.42043e-05 4.50241e-08 1.21873e-08
471 4 0.001 -0.0054215 0 -0.0338688 7.97249e-05 0 -3.74243e-05 2.90493e-08 1.21646e-08
620 5 0.001 -0.00121421 0 -0.0343776 -1.25303e-05 0 6.81717e-05 4.56928e-09 1.67761e-08
621 5 0.001 -0.00110141 0 -0.0337524 2.70537e-05 0 6.57361e-05 1.81738e-09 1.66077e-08
770 6 0.001 0.00308344 0 -0.0342972 -2.7928e-05 0 -4.12765e-05 5.45892e-09 1.13882e-08
771 6 0.001 0.00312327 0 -0.0336628 -1.53509e-05 0 -4.4633e-05 8.25804e-09 1.1483e-08
921 7 0.001 0.00729476 0 -0.0336396 4.12508e-05 0 -2.55829e-05 2.55518e-08 7.05676e-09
920 7 0.001 0.00732361 0 -0.034275 3.91667e-05 0 -2.54464e-05 2.26167e-08 7.00792e-09
1071 8 0.001 0.0113948 0 -0.0336933 5.512e-05 0 -1.85153e-05 6.45413e-08 3.12516e-09
1070 8 0.001 0.0115038 0 -0.0343205 7.12881e-05 0 -1.52367e-05 6.69724e-08 3.10115e-09
1221 9 0.001 0.0161234 0 -0.0337253 -6.15659e-06 0 -3.66774e-05 8.45006e-08 2.28236e-09
1220 9 0.001 0.0162561 0 -0.034348 -1.25538e-06 0 -3.56771e-05 8.99753e-08 2.25978e-09
1371 10 0.001 0.0212234 0 -0.0337139 -8.16887e-06 0 -1.68063e-05 8.8527e-08 2.36926e-09
1370 10 0.001 0.0213507 0 -0.0343377 -6.63856e-06 0 -1.63305e-05 9.41839e-08 2.36407e-09
22 1 0.001 -0.0207715 0 -0.033146 6.79217e-06 0 5.83346e-06 8.03413e-08 3.98781e-09
23 1 0.001 -0.0206102 0 -0.0325303 1.64093e-05 0 3.36754e-06 7.15862e-08 3.96344e-09
24 1 0.001 -0.0204437 0 -0.031916 2.30924e-05 0 1.27173e-06 6.29762e-08 3.93939e-09
172 2 0.001 -0.0153662 0 -0.0332327 5.30912e-05 0 -1.52732e-05 8.35096e-08 7.54821e-09
173 2 0.001 -0.015173 0 -0.0326268 3.85255e-05 0 -1.01636e-05 6.73113e-08 7.50499e-09
174 2 0.001 -0.014975 0 -0.0320224 1.81606e-05 0 -2.95568e-06 5.23456e-08 7.46372e-09
322 3 0.001 -0.0101006 0 -0.0332925 -5.39154e-05 0 -3.8799e-05 4.47052e-08 9.67548e-09
323 3 0.001 -0.00989654 0 -0.0326903 -3.76536e-05 0 -4.801e-05 3.10152e-08 9.737e-09
324 3 0.001 -0.00968919 0 -0.0320893 -2.15042e-05 0 -5.54383e-05 1.97815e-08 9.81063e-09
472 4 0.001 -0.0052394 0 -0.0332598 5.8255e-05 0 -3.02819e-05 1.63359e-08 1.21498e-08
473 4 0.001 -0.00505495 0 -0.0326516 3.71331e-05 0 -2.2357e-05 7.34176e-09 1.2144e-08
474 4 0.001 -0.00486901 0 -0.0320438 1.31443e-05 0 -1.3848e-05 2.39378e-09 1.21484e-08
622 5 0.001 -0.000987895 0 -0.0331274 6.42288e-05 0 6.29539e-05 5.94699e-10 1.64358e-08
623 5 0.001 -0.000874208 0 -0.0325024 9.41376e-05 0 5.99975e-05 9.60266e-10 1.62631e-08
624 5 0.001 -0.000760914 0 -0.0318773 0.000115005 0 5.75757e-05 3.01941e-09 1.60933e-08
772 6 0.001 0.00316129 0 -0.0330283 -3.60153e-06 0 -4.82709e-05 1.15594e-08 1.1585e-08
773 6 0.001 0.00319718 0 -0.0323937 6.39538e-06 0 -5.27696e-05 1.53281e-08 1.16957e-08
922 7 0.001 0.0072627 0 -0.0330043 4.26186e-05 0 -2.58336e-05 2.86437e-08 7.10689e-09
923 7 0.001 0.00722726 0 -0.0323693 4.17084e-05 0 -2.69354e-05 3.18804e-08 7.15894e-09
1073 8 0.001 0.0111618 0 -0.0324417 9.56945e-06 0 -2.78245e-05 5.97187e-08 3.17606e-09
1072 8 0.001 0.0112808 0 -0.033067 3.3791e-05 0 -2.29992e-05 6.21568e-08 3.15028e-09
1224 9 0.001 0.0156918 0 -0.0318646 -2.57076e-05 0 -4.07183e-05 6.70708e-08 2.3485e-09
1223 9 0.001 0.015841 0 -0.0324836 -1.79669e-05 0 -3.93828e-05 7.30349e-08 2.32697e-09
1222 9 0.001 0.015985 0 -0.0331038 -1.15325e-05 0 -3.81632e-05 7.88497e-08 2.3048e-09
1374 10 0.001 0.0208071 0 -0.0318498 -2.10084e-05 0 -2.02677e-05 7.0569e-08 2.38403e-09
1372 10 0.001 0.0210902 0 -0.0330913 -1.13364e-05 0 -1.78386e-05 8.26873e-08 2.37432e-09
1373 10 0.001 0.0209513 0 -0.0324699 -1.60964e-05 0 -1.91046e-05 7.66926e-08 2.37929e-09
25 1 0.001 -0.0202724 0 -0.0313031 2.61e-05 0 -1.63655e-07 5.45698e-08 3.91606e-09
26 1 0.001 -0.0200965 0 -0.0306914 2.52763e-05 0 -8.50101e-08 4.64484e-08 3.89353e-09
175 2 0.001 -0.0147726 0 -0.0314194 -6.0457e-06 0 4.79938e-06 3.89428e-08 7.42612e-09
176 2 0.001 -0.0145664 0 -0.0308177 -3.14887e-05 0 1.27559e-05 2.73756e-08 7.39407e-09
325 3 0.001 -0.00947923 0 -0.0314892 -7.2678e-06 0 -6.05045e-05 1.10777e-08 9.89343e-09
326 3 0.001 -0.00926736 0 -0.0308898 2.22041e-06 0 -6.39656e-05 4.99626e-09 9.98421e-09
475 4 0.001 -0.00468247 0 -0.0314363 -9.38583e-06 0 -5.06177e-06 1.6735e-09 1.21632e-08
476 4 0.001 -0.00449623 0 -0.0308286 -3.22224e-05 0 2.91263e-06 5.20989e-09 1.21888e-08
625 5 0.001 -0.000648586 0 -0.0312521 0.000128384 0 5.69046e-05 6.90609e-09 1.59278e-08
626 5 0.001 -0.000537817 0 -0.0306265 0.000131321 0 5.67453e-05 1.27579e-08 1.57686e-08
774 6 0.001 0.00323059 0 -0.031759 1.20689e-05 0 -5.63589e-05 1.95305e-08 1.18154e-08
775 6 0.001 0.00326122 0 -0.0311241 1.47981e-05 0 -5.94453e-05 2.41283e-08 1.19434e-08
776 6 0.001 0.00328874 0 -0.0304891 1.55239e-05 0 -6.13108e-05 2.90732e-08 1.2078e-08
926 7 0.001 0.00709875 0 -0.0304655 1.59729e-05 0 -3.2759e-05 4.21526e-08 7.33157e-09
924 7 0.001 0.00718824 0 -0.0317344 3.74495e-05 0 -2.84669e-05 3.524e-08 7.21361e-09
925 7 0.001 0.00714546 0 -0.0310999 2.89471e-05 0 -3.06274e-05 3.86841e-08 7.27124e-09
1074 8 0.001 0.011038 0 -0.0318173 -1.45034e-05 0 -3.22857e-05 5.71224e-08 3.20168e-09
1076 8 0.001 0.0107764 0 -0.0305714 -5.39678e-05 0 -3.9753e-05 5.11046e-08 3.25016e-09
1075 8 0.001 0.0109095 0 -0.0311938 -3.63125e-05 0 -3.64614e-05 5.42742e-08 3.2265e-09
1226 9 0.001 0.0153784 0 -0.0306304 -4.10014e-05 0 -4.49897e-05 5.47782e-08 2.39032e-09
1225 9 0.001 0.0155375 0 -0.0312469 -3.38523e-05 0 -4.2836e-05 6.09761e-08 2.3695e-09
1376 10 0.001 0.0205032 0 -0.0306132 -2.90733e-05 0 -2.3857e-05 5.80605e-08 2.39386e-09
1375 10 0.001 0.0206576 0 -0.0312309 -2.54938e-05 0 -2.20262e-05 6.43458e-08 2.38874e-09
27 1 0.001 -0.0199165 0 -0.030081 2.10938e-05 0 1.28851e-06 3.87112e-08 3.87157e-09
28 1 0.001 -0.0197327 0 -0.0294716 1.44808e-05 0 3.34424e-06 3.14656e-08 3.85031e-09
29 1 0.001 -0.0195456 0 -0.0288633 6.36961e-06 0 5.08403e-06 2.48169e-08 3.83045e-09
177 2 0.001 -0.0143572 0 -0.0302171 -5.49305e-05 0 2.04216e-05 1.7835e-08 7.3683e-09
178 2 0.001 -0.0141455 0 -0.0296174 -7.35561e-05 0 2.66189e-05 1.04188e-08 7.34884e-09
179 2 0.001 -0.0139319 0 -0.0290183 -8.64436e-05 0 3.00517e-05 5.13367e-09 7.33616e-09
327 3 0.001 -0.00905429 0 -0.0302908 7.42623e-06 0 -6.59746e-05 1.63898e-09 1.00834e-08
328 3 0.001 -0.00884072 0 -0.029692 9.34673e-06 0 -6.53378e-05 1.1009e-09 1.01902e-08
329 3 0.001 -0.00862737 0 -0.0290931 7.39237e-06 0 -6.32088e-05 3.45189e-09 1.03036e-08
477 4 0.001 -0.00431118 0 -0.0302205 -5.10552e-05 0 9.63723e-06 1.2881e-08 1.22256e-08
478 4 0.001 -0.00412819 0 -0.0296119 -6.57175e-05 0 1.61919e-05 2.44283e-08 1.22714e-08
479 4 0.001 -0.00394813 0 -0.0290024 -7.58008e-05 0 2.03837e-05 3.94815e-08 1.23246e-08
627 5 0.001 -0.000429214 0 -0.0300006 0.000124211 0 5.79997e-05 2.06871e-08 1.56182e-08
628 5 0.001 -0.000323403 0 -0.0293741 0.000107435 0 6.13994e-05 3.07483e-08 1.54765e-08
777 6 0.001 0.00331285 0 -0.029854 1.59401e-05 0 -6.34711e-05 3.43081e-08 1.22186e-08
778 6 0.001 0.00333324 0 -0.0292188 1.65906e-05 0 -6.52317e-05 3.97685e-08 1.23648e-08
928 7 0.001 0.00699282 0 -0.0291979 -1.91501e-05 0 -3.66711e-05 4.88e-08 7.4558e-09
927 7 0.001 0.00704792 0 -0.0298316 -3.94328e-07 0 -3.4539e-05 4.55606e-08 7.3934e-09
1077 8 0.001 0.0106389 0 -0.0299499 -6.59477e-05 0 -4.18419e-05 4.75783e-08 3.27235e-09
1078 8 0.001 0.0104971 0 -0.0293293 -7.08059e-05 0 -4.22837e-05 4.37011e-08 3.29288e-09
1228 9 0.001 0.0150469 0 -0.029401 -4.59469e-05 0 -4.63752e-05 4.22684e-08 2.43163e-09
1227 9 0.001 0.0152148 0 -0.0300151 -4.50986e-05 0 -4.63869e-05 4.85208e-08 2.41108e-09
1229 9 0.001 0.014875 0 -0.0287879 -4.42539e-05 0 -4.57137e-05 3.61059e-08 2.45187e-09
1378 10 0.001 0.0201806 0 -0.0293814 -3.1807e-05 0 -2.64832e-05 4.5506e-08 2.40604e-09
1377 10 0.001 0.0203441 0 -0.0299967 -3.11624e-05 0 -2.55094e-05 5.17609e-08 2.39962e-09
30 1 0.001 -0.0193554 0 -0.0282559 -1.70793e-06 0 7.79055e-06 1.8859e-08 3.81216e-09
31 1 0.001 -0.0191626 0 -0.0276494 -8.46811e-06 0 1.05587e-05 1.36678e-08 3.79487e-09
180 2 0.001 -0.0137171 0 -0.0284196 -9.24251e-05 0 3.15355e-05 1.90962e-09 7.3302e-09
181 2 0.001 -0.0135016 0 -0.0278212 -9.09751e-05 0 3.08772e-05 6.22335e-10 7.32976e-09
330 3 0.001 -0.00841497 0 -0.0284939 3.21454e-06 0 -5.90135e-05 8.72007e-09 1.04226e-08
331 3 0.001 -0.00820423 0 -0.0278941 -2.00964e-06 0 -5.4328e-05 1.68793e-08 1.05461e-08
332 3 0.001 -0.00799589 0 -0.0272935 -6.12893e-06 0 -5.00104e-05 2.78443e-08 1.06737e-08
480 4 0.001 -0.00377186 0 -0.0283917 -7.84048e-05 0 2.35729e-05 5.75925e-08 1.23832e-08
481 4 0.001 -0.00360018 0 -0.0277798 -7.44346e-05 0 2.52809e-05 7.82736e-08 1.24438e-08
629 5 0.001 -0.000221018 0 -0.0287471 8.16197e-05 0 6.4985e-05 4.29069e-08 1.53443e-08
630 5 0.001 -0.000122702 0 -0.0281194 5.06989e-05 0 6.87025e-05 5.70155e-08 1.52225e-08
631 5 0.001 -2.90934e-05 0 -0.027491 1.77663e-05 0 7.10983e-05 7.28059e-08 1.51119e-08
779 6 0.001 0.00334965 0 -0.0285834 1.89032e-05 0 -6.72966e-05 4.53879e-08 1.25164e-08
780 6 0.001 0.00336178 0 -0.027948 2.57179e-05 0 -7.06004e-05 5.11063e-08 1.26749e-08
781 6 0.001 0.00336937 0 -0.0273125 3.44358e-05 0 -7.40507e-05 5.68763e-08 1.28417e-08
931 7 0.001 0.00680051 0 -0.0272997 -6.60012e-05 0 -4.46475e-05 5.62467e-08 7.64782e-09
930 7 0.001 0.00686924 0 -0.027932 -5.38561e-05 0 -4.29689e-05 5.42685e-08 7.58388e-09
929 7 0.001 0.00693331 0 -0.0285647 -3.7689e-05 0 -4.0233e-05 5.1746e-08 7.51932e-09
1081 8 0.001 0.010048 0 -0.0274733 -4.0958e-05 0 -3.00196e-05 3.06508e-08 3.34272e-09
1080 8 0.001 0.0102014 0 -0.0280911 -5.76778e-05 0 -3.65725e-05 3.51324e-08 3.32863e-09
1079 8 0.001 0.0103512 0 -0.0287097 -6.79659e-05 0 -4.10312e-05 3.95226e-08 3.3118e-09
1231 9 0.001 0.0145205 0 -0.0275649 -3.3987e-05 0 -4.05192e-05 2.44552e-08 2.49087e-09
1230 9 0.001 0.0146994 0 -0.0281759 -4.01679e-05 0 -4.37076e-05 3.01326e-08 2.47172e-09
1379 10 0.001 0.0200129 0 -0.0287671 -3.02888e-05 0 -2.74435e-05 3.93654e-08 2.41335e-09
1381 10 0.001 0.0196664 0 -0.0275418 -2.42135e-05 0 -2.60968e-05 2.77435e-08 2.43008e-09
1380 10 0.001 0.0198414 0 -0.028154 -2.7623e-05 0 -2.71347e-05 3.34173e-08 2.42152e-09
32 1 0.001 -0.0189676 0 -0.0270435 -1.30985e-05 0 1.20447e-05 9.29716e-09 3.77878e-09
33 1 0.001 -0.0187707 0 -0.0264383 -1.48523e-05 0 1.26433e-05 5.77917e-09 3.76426e-09
34 1 0.001 -0.0185725 0 -0.0258335 -1.38333e-05 0 1.25815e-05 3.12791e-09 3.75118e-09
182 2 0.001 -0.013286 0 -0.0272229 -8.26741e-05 0 2.73723e-05 1.11794e-09 7.33419e-09
183 2 0.001 -0.0130708 0 -0.0266243 -6.85008e-05 0 2.17068e-05 3.23687e-09 7.34332e-09
184 2 0.001 -0.0128567 0 -0.0260255 -4.98904e-05 0 1.49109e-05 6.83377e-09 7.35641e-09
333 3 0.001 -0.00779067 0 -0.0266919 -7.42725e-06 0 -4.63152e-05 4.14752e-08 1.08046e-08
334 3 0.001 -0.00758929 0 -0.0260889 -5.93899e-06 0 -4.354e-05 5.75883e-08 1.0938e-08
482 4 0.001 -0.00343388 0 -0.0271664 -6.67725e-05 0 2.44498e-05 1.0103e-07 1.25058e-08
483 4 0.001 -0.00327374 0 -0.0265514 -5.55421e-05 0 2.27603e-05 1.25385e-07 1.25692e-08
484 4 0.001 -0.00312047 0 -0.0259346 -4.51285e-05 0 2.33722e-05 1.5088e-07 1.26306e-08
632 5 0.001 5.91772e-05 0 -0.0268618 -1.4224e-05 0 7.15101e-05 8.98971e-08 1.50137e-08
633 5 0.001 0.0001415 0 -0.0262318 -4.03057e-05 0 7.00876e-05 1.07824e-07 1.49282e-08
782 6 0.001 0.00337218 0 -0.026677 4.56247e-05 0 -7.69367e-05 6.26675e-08 1.30166e-08
783 6 0.001 0.00336997 0 -0.0260415 5.5882e-05 0 -7.93232e-05 6.84604e-08 1.31989e-08
933 7 0.001 0.00664879 0 -0.0260368 -6.57962e-05 0 -4.51296e-05 5.82417e-08 7.77067e-09
932 7 0.001 0.00672705 0 -0.026668 -7.0307e-05 0 -4.55808e-05 5.75876e-08 7.71023e-09
1083 8 0.001 0.00973112 0 -0.0262403 4.20451e-06 0 -1.5364e-05 2.19559e-08 3.36532e-09
1082 8 0.001 0.00989112 0 -0.0268564 -1.94298e-05 0 -2.31446e-05 2.62138e-08 3.35471e-09
1233 9 0.001 0.014154 0 -0.0263454 -1.4616e-05 0 -3.24025e-05 1.44188e-08 2.52757e-09
1232 9 0.001 0.0143386 0 -0.0269548 -2.5197e-05 0 -3.67967e-05 1.91826e-08 2.50939e-09
1383 10 0.001 0.0193071 0 -0.0263202 -1.44488e-05 0 -2.42637e-05 1.7544e-08 2.44953e-09
1382 10 0.001 0.0194882 0 -0.0269306 -1.95582e-05 0 -2.54965e-05 2.24263e-08 2.43931e-09
35 1 0.001 -0.0183732 0 -0.025229 -1.05756e-05 0 1.13124e-05 1.34486e-09 3.73963e-09
36 1 0.001 -0.0181733 0 -0.0246247 -5.41766e-06 0 9.61197e-06 4.24832e-10 3.72973e-09
185 2 0.001 -0.012644 0 -0.025426 -2.8955e-05 0 7.06915e-06 1.17909e-08 7.37307e-09
186 2 0.001 -0.0124334 0 -0.0248259 -7.43144e-06 0 -8.69009e-07 1.80245e-08 7.39332e-09
335 3 0.001 -0.00739245 0 -0.0254845 -2.52646e-06 0 -4.18701e-05 7.59681e-08 1.10737e-08
336 3 0.001 -0.00720085 0 -0.0248784 1.73814e-06 0 -4.04198e-05 9.63755e-08 1.12114e-08
337 3 0.001 -0.00701519 0 -0.0242705 4.88445e-06 0 -3.8067e-05 1.18547e-07 1.135e-08
485 4 0.001 -0.00297476 0 -0.025316 -3.81508e-05 0 2.43496e-05 1.77068e-07 1.26874e-08
486 4 0.001 -0.00283729 0 -0.0246955 -3.44488e-05 0 2.46047e-05 2.03499e-07 1.27402e-08
634 5 0.001 0.000217293 0 -0.025601 -5.90942e-05 0 6.88206e-05 1.26076e-07 1.48521e-08