ITEM: TIMESTEP
1600000
ITEM: NUMBER OF ATOMS
1500
ITEM: BOX BOUNDS ff ff ff
-2.5000000000000001e-02 2.5000000000000001e-02
-5.0000000000000001e-03 5.0000000000000001e-03
-5.0000000000000003e-02 5.0000000000000003e-02
ITEM: ATOMS id type radius x y z fx fy fz c_bendingE c_stretchingE
1 1 0.001 -0.0225 0 -0.04446 -0.135753 0 -3.8e-09 6.22232e-07 1.59293e-34
151 2 0.001 -0.0175 0 -0.04446 -0.127015 0 -3.8e-09 5.44671e-07 1.59293e-34
301 3 0.001 -0.0125 0 -0.04446 -0.102566 0 -3.8e-09 3.5512e-07 1.59293e-34
451 4 0.001 -0.0075 0 -0.04446 -0.0678877 0 -3.8e-09 1.55555e-07 1.59293e-34
601 5 0.001 -0.0025 0 -0.04446 -0.037114 0 -3.8e-09 4.64881e-08 1.59293e-34
751 6 0.001 0.0025 0 -0.04446 -0.0117986 0 -3.8e-09 4.69798e-09 1.59293e-34
901 7 0.001 0.0075 0 -0.04446 0.0138773 0 -3.8e-09 6.49921e-09 1.59293e-34
1051 8 0.001 0.0125 0 -0.04446 0.0429568 0 -3.8e-09 6.22779e-08 1.59293e-34
1201 9 0.001 0.0175 0 -0.04446 0.0679036 0 -3.8e-09 1.55628e-07 1.59293e-34
1351 10 0.001 0.0225 0 -0.04446 0.0679516 0 -3.8e-09 1.55848e-07 1.59293e-34
2 1 0.001 -0.0225 0 -0.0438224 0.135631 0 -0.01642 1.23912e-06 1.1178e-08
3 1 0.001 -0.0224726 0 -0.0431881 -1.82911e-07 0 -3.63844e-07 1.84434e-06 2.23017e-08
4 1 0.001 -0.0224181 0 -0.0425556 -5.96664e-07 0 -6.89272e-07 1.80959e-06 2.21539e-08
152 2 0.001 -0.0175 0 -0.0438224 0.127118 0 -0.0184095 1.08215e-06 1.40387e-08
153 2 0.001 -0.0174744 0 -0.0431884 -4.70684e-08 0 1.21744e-06 1.60629e-06 2.80014e-08
154 2 0.001 -0.0174234 0 -0.0425559 -1.05614e-07 0 2.54239e-06 1.56662e-06 2.78046e-08
302 3 0.001 -0.0125 0 -0.0438224 0.10344 0 -0.0184558 7.00148e-07 1.40803e-08
303 3 0.001 -0.0124793 0 -0.0431882 9.10608e-07 0 -1.54258e-06 1.03128e-06 2.8076e-08
304 3 0.001 -0.0124383 0 -0.042555 2.37773e-06 0 -2.99589e-06 9.8992e-07 2.7883e-08
452 4 0.001 -0.0075 0 -0.0438224 0.0705165 0 -0.0104462 2.98341e-07 4.47855e-09
453 4 0.001 -0.00748629 0 -0.0431867 -2.3559e-06 0 -4.47448e-07 4.28019e-07 8.90498e-09
454 4 0.001 -0.00745945 0 -0.0425514 -5.97338e-06 0 -7.55604e-07 3.88888e-07 8.80054e-09
602 5 0.001 -0.0025 0 -0.0438224 0.0393693 0 -0.00959631 8.72464e-08 3.80088e-09
603 5 0.001 -0.0024925 0 -0.0431865 1.39881e-06 0 3.95792e-07 1.22419e-07 7.58022e-09
604 5 0.001 -0.00247799 0 -0.0425506 3.86872e-06 0 7.22534e-07 1.05725e-07 7.53754e-09
752 6 0.001 0.0025 0 -0.0438224 0.0139114 0 -0.00905426 7.84522e-09 3.39692e-09
753 6 0.001 0.00250238 0 -0.0431863 3.68191e-07 0 -1.11588e-07 9.7371e-09 6.78895e-09
754 6 0.001 0.00250672 0 -0.0425503 1.29801e-06 0 -2.07426e-07 5.98525e-09 6.78029e-09
902 7 0.001 0.0075 0 -0.0438224 -0.0120613 0 -0.00846267 1.4767e-08 2.97833e-09
903 7 0.001 0.0074972 0 -0.0431862 -4.68864e-07 0 3.87807e-07 2.49661e-08 5.96253e-09
904 7 0.001 0.00749123 0 -0.0425501 -1.27628e-06 0 8.42953e-07 3.0738e-08 5.97445e-09
1052 8 0.001 0.0125 0 -0.0438224 -0.0419259 0 -0.0065952 1.27309e-07 1.81289e-09
1053 8 0.001 0.0124913 0 -0.043186 4.84245e-07 0 -5.65694e-08 1.94876e-07 3.63267e-09
1054 8 0.001 0.0124738 0 -0.0425497 1.14012e-06 0 -1.08131e-07 2.02463e-07 3.64591e-09
1202 9 0.001 0.0175 0 -0.0438224 -0.0678975 0 -0.00587992 3.10704e-07 1.43452e-09
1203 9 0.001 0.0174863 0 -0.043186 -9.09538e-09 0 -1.19616e-08 4.64652e-07 2.86711e-09
1204 9 0.001 0.0174588 0 -0.0425499 -2.49637e-08 0 -2.2161e-08 4.61278e-07 2.86194e-09
1352 10 0.001 0.0225 0 -0.0438224 -0.0679497 0 -0.00587196 3.11124e-07 1.43059e-09
1353 10 0.001 0.0224863 0 -0.043186 -5.39968e-08 0 6.14175e-09 4.65254e-07 2.8592e-09
1354 10 0.001 0.0224588 0 -0.0425499 -1.42989e-07 0 1.69638e-08 4.61822e-07 2.85392e-09
5 1 0.001 -0.0223366 0 -0.041926 -1.26661e-06 0 -9.47397e-07 1.75678e-06 2.19306e-08
6 1 0.001 -0.0222289 0 -0.0413003 -1.8305e-06 0 -1.18376e-06 1.68709e-06 2.16378e-08
155 2 0.001 -0.0173475 0 -0.0419259 -3.5272e-07 0 3.93828e-06 1.50968e-06 2.75219e-08
156 2 0.001 -0.0172471 0 -0.0412993 -6.76312e-07 0 5.40143e-06 1.43689e-06 2.71611e-08
305 3 0.001 -0.0123774 0 -0.0419234 3.94533e-06 0 -4.45414e-06 9.38205e-07 2.76447e-08
306 3 0.001 -0.0122972 0 -0.0412939 5.21415e-06 0 -6.06579e-06 8.7735e-07 2.73675e-08
455 4 0.001 -0.00742011 0 -0.0419167 -1.00512e-05 0 -9.09924e-07 3.49309e-07 8.69645e-09
456 4 0.001 -0.00736894 0 -0.0412829 -1.37744e-05 0 -1.04285e-06 3.09842e-07 8.5943e-09
605 5 0.001 -0.00245696 0 -0.041915 7.0679e-06 0 1.0712e-06 8.96535e-08 7.49579e-09
606 5 0.001 -0.00242992 0 -0.0412795 1.02397e-05 0 1.44903e-06 7.43891e-08 7.4553e-09
755 6 0.001 0.00251256 0 -0.0419142 2.47051e-06 0 -3.23274e-07 3.15914e-09 6.77397e-09
756 6 0.001 0.00251948 0 -0.0412782 3.82425e-06 0 -4.75403e-07 1.29234e-09 6.7701e-09
905 7 0.001 0.00748175 0 -0.041914 -2.11049e-06 0 1.31938e-06 3.69299e-08 5.98663e-09
906 7 0.001 0.00746842 0 -0.041278 -2.86224e-06 0 1.75371e-06 4.34706e-08 5.99892e-09
1055 8 0.001 0.0124472 0 -0.0419138 1.67013e-06 0 -1.67162e-07 2.09341e-07 3.65804e-09
1056 8 0.001 0.0124114 0 -0.0412783 1.83372e-06 0 -2.36805e-07 2.15455e-07 3.66898e-09
1206 9 0.001 0.0173632 0 -0.0412804 -7.21852e-08 0 -3.82123e-08 4.49482e-07 2.84393e-09
1205 9 0.001 0.0174178 0 -0.0419147 -4.61794e-08 0 -3.05118e-08 4.56208e-07 2.8542e-09
1355 10 0.001 0.0224177 0 -0.0419147 -2.55519e-07 0 2.40637e-08 4.56694e-07 2.84604e-09
1356 10 0.001 0.0223631 0 -0.0412804 -3.72663e-07 0 3.10095e-08 4.49908e-07 2.83562e-09
7 1 0.001 -0.0220956 0 -0.0406796 -2.23902e-06 0 -1.42809e-06 1.60208e-06 2.12837e-08
8 1 0.001 -0.0219375 0 -0.0400646 -2.68157e-06 0 -1.54565e-06 1.50361e-06 2.08773e-08
9 1 0.001 -0.0217557 0 -0.0394562 -3.06656e-06 0 -1.57334e-06 1.39382e-06 2.04289e-08
157 2 0.001 -0.017123 0 -0.040677 -1.00044e-06 0 6.69197e-06 1.35003e-06 2.67327e-08
158 2 0.001 -0.0169762 0 -0.0400596 -1.3141e-06 0 7.89815e-06 1.25122e-06 2.62487e-08
159 2 0.001 -0.0168076 0 -0.0394478 -1.33544e-06 0 9.09475e-06 1.14282e-06 2.57218e-08
307 3 0.001 -0.0121983 0 -0.0406671 6.0288e-06 0 -7.53324e-06 8.08784e-07 2.70588e-08
308 3 0.001 -0.0120817 0 -0.0400433 6.17256e-06 0 -8.81325e-06 7.34125e-07 2.67262e-08
309 3 0.001 -0.0119483 0 -0.0394229 5.68014e-06 0 -9.7135e-06 6.55129e-07 2.63781e-08
457 4 0.001 -0.00730664 0 -0.0406501 -1.63958e-05 0 -1.2646e-06 2.71025e-07 8.49563e-09
458 4 0.001 -0.00723396 0 -0.0400183 -1.74846e-05 0 -1.51469e-06 2.33361e-07 8.40172e-09
459 4 0.001 -0.00715167 0 -0.0393878 -1.67982e-05 0 -1.8956e-06 1.97314e-07 8.31355e-09
607 5 0.001 -0.00239744 0 -0.0406444 1.30748e-05 0 1.80721e-06 6.01134e-08 7.41644e-09
608 5 0.001 -0.00236005 0 -0.0400094 1.53268e-05 0 2.12282e-06 4.70037e-08 7.37965e-09
609 5 0.001 -0.00231834 0 -0.0393748 1.68666e-05 0 2.41573e-06 3.5231e-08 7.34543e-09
757 6 0.001 0.00252702 0 -0.0406421 5.31814e-06 0 -6.65164e-07 4.09415e-10 6.76877e-09
758 6 0.001 0.00253473 0 -0.0400061 6.50702e-06 0 -8.26934e-07 5.26052e-10 6.77004e-09
759 6 0.001 0.00254217 0 -0.03937 7.35437e-06 0 -9.49478e-07 1.64875e-09 6.77389e-09
907 7 0.001 0.00745091 0 -0.040642 -3.53955e-06 0 2.11077e-06 5.02841e-08 6.01123e-09
908 7 0.001 0.0074289 0 -0.0400062 -4.00012e-06 0 2.43993e-06 5.72912e-08 6.02343e-09
909 7 0.001 0.00740209 0 -0.0393706 -4.20466e-06 0 2.79052e-06 6.44109e-08 6.03536e-09
1057 8 0.001 0.0123663 0 -0.0406435 1.45216e-06 0 -3.37203e-07 2.20754e-07 3.67863e-09
1058 8 0.001 0.0123118 0 -0.0400093 4.63139e-07 0 -4.83321e-07 2.25188e-07 3.68688e-09
1059 8 0.001 0.0122478 0 -0.0393761 -1.15076e-06 0 -6.97512e-07 2.28709e-07 3.69362e-09
1207 9 0.001 0.0172952 0 -0.0406474 -1.01929e-07 0 -5.04571e-08 4.41153e-07 2.83124e-09
1208 9 0.001 0.0172139 0 -0.040016 -1.34878e-07 0 -6.43632e-08 4.31285e-07 2.81625e-09
1209 9 0.001 0.0171195 0 -0.0393864 -1.80577e-07 0 -8.16191e-08 4.19955e-07 2.79908e-09
1357 10 0.001 0.022295 0 -0.0406474 -4.72601e-07 0 3.36442e-08 4.41516e-07 2.82274e-09
1358 10 0.001 0.0222137 0 -0.040016 -5.41256e-07 0 3.63031e-08 4.31584e-07 2.80754e-09
1359 10 0.001 0.0221193 0 -0.0393864 -5.82118e-07 0 4.55837e-08 4.20188e-07 2.79013e-09
10 1 0.001 -0.0215514 0 -0.038855 -3.3484e-06 0 -1.59456e-06 1.27505e-06 1.99494e-08
11 1 0.001 -0.0213257 0 -0.0382614 -3.62336e-06 0 -1.5304e-06 1.14979e-06 1.94499e-08
160 2 0.001 -0.0166184 0 -0.0388419 -9.39193e-07 0 1.00669e-05 1.02739e-06 2.51653e-08
161 2 0.001 -0.01641 0 -0.0382424 -7.64138e-09 0 1.07173e-05 9.07604e-07 2.45927e-08
310 3 0.001 -0.011799 0 -0.0388061 4.69239e-06 0 -1.03713e-05 5.73653e-07 2.60228e-08
311 3 0.001 -0.011635 0 -0.038193 3.29459e-06 0 -1.0878e-05 4.91603e-07 2.56694e-08
460 4 0.001 -0.00706056 0 -0.0387584 -1.44331e-05 0 -2.55117e-06 1.63306e-07 8.23202e-09
461 4 0.001 -0.00696144 0 -0.0381302 -1.06584e-05 0 -3.39834e-06 1.31718e-07 8.15791e-09
610 5 0.001 -0.0022729 0 -0.0387404 1.74031e-05 0 2.76614e-06 2.49582e-08 7.31421e-09
611 5 0.001 -0.00222433 0 -0.0381062 1.68468e-05 0 3.13079e-06 1.6336e-08 7.28643e-09
760 6 0.001 0.00254888 0 -0.038734 7.57612e-06 0 -1.06524e-06 3.77406e-09 6.78029e-09
761 6 0.001 0.00255441 0 -0.0380979 7.44084e-06 0 -1.16437e-06 6.88769e-09 6.78922e-09
910 7 0.001 0.00737019 0 -0.0387353 -4.07659e-06 0 3.16406e-06 7.1562e-08 6.04681e-09
911 7 0.001 0.00733293 0 -0.0381002 -3.40207e-06 0 3.528e-06 7.86649e-08 6.05763e-09
1060 8 0.001 0.0121742 0 -0.0387439 -3.33325e-06 0 -9.94145e-07 2.31272e-07 3.69872e-09
1061 8 0.001 0.0120911 0 -0.0381128 -5.91379e-06 0 -1.37286e-06 2.32832e-07 3.70207e-09
1210 9 0.001 0.0170123 0 -0.0387589 -2.28435e-07 0 -1.03791e-07 4.07251e-07 2.7799e-09
1211 9 0.001 0.0168924 0 -0.0381337 -2.71168e-07 0 -1.23299e-07 3.93272e-07 2.75887e-09
1361 10 0.001 0.0218921 0 -0.0381337 -5.49736e-07 0 7.5743e-08 3.93369e-07 2.74936e-09
1360 10 0.001 0.022012 0 -0.0387589 -5.86787e-07 0 5.698e-08 4.07417e-07 2.77068e-09
12 1 0.001 -0.0210801 0 -0.0376758 -3.85422e-06 0 -1.43599e-06 1.02062e-06 1.89416e-08
13 1 0.001 -0.0208159 0 -0.0370983 -4.02559e-06 0 -1.31635e-06 8.90155e-07 1.84351e-08
14 1 0.001 -0.0205346 0 -0.0365288 -4.12217e-06 0 -1.13519e-06 7.60981e-07 1.79406e-08
162 2 0.001 -0.0161836 0 -0.0376494 1.45572e-06 0 1.10632e-05 7.86181e-07 2.40172e-08
163 2 0.001 -0.0159407 0 -0.037063 3.52918e-06 0 1.11117e-05 6.65825e-07 2.34511e-08
164 2 0.001 -0.0156827 0 -0.0364829 5.9432e-06 0 1.08767e-05 5.49166e-07 2.29058e-08
312 3 0.001 -0.0114575 0 -0.0375836 1.51684e-06 0 -1.10036e-05 4.10885e-07 2.53262e-08
313 3 0.001 -0.0112677 0 -0.036978 2.08473e-08 0 -1.10643e-05 3.33354e-07 2.50012e-08
314 3 0.001 -0.0110669 0 -0.0363758 -9.2035e-07 0 -1.12563e-05 2.60771e-07 2.4702e-08
462 4 0.001 -0.00685516 0 -0.0375032 -5.8184e-06 0 -4.48488e-06 1.02894e-07 8.09188e-09
463 4 0.001 -0.00674257 0 -0.0368773 -5.18808e-07 0 -5.66992e-06 7.71479e-08 8.03452e-09
612 5 0.001 -0.00217324 0 -0.0374722 1.52903e-05 0 3.5349e-06 9.49872e-09 7.2625e-09
613 5 0.001 -0.00212028 0 -0.0368384 1.28913e-05 0 4.08345e-06 4.55964e-09 7.2427e-09
762 6 0.001 0.00255832 0 -0.0374619 6.81908e-06 0 -1.26278e-06 1.09635e-08 6.8006e-09
763 6 0.001 0.00256015 0 -0.0368258 5.83592e-06 0 -1.38266e-06 1.59629e-08 6.81439e-09
912 7 0.001 0.00729004 0 -0.0374655 -2.19e-06 0 3.86088e-06 8.56439e-08 6.06773e-09
913 7 0.001 0.0072413 0 -0.0368312 -4.52031e-07 0 4.1948e-06 9.24286e-08 6.07706e-09
1062 8 0.001 0.0119983 0 -0.0374832 -8.69798e-06 0 -1.80605e-06 2.33352e-07 3.70352e-09
1063 8 0.001 0.0118959 0 -0.036855 -1.1457e-05 0 -2.25387e-06 2.32799e-07 3.70297e-09
1212 9 0.001 0.0167602 0 -0.0375109 -3.02878e-07 0 -1.33402e-07 3.78124e-07 2.73617e-09
1213 9 0.001 0.016616 0 -0.0368908 -3.19913e-07 0 -1.31354e-07 3.61924e-07 2.71199e-09
1362 10 0.001 0.0217598 0 -0.037511 -4.70229e-07 0 1.0149e-07 3.78156e-07 2.72636e-09
1363 10 0.001 0.0216155 0 -0.0368909 -3.54186e-07 0 1.37952e-07 3.61893e-07 2.70187e-09
15 1 0.001 -0.0202377 0 -0.0359673 -4.25681e-06 0 -9.39511e-07 6.35609e-07 1.74671e-08
16 1 0.001 -0.0199268 0 -0.0354134 -4.41455e-06 0 -7.07666e-07 5.16429e-07 1.70232e-08
17 1 0.001 -0.0196034 0 -0.0348667 -4.60353e-06 0 -3.73867e-07 4.05669e-07 1.66161e-08
165 2 0.001 -0.0154113 0 -0.035909 8.42969e-06 0 1.04394e-05 4.38715e-07 2.23917e-08
166 2 0.001 -0.015128 0 -0.0353409 1.06643e-05 0 1.00081e-05 3.36819e-07 2.1918e-08
315 3 0.001 -0.0108565 0 -0.035777 -1.12458e-06 0 -1.14348e-05 1.94765e-07 2.44351e-08
316 3 0.001 -0.0106378 0 -0.0351811 -2.59791e-07 0 -1.18983e-05 1.36796e-07 2.42061e-08
464 4 0.001 -0.00662454 0 -0.0362524 4.85733e-06 0 -6.80544e-06 5.47667e-08 7.98627e-09
465 4 0.001 -0.00650194 0 -0.0356284 9.89147e-06 0 -7.889e-06 3.60114e-08 7.94754e-09
466 4 0.001 -0.00637568 0 -0.0350051 1.41501e-05 0 -8.79812e-06 2.11172e-08 7.91878e-09
614 5 0.001 -0.00206607 0 -0.0362047 9.92321e-06 0 4.69267e-06 1.60645e-09 7.22719e-09
615 5 0.001 -0.00201124 0 -0.035571 6.5742e-06 0 5.35497e-06 6.97523e-10 7.21612e-09
616 5 0.001 -0.00195646 0 -0.0349374 3.03229e-06 0 6.03269e-06 1.85937e-09 7.20953e-09
764 6 0.001 0.00255947 0 -0.0361897 4.4948e-06 0 -1.4849e-06 2.18344e-08 6.83047e-09
766 6 0.001 0.00254884 0 -0.0349176 1.45088e-06 0 -1.43647e-06 3.5923e-08 6.86845e-09
765 6 0.001 0.00255584 0 -0.0355536 2.97379e-06 0 -1.50509e-06 2.85134e-08 6.84859e-09
914 7 0.001 0.00718646 0 -0.0361974 1.70506e-06 0 4.59365e-06 9.8955e-08 6.08553e-09
916 7 0.001 0.00705772 0 -0.0349316 6.77842e-06 0 5.42289e-06 1.11013e-07 6.09965e-09
915 7 0.001 0.00712533 0 -0.0355642 4.22053e-06 0 4.98746e-06 1.05167e-07 6.09308e-09
1064 8 0.001 0.011784 0 -0.0362284 -1.39021e-05 0 -2.68431e-06 2.31154e-07 3.70031e-09
1066 8 0.001 0.0115317 0 -0.0349808 -1.69839e-05 0 -3.25118e-06 2.24571e-07 3.68846e-09
1065 8 0.001 0.0116626 0 -0.0356036 -1.57998e-05 0 -3.03063e-06 2.28408e-07 3.69548e-09
1214 9 0.001 0.0164599 0 -0.0362736 -3.13701e-07 0 -1.29836e-07 3.44795e-07 2.68652e-09
1215 9 0.001 0.0162925 0 -0.0356594 -2.82925e-07 0 -1.23047e-07 3.26867e-07 2.65999e-09
1216 9 0.001 0.016114 0 -0.0350483 -2.26579e-07 0 -1.09526e-07 3.08277e-07 2.63262e-09
1364 10 0.001 0.0214594 0 -0.0362737 -2.09983e-07 0 1.84023e-07 3.44708e-07 2.67611e-09
1365 10 0.001 0.0212919 0 -0.0356595 -4.72134e-08 0 2.38363e-07 3.26731e-07 2.6493e-09
1366 10 0.001 0.0211134 0 -0.0350484 1.24681e-07 0 2.9095e-07 3.08101e-07 2.62165e-09
18 1 0.001 -0.0192691 0 -0.0343265 -4.55246e-06 0 -4.04766e-08 3.05362e-07 1.62518e-08
19 1 0.001 -0.0189256 0 -0.0337921 -4.42023e-06 0 2.99401e-07 2.17311e-07 1.59355e-08
167 2 0.001 -0.0148343 0 -0.034778 1.24689e-05 0 9.82333e-06 2.45624e-07 2.14926e-08
168 2 0.001 -0.0145319 0 -0.0342197 1.36504e-05 0 9.68865e-06 1.67037e-07 2.11224e-08
169 2 0.001 -0.0142225 0 -0.0336652 1.39055e-05 0 9.83664e-06 1.02699e-07 2.08136e-08
317 3 0.001 -0.0104122 0 -0.0345878 1.54231e-06 0 -1.26722e-05 8.8136e-08 2.40199e-08
318 3 0.001 -0.0101812 0 -0.0339966 4.48016e-06 0 -1.37771e-05 4.98493e-08 2.38806e-08
319 3 0.001 -0.00994624 0 -0.0334069 7.99109e-06 0 -1.50143e-05 2.27823e-08 2.37912e-08
467 4 0.001 -0.00624665 0 -0.0343824 1.68942e-05 0 -9.35274e-06 1.02909e-08 7.90037e-09
468 4 0.001 -0.00611577 0 -0.03376 1.78908e-05 0 -9.47819e-06 3.70506e-09 7.89263e-09
617 5 0.001 -0.00190236 0 -0.0343036 -4.54804e-07 0 6.62679e-06 5.08535e-09 7.20747e-09
618 5 0.001 -0.00184959 0 -0.0336698 -3.7923e-06 0 7.11501e-06 1.03355e-08 7.20996e-09
767 6 0.001 0.00253804 0 -0.0342816 -1.52447e-07 0 -1.48945e-06 4.39749e-08 6.88984e-09
768 6 0.001 0.00252304 0 -0.0336457 -1.77366e-06 0 -1.55888e-06 5.25702e-08 6.9126e-09
918 7 0.001 0.00690239 0 -0.0336688 1.14725e-05 0 6.2711e-06 1.21443e-07 6.10969e-09
917 7 0.001 0.00698346 0 -0.0342998 9.28406e-06 0 5.88872e-06 1.16452e-07 6.10519e-09
1067 8 0.001 0.0113916 0 -0.0343599 -1.73652e-05 0 -3.2959e-06 2.19667e-07 3.67927e-09
1068 8 0.001 0.0112423 0 -0.0337412 -1.69242e-05 0 -3.15037e-06 2.13743e-07 3.66798e-09
1218 9 0.001 0.0157253 0 -0.0338358 -5.76356e-08 0 -4.6578e-08 2.6967e-07 2.5762e-09
1217 9 0.001 0.0159248 0 -0.0344404 -1.50174e-07 0 -8.41659e-08 2.89164e-07 2.60461e-09
1367 10 0.001 0.0209241 0 -0.0344405 2.92677e-07 0 3.46264e-07 2.88958e-07 2.59341e-09
1368 10 0.001 0.0207246 0 -0.0338359 4.45265e-07 0 4.01965e-07 2.69446e-07 2.56478e-09
20 1 0.001 -0.0185742 0 -0.0332628 -4.22989e-06 0 6.3208e-07 1.43073e-07 1.56713e-08
21 1 0.001 -0.0182167 0 -0.0327377 -3.91273e-06 0 9.43001e-07 8.39388e-08 1.54626e-08
22 1 0.001 -0.0178545 0 -0.0322157 -3.61608e-06 0 1.35249e-06 4.09208e-08 1.53117e-08
170 2 0.001 -0.0139076 0 -0.0331139 1.33179e-05 0 1.02462e-05 5.39509e-08 2.05708e-08
171 2 0.001 -0.0135889 0 -0.0325647 1.21741e-05 0 1.08773e-05 2.18133e-08 2.03976e-08
172 2 0.001 -0.0132679 0 -0.0320168 1.07376e-05 0 1.16421e-05 6.96254e-09 2.02962e-08
320 3 0.001 -0.00970869 0 -0.0328182 1.14858e-05 0 -1.60776e-05 7.55561e-09 2.37536e-08
321 3 0.001 -0.00947004 0 -0.03223 1.42425e-05 0 -1.67276e-05 4.55712e-09 2.37693e-08
469 4 0.001 -0.00598396 0 -0.0331379 1.72605e-05 0 -9.28115e-06 1.49024e-09 7.89589e-09
470 4 0.001 -0.00585214 0 -0.0325157 1.50122e-05 0 -8.70578e-06 3.72583e-09 7.91038e-09
471 4 0.001 -0.00572126 0 -0.0318934 1.16458e-05 0 -7.87062e-06 1.04312e-08 7.93619e-09
619 5 0.001 -0.00179879 0 -0.0330358 -6.82026e-06 0 7.59328e-06 1.75376e-08 7.21684e-09
620 5 0.001 -0.00175059 0 -0.0324016 -9.38269e-06 0 7.9627e-06 2.65891e-08 7.22788e-09
769 6 0.001 0.00250345 0 -0.03301 -3.23416e-06 0 -1.54883e-06 6.16013e-08 6.9364e-09
770 6 0.001 0.00247888 0 -0.0323744 -4.28726e-06 0 -1.50431e-06 7.09538e-08 6.96087e-09
919 7 0.001 0.00681438 0 -0.0330388 1.33522e-05 0 6.61887e-06 1.25954e-07 6.11317e-09
920 7 0.001 0.00671932 0 -0.0324098 1.47395e-05 0 6.83808e-06 1.29954e-07 6.11565e-09
1069 8 0.001 0.0110839 0 -0.0331247 -1.56988e-05 0 -2.80935e-06 2.06859e-07 3.65474e-09
1070 8 0.001 0.0109167 0 -0.0325106 -1.38347e-05 0 -2.26725e-06 1.99094e-07 3.63972e-09
1071 8 0.001 0.0107409 0 -0.0318989 -1.14732e-05 0 -1.55094e-06 1.90541e-07 3.62312e-09
1219 9 0.001 0.0155159 0 -0.0332346 3.83422e-08 0 -1.21192e-08 2.49941e-07 2.54759e-09
1220 9 0.001 0.0152971 0 -0.0326367 1.36664e-07 0 2.89818e-08 2.30121e-07 2.51902e-09
1221 9 0.001 0.0150692 0 -0.0320422 2.2321e-07 0 7.38563e-08 2.10355e-07 2.49068e-09
1371 10 0.001 0.0200684 0 -0.0320423 7.01764e-07 0 4.83269e-07 2.10136e-07 2.47881e-09
1370 10 0.001 0.0202963 0 -0.0326368 6.61939e-07 0 4.72108e-07 2.29891e-07 2.50727e-09
1369 10 0.001 0.0205152 0 -0.0332347 5.73627e-07 0 4.43e-07 2.49709e-07 2.53599e-09
23 1 0.001 -0.0174893 0 -0.0316958 -3.21849e-06 0 1.80033e-06 1.47429e-08 1.52201e-08
24 1 0.001 -0.0171225 0 -0.0311771 -2.54585e-06 0 2.212e-06 5.83544e-09 1.51886e-08
25 1 0.001 -0.0167556 0 -0.0306584 -1.75061e-06 0 2.59602e-06 1.4332e-08 1.52172e-08
173 2 0.001 -0.0129465 0 -0.0314692 9.05338e-06 0 1.25553e-05 9.71968e-09 2.02674e-08
174 2 0.001 -0.012626 0 -0.0309209 7.268e-06 0 1.33233e-05 3.00434e-08 2.03112e-08
175 2 0.001 -0.0123083 0 -0.0303712 5.43734e-06 0 1.40305e-05 6.75305e-08 2.04263e-08
322 3 0.001 -0.00923177 0 -0.0316417 1.61198e-05 0 -1.68987e-05 1.39327e-08 2.38388e-08
323 3 0.001 -0.00899535 0 -0.0310526 1.66577e-05 0 -1.64007e-05 3.5576e-08 2.39615e-08
324 3 0.001 -0.00876223 0 -0.0304622 1.57926e-05 0 -1.52825e-05 6.91192e-08 2.41363e-08
472 4 0.001 -0.00559223 0 -0.0312706 7.47174e-06 0 -6.82423e-06 2.15589e-08 7.97321e-09
473 4 0.001 -0.00546599 0 -0.0306473 2.81491e-06 0 -5.65333e-06 3.69904e-08 8.02112e-09
621 5 0.001 -0.00170561 0 -0.0317671 -1.12144e-05 0 8.18071e-06 3.73602e-08 7.24285e-09
622 5 0.001 -0.00166449 0 -0.0311324 -1.22217e-05 0 8.27263e-06 4.96981e-08 7.26148e-09
623 5 0.001 -0.00162781 0 -0.0304975 -1.24697e-05 0 8.20953e-06 6.3431e-08 7.28344e-09
771 6 0.001 0.00244897 0 -0.031739 -4.84869e-06 0 -1.47141e-06 8.05095e-08 6.98571e-09
773 6 0.001 0.00237176 0 -0.0304693 -3.94169e-06 0 -1.24594e-06 9.97565e-08 7.03531e-09
772 6 0.001 0.00241337 0 -0.031104 -4.74507e-06 0 -1.39616e-06 9.01493e-08 7.01062e-09
921 7 0.001 0.0066171 0 -0.0317819 1.53828e-05 0 6.91438e-06 1.33412e-07 6.1172e-09
922 7 0.001 0.00650764 0 -0.0311552 1.5228e-05 0 6.87262e-06 1.36302e-07 6.11776e-09
923 7 0.001 0.00639088 0 -0.0305299 1.42391e-05 0 6.63564e-06 1.38595e-07 6.11729e-09
1072 8 0.001 0.0105566 0 -0.0312896 -8.77351e-06 0 -7.05383e-07 1.813e-07 3.60516e-09
1073 8 0.001 0.0103642 0 -0.0306829 -5.88404e-06 0 2.30653e-07 1.71482e-07 3.5861e-09
1222 9 0.001 0.0148328 0 -0.031451 2.96573e-07 0 1.09014e-07 1.90786e-07 2.46277e-09
1223 9 0.001 0.0145882 0 -0.0308632 3.50832e-07 0 1.35723e-07 1.71553e-07 2.43549e-09
1372 10 0.001 0.0198319 0 -0.0314512 6.95901e-07 0 4.69368e-07 1.90586e-07 2.45082e-09
1373 10 0.001 0.0195873 0 -0.0308634 6.45519e-07 0 4.30509e-07 1.71377e-07 2.4235e-09
26 1 0.001 -0.0163903 0 -0.0301386 -7.00543e-07 0 2.88212e-06 4.007e-08 1.53053e-08
27 1 0.001 -0.0160281 0 -0.0296166 5.83923e-07 0 2.96992e-06 8.25949e-08 1.54519e-08
28 1 0.001 -0.0156704 0 -0.0290916 2.04784e-06 0 2.85608e-06 1.41166e-07 1.56551e-08
176 2 0.001 -0.011995 0 -0.0298189 3.96456e-06 0 1.43173e-05 1.21423e-07 2.06106e-08
177 2 0.001 -0.0116875 0 -0.0292633 3.07371e-06 0 1.4272e-05 1.90623e-07 2.08606e-08
325 3 0.001 -0.00853389 0 -0.0298699 1.3507e-05 0 -1.36593e-05 1.13926e-07 2.43608e-08
326 3 0.001 -0.00831178 0 -0.0292753 9.74147e-06 0 -1.15233e-05 1.69089e-07 2.46318e-08
474 4 0.001 -0.00534347 0 -0.0300233 -1.98912e-06 0 -4.42821e-06 5.65351e-08 8.07942e-09
475 4 0.001 -0.00522558 0 -0.0293984 -6.50839e-06 0 -3.17294e-06 7.99315e-08 8.14736e-09
476 4 0.001 -0.00511324 0 -0.0287724 -1.04819e-05 0 -2.05045e-06 1.06852e-07 8.22402e-09
624 5 0.001 -0.00159616 0 -0.0298622 -1.2115e-05 0 8.17017e-06 7.83727e-08 7.30833e-09
625 5 0.001 -0.00157011 0 -0.0292267 -1.12235e-05 0 8.1196e-06 9.43262e-08 7.33561e-09
774 6 0.001 0.00232382 0 -0.029835 -2.46554e-06 0 -1.00728e-06 1.09219e-07 7.05946e-09
775 6 0.001 0.00226927 0 -0.0292013 -4.02592e-07 0 -6.97188e-07 1.18433e-07 7.08282e-09
924 7 0.001 0.00626678 0 -0.0299059 1.23262e-05 0 6.18386e-06 1.40261e-07 6.11575e-09
925 7 0.001 0.0061353 0 -0.0292835 9.59922e-06 0 5.54916e-06 1.41269e-07 6.11306e-09
1076 8 0.001 0.00974055 0 -0.0288783 2.55281e-06 0 3.18864e-06 1.3971e-07 3.5249e-09
1075 8 0.001 0.00995589 0 -0.0294772 -1.12416e-07 0 2.21869e-06 1.50572e-07 3.54573e-09
1074 8 0.001 0.0101639 0 -0.0300788 -2.95229e-06 0 1.2207e-06 1.61201e-07 3.56621e-09
1224 9 0.001 0.0143359 0 -0.0302786 3.76678e-07 0 1.56384e-07 1.52793e-07 2.40904e-09
1226 9 0.001 0.0138104 0 -0.0291188 3.65802e-07 0 1.66563e-07 1.17209e-07 2.35924e-09
1225 9 0.001 0.0140765 0 -0.0296972 3.76268e-07 0 1.65623e-07 1.34636e-07 2.38356e-09
1376 10 0.001 0.0188095 0 -0.0291189 2.68246e-07 0 2.11083e-07 1.17117e-07 2.34723e-09
1374 10 0.001 0.0193351 0 -0.0302788 5.50392e-07 0 3.78371e-07 1.52644e-07 2.39701e-09
1375 10 0.001 0.0190756 0 -0.0296973 4.16615e-07 0 3.03514e-07 1.34516e-07 2.37154e-09
29 1 0.001 -0.0153189 0 -0.0285624 3.74442e-06 0 2.63756e-06 2.14768e-07 1.59125e-08
30 1 0.001 -0.0149751 0 -0.0280282 5.53168e-06 0 2.44539e-06 3.02118e-07 1.62207e-08
31 1 0.001 -0.0146406 0 -0.0274881 7.16735e-06 0 2.29391e-06 4.01685e-07 1.65754e-08
178 2 0.001 -0.0113877 0 -0.0287036 2.71439e-06 0 1.39201e-05 2.73712e-07 2.11715e-08
179 2 0.001 -0.0110971 0 -0.0281391 2.77985e-06 0 1.31479e-05 3.68982e-07 2.15374e-08
180 2 0.001 -0.0108174 0 -0.0275692 3.33506e-06 0 1.2063e-05 4.7446e-07 2.19518e-08
327 3 0.001 -0.00809734 0 -0.0286779 4.8762e-06 0 -9.0675e-06 2.33437e-07 2.49447e-08
328 3 0.001 -0.00789199 0 -0.0280774 -8.06637e-07 0 -6.32808e-06 3.05545e-07 2.52934e-08
329 3 0.001 -0.00769712 0 -0.0274734 -6.94122e-06 0 -3.52679e-06 3.8376e-07 2.56706e-08
477 4 0.001 -0.00500732 0 -0.0281454 -1.37601e-05 0 -1.00299e-06 1.36911e-07 8.30836e-09
478 4 0.001 -0.00490872 0 -0.0275172 -1.61137e-05 0 -1.57401e-07 1.69671e-07 8.39918e-09
626 5 0.001 -0.00155022 0 -0.028591 -9.97831e-06 0 8.03807e-06 1.11087e-07 7.36479e-09
628 5 0.001 -0.00153099 0 -0.0273192 -6.60506e-06 0 7.64646e-06 1.46189e-07 7.42729e-09
627 5 0.001 -0.00153701 0 -0.0279551 -8.40835e-06 0 7.8797e-06 1.28445e-07 7.39547e-09
776 6 0.001 0.00220783 0 -0.0285682 2.02901e-06 0 -3.14839e-07 1.27301e-07 7.10515e-09
777 6 0.001 0.00213926 0 -0.0279359 4.70804e-06 0 2.04917e-07 1.35736e-07 7.12622e-09
778 6 0.001 0.00206334 0 -0.0273044 7.23914e-06 0 7.56023e-07 1.4366e-07 7.1458e-09
926 7 0.001 0.00599645 0 -0.0286627 6.1612e-06 0 4.6426e-06 1.41591e-07 6.10913e-09
928 7 0.001 0.00569666 0 -0.0274262 -1.86037e-06 0 2.38071e-06 1.4006e-07 6.09732e-09
927 7 0.001 0.00585022 0 -0.0280435 2.22301e-06 0 3.56159e-06 1.41196e-07 6.10392e-09
1077 8 0.001 0.00951816 0 -0.0282819 4.93102e-06 0 4.07937e-06 1.28725e-07 3.50396e-09
1078 8 0.001 0.00928903 0 -0.027688 6.95796e-06 0 4.84201e-06 1.17726e-07 3.48314e-09
1227 9 0.001 0.013538 0 -0.0285433 3.35096e-07 0 1.65626e-07 1.00631e-07 2.33621e-09
1228 9 0.001 0.0132599 0 -0.0279705 2.92646e-07 0 1.48897e-07 8.5015e-08 2.31462e-09
1229 9 0.001 0.0129765 0 -0.0274003 2.35905e-07 0 1.30639e-07 7.04667e-08 2.29459e-09
1377 10 0.001 0.0185371 0 -0.0285434 1.10579e-07 0 1.15955e-07 1.00565e-07 2.32424e-09
1379 10 0.001 0.0179756 0 -0.0274005 -1.82495e-07 0 -7.49342e-08 7.04427e-08 2.28274e-09
1378 10 0.001 0.018259 0 -0.0279707 -4.33531e-08 0 1.47543e-08 8.49723e-08 2.3027e-09
32 1 0.001 -0.0143169 0 -0.0269416 8.45521e-06 0 2.29503e-06 5.117e-07 1.69717e-08
33 1 0.001 -0.0140056 0 -0.0263879 9.21503e-06 0 2.54699e-06 6.30176e-07 1.74037e-08
34 1 0.001 -0.0137082 0 -0.0258266 9.47452e-06 0 3.16392e-06 7.5493e-07 1.78642e-08
181 2 0.001 -0.0105501 0 -0.0269933 4.16203e-06 0 1.07005e-05 5.87948e-07 2.24068e-08
182 2 0.001 -0.0102968 0 -0.0264112 4.9897e-06 0 9.2171e-06 7.0706e-07 2.28936e-08
183 2 0.001 -0.010059 0 -0.0258226 5.6695e-06 0 7.89434e-06 8.2926e-07 2.34021e-08
330 3 0.001 -0.00751408 0 -0.0268657 -1.28863e-05 0 -7.91324e-07 4.66239e-07 2.60677e-08
331 3 0.001 -0.00734417 0 -0.0262542 -1.7964e-05 0 1.4461e-06 5.50992e-07 2.64752e-08
479 4 0.001 -0.00481827 0 -0.0268877 -1.73878e-05 0 5.82797e-07 2.04657e-07 8.49519e-09
480 4 0.001 -0.00473681 0 -0.0262571 -1.74356e-05 0 1.14572e-06 2.41364e-07 8.59498e-09
629 5 0.001 -0.00153264 0 -0.0266831 -4.79605e-06 0 7.39004e-06 1.64108e-07 7.45985e-09
630 5 0.001 -0.00154243 0 -0.0260472 -3.07401e-06 0 7.06899e-06 1.81991e-07 7.49278e-09
779 6 0.001 0.00197987 0 -0.0266739 9.39314e-06 0 1.25824e-06 1.50999e-07 7.16377e-09
780 6 0.001 0.00188866 0 -0.0260444 1.09696e-05 0 1.745e-06 1.57689e-07 7.17999e-09
930 7 0.001 0.00536773 0 -0.0261972 -9.59066e-06 0 1.57723e-07 1.35503e-07 6.07935e-09
929 7 0.001 0.0055358 0 -0.0268107 -5.90187e-06 0 1.22452e-06 1.38165e-07 6.08919e-09
1079 8 0.001 0.00905348 0 -0.0270967 8.55998e-06 0 5.44843e-06 1.06811e-07 3.46265e-09
1081 8 0.001 0.00856446 0 -0.0259214 1.03523e-05 0 6.1301e-06 8.56055e-08 3.42332e-09
1080 8 0.001 0.00881184 0 -0.0265078 9.70768e-06 0 5.88578e-06 9.60759e-08 3.44266e-09
1231 9 0.001 0.0123961 0 -0.0262669 1.06336e-07 0 9.4424e-08 4.4955e-08 2.25966e-09
1230 9 0.001 0.0126884 0 -0.0268325 1.71756e-07 0 1.1164e-07 5.70836e-08 2.27624e-09
1381 10 0.001 0.0173951 0 -0.0262671 -3.8147e-07 0 -2.20957e-07 4.49549e-08 2.24797e-09
1380 10 0.001 0.0176875 0 -0.0268327 -2.93767e-07 0 -1.54187e-07 5.70738e-08 2.26446e-09
35 1 0.001 -0.0134264 0 -0.0252574 9.02881e-06 0 4.1317e-06 8.8361e-07 1.83447e-08
36 1 0.001 -0.0131616 0 -0.0246802 7.83371e-06 0 5.30289e-06 1.01373e-06 1.88363e-08
184 2 0.001 -0.00983822 0 -0.0252274 5.74871e-06 0 6.86345e-06 9.51909e-07 2.3921e-08
185 2 0.001 -0.00963591 0 -0.0246258 5.13441e-06 0 5.85297e-06 1.07231e-06 2.44388e-08
332 3 0.001 -0.00718864 0 -0.025639 -2.14869e-05 0 3.19228e-06 6.35945e-07 2.68832e-08
333 3 0.001 -0.00704866 0 -0.02502 -2.35162e-05 0 4.42554e-06 7.19002e-07 2.72812e-08
334 3 0.001 -0.00692531 0 -0.0243975 -2.3691e-05 0 5.14566e-06 7.98112e-07 2.76592e-08
481 4 0.001 -0.00466513 0 -0.0256252 -1.65611e-05 0 1.62291e-06 2.79271e-07 8.69716e-09
482 4 0.001 -0.004604 0 -0.0249923 -1.49192e-05 0 1.97435e-06 3.17847e-07 8.80035e-09
483 4 0.001 -0.00455413 0 -0.0243584 -1.30543e-05 0 2.35853e-06 3.56564e-07 8.90318e-09
631 5 0.001 -0.00156078 0 -0.0254115 -1.42278e-06 0 6.67144e-06 1.99632e-07 7.52575e-09
632 5 0.001 -0.0015881 0 -0.0247761 1.1985e-07 0 6.27409e-06 2.16828e-07 7.55836e-09
781 6 0.001 0.00178957 0 -0.0254161 1.18715e-05 0 2.08722e-06 1.63666e-07 7.19435e-09
782 6 0.001 0.00168245 0 -0.0247892 1.19322e-05 0 2.14615e-06 1.68872e-07 7.2069e-09
931 7 0.001 0.00519254 0 -0.0255856 -1.26113e-05 0 -7.90828e-07 1.32075e-07 6.06777e-09
932 7 0.001 0.00501033 0 -0.0249761 -1.46358e-05 0 -1.49486e-06 1.27903e-07 6.05445e-09
933 7 0.001 0.00482125 0 -0.0243687 -1.55551e-05 0 -1.85917e-06 1.2302e-07 6.03946e-09
1082 8 0.001 0.00831167 0 -0.0253372 1.05062e-05 0 6.1565e-06 7.54791e-08 3.40476e-09
1083 8 0.001 0.00805383 0 -0.0247552 1.0159e-05 0 5.96066e-06 6.57682e-08 3.3871e-09
1232 9 0.001 0.0120999 0 -0.0257033 5.19767e-08 0 7.89468e-08 3.41612e-08 2.24494e-09
1233 9 0.001 0.0118005 0 -0.0251413 8.00607e-09 0 7.07143e-08 2.47738e-08 2.23216e-09
1234 9 0.001 0.0114984 0 -0.0245809 -1.3038e-08 0 6.71744e-08 1.68545e-08 2.22139e-09
1382 10 0.001 0.017099 0 -0.0257034 -4.35977e-07 0 -2.68892e-07 3.4167e-08 2.23335e-09
1384 10 0.001 0.0164974 0 -0.024581 -4.42869e-07 0 -3.07048e-07 1.68628e-08 2.21005e-09
1383 10 0.001 0.0167996 0 -0.0251415 -4.58253e-07 0 -2.95988e-07 2.47821e-08 2.22069e-09
37 1 0.001 -0.0129152 0 -0.0240948 5.92311e-06 0 6.60109e-06 1.14269e-06 1.93289e-08
38 1 0.001 -0.0126888 0 -0.0235015 3.5902e-06 0 7.91819e-06 1.26789e-06 1.98117e-08
39 1 0.001 -0.0124837 0 -0.0229006 1.05646e-06 0 9.12208e-06 1.38669e-06 2.02734e-08
186 2 0.001 -0.0094534 0 -0.0240179 3.87266e-06 0 4.86506e-06 1.18776e-06 2.49435e-08
187 2 0.001 -0.00929193 0 -0.0234041 1.89359e-06 0 4.05626e-06 1.29561e-06 2.54223e-08
188 2 0.001 -0.00915265 0 -0.0227849 -6.43395e-07 0 3.32975e-06 1.39334e-06 2.58626e-08
335 3 0.001 -0.00681958 0 -0.0237719 -2.20914e-05 0 5.45417e-06 8.7133e-07 2.80073e-08
336 3 0.001 -0.00673236 0 -0.0231434 -1.85571e-05 0 5.56328e-06 9.36879e-07 2.83166e-08
484 4 0.001 -0.00451623 0 -0.0237236 -1.10715e-05 0 2.81737e-06 3.94894e-07 9.00417e-09