ITEM: TIMESTEP
1800000
ITEM: NUMBER OF ATOMS
1500
ITEM: BOX BOUNDS ff ff ff
-2.5000000000000001e-02 2.5000000000000001e-02
-5.0000000000000001e-03 5.0000000000000001e-03
-5.0000000000000003e-02 5.0000000000000003e-02
ITEM: ATOMS id type radius x y z fx fy fz c_bendingE c_stretchingE
1 1 0.001 -0.0225 0 -0.04408 -0.145902 0 -3.8e-09 7.18796e-07 1.59293e-34
151 2 0.001 -0.0175 0 -0.04408 -0.138576 0 -3.8e-09 6.4839e-07 1.59293e-34
301 3 0.001 -0.0125 0 -0.04408 -0.115203 0 -3.8e-09 4.48049e-07 1.59293e-34
451 4 0.001 -0.0075 0 -0.04408 -0.0794571 0 -3.8e-09 2.13101e-07 1.59293e-34
601 5 0.001 -0.0025 0 -0.04408 -0.0455619 0 -3.8e-09 7.00612e-08 1.59293e-34
751 6 0.001 0.0025 0 -0.04408 -0.0201743 0 -3.8e-09 1.37357e-08 1.59293e-34
901 7 0.001 0.0075 0 -0.04408 0.00551889 0 -3.8e-09 1.02791e-09 1.59293e-34
1051 8 0.001 0.0125 0 -0.04408 0.0325155 0 -3.8e-09 3.56814e-08 1.59293e-34
1201 9 0.001 0.0175 0 -0.04408 0.0660758 0 -3.8e-09 1.47361e-07 1.59293e-34
1351 10 0.001 0.0225 0 -0.04408 0.0722402 0 -3.8e-09 1.76143e-07 1.59293e-34
2 1 0.001 -0.0225 0 -0.0434424 0.145805 0 -0.0165756 1.43102e-06 1.13864e-08
3 1 0.001 -0.0224706 0 -0.0428083 -6.04575e-07 0 3.40385e-07 2.1293e-06 2.27056e-08
152 2 0.001 -0.0175 0 -0.0434424 0.138733 0 -0.0184736 1.28777e-06 1.41281e-08
153 2 0.001 -0.0174721 0 -0.0428085 -6.66603e-07 0 6.00217e-07 1.91085e-06 2.81635e-08
302 3 0.001 -0.0125 0 -0.0434424 0.115679 0 -0.0202204 8.86742e-07 1.69198e-08
303 3 0.001 -0.0124768 0 -0.0428086 1.21966e-06 0 -8.36373e-07 1.31065e-06 3.37451e-08
452 4 0.001 -0.0075 0 -0.0434424 0.0822848 0 -0.0109806 4.09921e-07 4.9369e-09
453 4 0.001 -0.00748396 0 -0.0428068 -4.42501e-07 0 2.20044e-07 5.89811e-07 9.80282e-09
602 5 0.001 -0.0025 0 -0.0434424 0.0480682 0 -0.0094684 1.32248e-07 3.69211e-09
603 5 0.001 -0.0024908 0 -0.0428065 3.31798e-07 0 -1.45987e-07 1.86682e-07 7.35547e-09
752 6 0.001 0.0025 0 -0.0434424 0.0225382 0 -0.00941428 2.43757e-08 3.66694e-09
753 6 0.001 0.00250408 0 -0.0428064 2.74918e-07 0 1.61734e-07 3.226e-08 7.32297e-09
902 7 0.001 0.0075 0 -0.0434424 -0.00346476 0 -0.00839766 2.9536e-09 2.92977e-09
903 7 0.001 0.00749888 0 -0.0428062 5.16701e-08 0 -1.75791e-07 6.0436e-09 5.86306e-09
1052 8 0.001 0.0125 0 -0.0434424 -0.0310301 0 -0.00729492 7.45185e-08 2.21802e-09
1053 8 0.001 0.0124934 0 -0.0428061 -2.00904e-07 0 2.84911e-08 1.16457e-07 4.44499e-09
1202 9 0.001 0.0175 0 -0.0434424 -0.0658274 0 -0.00607068 2.95261e-07 1.5317e-09
1203 9 0.001 0.0174866 0 -0.042806 1.34654e-07 0 2.13433e-08 4.43132e-07 3.064e-09
1352 10 0.001 0.0225 0 -0.0434424 -0.0722371 0 -0.00588993 3.51643e-07 1.43929e-09
1353 10 0.001 0.0224854 0 -0.042806 -1.03399e-08 0 -1.47976e-08 5.25848e-07 2.87634e-09
4 1 0.001 -0.0224119 0 -0.0421761 -1.65101e-06 0 7.33696e-07 2.0878e-06 2.25247e-08
5 1 0.001 -0.0223245 0 -0.0415473 -2.94978e-06 0 1.2258e-06 2.02535e-06 2.22538e-08
6 1 0.001 -0.0222089 0 -0.0409231 -4.36592e-06 0 1.78665e-06 1.94341e-06 2.19009e-08
154 2 0.001 -0.0174165 0 -0.0421764 -1.70316e-06 0 1.28287e-06 1.86233e-06 2.79267e-08
155 2 0.001 -0.0173336 0 -0.0415473 -2.83655e-06 0 2.0297e-06 1.79331e-06 2.7591e-08
156 2 0.001 -0.0172243 0 -0.0409222 -3.81785e-06 0 2.76262e-06 1.70554e-06 2.71669e-08
304 3 0.001 -0.0124307 0 -0.042176 3.32925e-06 0 -1.80546e-06 1.26669e-06 3.35161e-08
305 3 0.001 -0.012362 0 -0.0415455 5.82865e-06 0 -2.87079e-06 1.20771e-06 3.32111e-08
306 3 0.001 -0.0122715 0 -0.0409177 8.1901e-06 0 -3.92239e-06 1.13523e-06 3.28386e-08
454 4 0.001 -0.0074525 0 -0.0421718 -1.11523e-06 0 4.31566e-07 5.39266e-07 9.65901e-09
455 4 0.001 -0.00740633 0 -0.0415377 -1.83226e-06 0 6.50315e-07 4.87511e-07 9.51261e-09
456 4 0.001 -0.0073462 0 -0.0409048 -2.47186e-06 0 8.64417e-07 4.35284e-07 9.36581e-09
604 5 0.001 -0.00247292 0 -0.0421707 8.51926e-07 0 -3.16055e-07 1.63514e-07 7.29884e-09
605 5 0.001 -0.00244694 0 -0.0415352 1.51694e-06 0 -4.89577e-07 1.40982e-07 7.2442e-09
606 5 0.001 -0.00241344 0 -0.0409 2.27452e-06 0 -7.1083e-07 1.19355e-07 7.19219e-09
754 6 0.001 0.00251174 0 -0.0421704 7.29914e-07 0 3.23152e-07 2.40252e-08 7.30235e-09
755 6 0.001 0.00252249 0 -0.0415345 1.25976e-06 0 4.58648e-07 1.69034e-08 7.28424e-09
756 6 0.001 0.00253581 0 -0.0408986 1.77032e-06 0 6.04575e-07 1.09796e-08 7.26885e-09
904 7 0.001 0.00749624 0 -0.04217 1.49354e-07 0 -3.5739e-07 9.52423e-09 5.87108e-09
905 7 0.001 0.00749167 0 -0.0415339 2.93505e-07 0 -5.34715e-07 1.37649e-08 5.88103e-09
906 7 0.001 0.00748476 0 -0.0408977 4.18504e-07 0 -6.87748e-07 1.87208e-08 5.8928e-09
1054 8 0.001 0.01248 0 -0.0421699 -5.74915e-07 0 5.17868e-08 1.25731e-07 4.46268e-09
1055 8 0.001 0.0124595 0 -0.0415338 -1.0869e-06 0 6.74199e-08 1.34752e-07 4.47987e-09
1056 8 0.001 0.0124315 0 -0.0408981 -1.69314e-06 0 6.9988e-08 1.43431e-07 4.49639e-09
1206 9 0.001 0.0173664 0 -0.0409003 9.94349e-07 0 1.2621e-07 4.37792e-07 3.05543e-09
1205 9 0.001 0.0174198 0 -0.0415347 6.68447e-07 0 8.41601e-08 4.41258e-07 3.06096e-09
1204 9 0.001 0.0174599 0 -0.04217 3.69596e-07 0 5.05316e-08 4.43044e-07 3.06383e-09
1354 10 0.001 0.0224562 0 -0.04217 -3.1314e-08 0 -2.67175e-08 5.21973e-07 2.8704e-09
1355 10 0.001 0.0224125 0 -0.0415349 -5.97042e-08 0 -4.16673e-08 5.16177e-07 2.86154e-09
1356 10 0.001 0.0223545 0 -0.040901 -9.16128e-08 0 -5.56267e-08 5.08505e-07 2.84982e-09
7 1 0.001 -0.0220658 0 -0.0403045 -5.76835e-06 0 2.43954e-06 1.84386e-06 2.14762e-08
8 1 0.001 -0.0218964 0 -0.0396926 -6.895e-06 0 3.07956e-06 1.72895e-06 2.09913e-08
157 2 0.001 -0.0170892 0 -0.0403022 -4.41633e-06 0 3.3862e-06 1.60121e-06 2.6667e-08
158 2 0.001 -0.0169294 0 -0.039688 -4.49694e-06 0 3.86682e-06 1.48286e-06 2.61056e-08
307 3 0.001 -0.01216 0 -0.0402933 1.00019e-05 0 -4.88387e-06 1.05113e-06 3.2409e-08
308 3 0.001 -0.0120282 0 -0.0396729 1.10003e-05 0 -5.70116e-06 9.57572e-07 3.19343e-08
457 4 0.001 -0.0072729 0 -0.0402732 -2.93498e-06 0 1.04662e-06 3.83316e-07 9.22072e-09
458 4 0.001 -0.00718727 0 -0.0396431 -3.0664e-06 0 1.19133e-06 3.32326e-07 9.07931e-09
607 5 0.001 -0.00237303 0 -0.0402653 3.13921e-06 0 -9.42785e-07 9.88886e-08 7.14341e-09
608 5 0.001 -0.00232633 0 -0.039631 4.06422e-06 0 -1.14558e-06 7.98251e-08 7.09839e-09
757 6 0.001 0.0025512 0 -0.0402628 2.25685e-06 0 7.49802e-07 6.32518e-09 7.25632e-09
758 6 0.001 0.00256813 0 -0.0396269 2.45442e-06 0 9.02609e-07 2.99762e-09 7.24679e-09
907 7 0.001 0.00747512 0 -0.0402616 5.47202e-07 0 -8.23412e-07 2.43398e-08 5.90625e-09
908 7 0.001 0.00746236 0 -0.0396256 6.69257e-07 0 -9.44092e-07 3.05626e-08 5.92124e-09
1057 8 0.001 0.012396 0 -0.0402627 -2.34166e-06 0 6.28952e-08 1.51681e-07 4.51205e-09
1058 8 0.001 0.0123527 0 -0.0396278 -2.97646e-06 0 4.75697e-08 1.59416e-07 4.52668e-09
1207 9 0.001 0.0172997 0 -0.0402672 1.31583e-06 0 1.74779e-07 4.3268e-07 3.0473e-09
1208 9 0.001 0.0172199 0 -0.0396357 1.60222e-06 0 2.23342e-07 4.25965e-07 3.03667e-09
1357 10 0.001 0.0222821 0 -0.0402685 -1.24756e-07 0 -7.08361e-08 4.99017e-07 2.83537e-09
1358 10 0.001 0.0221957 0 -0.0396378 -1.59132e-07 0 -8.8362e-08 4.87789e-07 2.81831e-09
9 1 0.001 -0.0217016 0 -0.0390882 -7.69979e-06 0 3.6434e-06 1.60121e-06 2.04592e-08
10 1 0.001 -0.0214829 0 -0.0384921 -8.08175e-06 0 4.09146e-06 1.4634e-06 1.98931e-08
11 1 0.001 -0.0212415 0 -0.0379048 -7.93295e-06 0 4.34019e-06 1.31844e-06 1.93064e-08
159 2 0.001 -0.0167461 0 -0.0390804 -3.99999e-06 0 4.19401e-06 1.35333e-06 2.5498e-08
160 2 0.001 -0.0165405 0 -0.0384799 -3.04015e-06 0 4.35351e-06 1.21567e-06 2.48598e-08
161 2 0.001 -0.0163142 0 -0.0378869 -1.71053e-06 0 4.33607e-06 1.07304e-06 2.42065e-08
309 3 0.001 -0.0118773 0 -0.0390567 1.1018e-05 0 -6.31114e-06 8.5698e-07 3.14278e-08
310 3 0.001 -0.0117084 0 -0.0384452 9.98875e-06 0 -6.63842e-06 7.51955e-07 3.09036e-08
311 3 0.001 -0.0115229 0 -0.0378386 8.00401e-06 0 -6.63847e-06 6.45201e-07 3.0376e-08
459 4 0.001 -0.0070902 0 -0.0390147 -2.82277e-06 0 1.26924e-06 2.83002e-07 8.94342e-09
460 4 0.001 -0.00698261 0 -0.038388 -2.17596e-06 0 1.25793e-06 2.36001e-07 8.81473e-09
609 5 0.001 -0.002274 0 -0.0389971 5.03371e-06 0 -1.35027e-06 6.23916e-08 7.05759e-09
610 5 0.001 -0.00221669 0 -0.0383636 5.89163e-06 0 -1.56298e-06 4.67975e-08 7.02146e-09
759 6 0.001 0.00258607 0 -0.0389912 2.32079e-06 0 1.05315e-06 1.03953e-09 7.24038e-09
760 6 0.001 0.00260449 0 -0.0383554 1.90338e-06 0 1.20206e-06 4.77639e-10 7.23716e-09
909 7 0.001 0.0074461 0 -0.0389896 7.5606e-07 0 -1.09132e-06 3.73235e-08 5.93764e-09
910 7 0.001 0.00742597 0 -0.0383537 7.99821e-07 0 -1.23239e-06 4.45509e-08 5.9553e-09
1059 8 0.001 0.0123013 0 -0.0389935 -3.54182e-06 0 3.2832e-08 1.66559e-07 4.5401e-09
1060 8 0.001 0.0122418 0 -0.03836 -3.987e-06 0 1.52343e-08 1.73033e-07 4.55216e-09
1209 9 0.001 0.0171271 0 -0.0390059 1.82978e-06 0 2.6874e-07 4.17707e-07 3.02364e-09
1210 9 0.001 0.0170215 0 -0.0383782 1.98491e-06 0 3.033e-07 4.07974e-07 3.00835e-09
1359 10 0.001 0.0220954 0 -0.0390091 -1.9291e-07 0 -1.05286e-07 4.74909e-07 2.79881e-09
1360 10 0.001 0.0219814 0 -0.0383828 -2.25128e-07 0 -1.23495e-07 4.60477e-07 2.77703e-09
12 1 0.001 -0.0209789 0 -0.0373265 -7.30477e-06 0 4.37021e-06 1.1693e-06 1.87122e-08
13 1 0.001 -0.0206968 0 -0.0367575 -6.30219e-06 0 4.18306e-06 1.01899e-06 1.81227e-08
162 2 0.001 -0.0160686 0 -0.0373016 -9.86023e-08 0 4.17995e-06 9.28679e-07 2.35532e-08
163 2 0.001 -0.0158053 0 -0.036724 1.58516e-06 0 3.91174e-06 7.85779e-07 2.29142e-08
312 3 0.001 -0.011322 0 -0.0372368 5.1768e-06 0 -6.2861e-06 5.39447e-07 2.9859e-08
313 3 0.001 -0.0111073 0 -0.0366398 1.82067e-06 0 -5.63133e-06 4.37369e-07 2.93658e-08
461 4 0.001 -0.00686544 0 -0.037763 -1.14826e-06 0 1.15965e-06 1.91938e-07 8.69473e-09
462 4 0.001 -0.00673966 0 -0.0371397 1.18771e-07 0 1.0102e-06 1.51381e-07 8.58476e-09
463 4 0.001 -0.00660627 0 -0.0365179 1.36052e-06 0 8.40297e-07 1.14852e-07 8.48598e-09
611 5 0.001 -0.00215509 0 -0.0377305 6.6017e-06 0 -1.75386e-06 3.32329e-08 6.99043e-09
612 5 0.001 -0.00208989 0 -0.0370978 7.06386e-06 0 -1.92556e-06 2.18662e-08 6.96487e-09
613 5 0.001 -0.00202179 0 -0.0364654 7.17297e-06 0 -2.04069e-06 1.28428e-08 6.94508e-09
761 6 0.001 0.00262286 0 -0.0377196 1.21163e-06 0 1.39522e-06 1.32174e-09 7.23713e-09
762 6 0.001 0.00264064 0 -0.0370838 3.63417e-07 0 1.58091e-06 3.56388e-09 7.24026e-09
763 6 0.001 0.0026573 0 -0.036448 -5.30937e-07 0 1.75968e-06 7.17791e-09 7.24651e-09
911 7 0.001 0.00740161 0 -0.037718 8.14323e-07 0 -1.35717e-06 5.21678e-08 5.97405e-09
912 7 0.001 0.00737268 0 -0.0370825 8.18216e-07 0 -1.45823e-06 6.00928e-08 5.99368e-09
913 7 0.001 0.00733883 0 -0.0364472 7.78068e-07 0 -1.54702e-06 6.8241e-08 6.01398e-09
1061 8 0.001 0.012174 0 -0.0377272 -4.2724e-06 0 7.17937e-09 1.78772e-07 4.56272e-09
1062 8 0.001 0.0120977 0 -0.0370955 -4.37643e-06 0 2.44205e-08 1.83718e-07 4.57165e-09
1063 8 0.001 0.0120129 0 -0.0364648 -4.26174e-06 0 6.8029e-08 1.87821e-07 4.57884e-09
1211 9 0.001 0.0169032 0 -0.0377527 2.05739e-06 0 3.25468e-07 3.96845e-07 2.99094e-09
1212 9 0.001 0.0167725 0 -0.0371296 2.04623e-06 0 3.33743e-07 3.84409e-07 2.97157e-09
1213 9 0.001 0.0166297 0 -0.0365093 1.95932e-06 0 3.22339e-07 3.70765e-07 2.95041e-09
1361 10 0.001 0.021854 0 -0.037759 -2.51344e-07 0 -1.40566e-07 4.44605e-07 2.75319e-09
1362 10 0.001 0.0217135 0 -0.0371381 -2.71519e-07 0 -1.55397e-07 4.27417e-07 2.72747e-09
1363 10 0.001 0.0215603 0 -0.0365202 -2.81924e-07 0 -1.68739e-07 4.09045e-07 2.70012e-09
14 1 0.001 -0.0203966 0 -0.0361977 -4.99904e-06 0 3.77356e-06 8.70428e-07 1.75493e-08
15 1 0.001 -0.0200801 0 -0.035647 -3.5394e-06 0 3.22466e-06 7.2647e-07 1.70022e-08
16 1 0.001 -0.019749 0 -0.035105 -2.04161e-06 0 2.60213e-06 5.89805e-07 1.64905e-08
164 2 0.001 -0.0155259 0 -0.0361539 3.07518e-06 0 3.62738e-06 6.47456e-07 2.23024e-08
165 2 0.001 -0.0152321 0 -0.0355911 4.2296e-06 0 3.47782e-06 5.1668e-07 2.17299e-08
166 2 0.001 -0.0149257 0 -0.035035 4.84159e-06 0 3.58128e-06 3.96214e-07 2.12069e-08
314 3 0.001 -0.0108801 0 -0.0360474 -1.67478e-06 0 -4.81128e-06 3.41517e-07 2.89086e-08
315 3 0.001 -0.0106421 0 -0.0354592 -5.11686e-06 0 -3.91556e-06 2.54245e-07 2.84983e-08
316 3 0.001 -0.0103949 0 -0.0348749 -8.05992e-06 0 -3.16287e-06 1.77658e-07 2.81441e-08
464 4 0.001 -0.00646628 0 -0.0358976 2.34315e-06 0 6.98114e-07 8.28165e-08 8.39944e-09
465 4 0.001 -0.00632071 0 -0.0352786 2.80837e-06 0 6.41836e-07 5.5687e-08 8.32606e-09
614 5 0.001 -0.00195151 0 -0.0358332 6.92717e-06 0 -2.11848e-06 6.28229e-09 6.93133e-09
615 5 0.001 -0.00187975 0 -0.0352012 6.39401e-06 0 -2.15971e-06 2.2764e-09 6.92383e-09
764 6 0.001 0.00267231 0 -0.0358122 -1.32592e-06 0 1.93416e-06 1.21197e-08 7.25576e-09
765 6 0.001 0.00268516 0 -0.0351763 -1.89858e-06 0 2.06698e-06 1.8328e-08 7.26789e-09
914 7 0.001 0.00729975 0 -0.0358123 7.06914e-07 0 -1.62926e-06 7.65242e-08 6.03474e-09
915 7 0.001 0.00725512 0 -0.0351777 6.54249e-07 0 -1.71057e-06 8.48527e-08 6.05575e-09
1064 8 0.001 0.0119195 0 -0.0358353 -3.92573e-06 0 1.46005e-07 1.91042e-07 4.58422e-09
1065 8 0.001 0.0118174 0 -0.0352072 -3.36976e-06 0 2.59698e-07 1.93352e-07 4.58774e-09
1214 9 0.001 0.0164749 0 -0.0358918 1.8099e-06 0 2.92035e-07 3.56018e-07 2.92765e-09
1215 9 0.001 0.0163085 0 -0.0352773 1.61498e-06 0 2.48293e-07 3.40282e-07 2.90347e-09
1364 10 0.001 0.0213945 0 -0.0359055 -2.86268e-07 0 -1.80059e-07 3.8963e-07 2.67137e-09
1365 10 0.001 0.0212167 0 -0.0352942 -2.80922e-07 0 -1.8742e-07 3.69319e-07 2.64145e-09
17 1 0.001 -0.0194047 0 -0.034571 -6.21636e-07 0 1.98608e-06 4.62933e-07 1.60219e-08
18 1 0.001 -0.0190492 0 -0.0340446 6.20147e-07 0 1.42198e-06 3.48139e-07 1.56029e-08
19 1 0.001 -0.0186839 0 -0.0335247 1.5986e-06 0 9.83483e-07 2.47455e-07 1.52392e-08
167 2 0.001 -0.0146084 0 -0.034485 4.97623e-06 0 3.96468e-06 2.88574e-07 2.07424e-08
168 2 0.001 -0.0142818 0 -0.0339405 4.64153e-06 0 4.57502e-06 1.95976e-07 2.03437e-08
169 2 0.001 -0.0139477 0 -0.0334004 3.93257e-06 0 5.28465e-06 1.20306e-07 2.00171e-08
317 3 0.001 -0.0101399 0 -0.0342938 -1.01771e-05 0 -2.7149e-06 1.13564e-07 2.78539e-08
318 3 0.001 -0.00987895 0 -0.0337154 -1.13443e-05 0 -2.60024e-06 6.34392e-08 2.76338e-08
466 4 0.001 -0.00617061 0 -0.0346606 2.68523e-06 0 7.62128e-07 3.38146e-08 8.26659e-09
467 4 0.001 -0.00601702 0 -0.0340435 1.9817e-06 0 1.01564e-06 1.74852e-08 8.22161e-09
468 4 0.001 -0.005861 0 -0.033427 7.68932e-07 0 1.39432e-06 6.91334e-09 8.19159e-09
616 5 0.001 -0.00180725 0 -0.0345693 5.60029e-06 0 -2.15964e-06 8.86653e-10 6.92271e-09
617 5 0.001 -0.00173472 0 -0.0339374 4.53738e-06 0 -2.12928e-06 2.14268e-09 6.92806e-09
618 5 0.001 -0.00166291 0 -0.0333054 3.30409e-06 0 -2.07639e-06 6.04087e-09 6.93987e-09
766 6 0.001 0.00269531 0 -0.0345403 -2.1578e-06 0 2.19572e-06 2.57254e-08 7.28275e-09
767 6 0.001 0.00270227 0 -0.0339043 -1.98139e-06 0 2.3221e-06 3.42208e-08 7.3001e-09
768 6 0.001 0.00270554 0 -0.0332683 -1.37875e-06 0 2.42075e-06 4.37109e-08 7.31973e-09
916 7 0.001 0.00720466 0 -0.0345435 5.91883e-07 0 -1.77576e-06 9.31357e-08 6.0768e-09
918 7 0.001 0.00708517 0 -0.0332768 4.41104e-07 0 -1.9033e-06 1.09204e-07 6.11816e-09
917 7 0.001 0.0071481 0 -0.0339099 5.33596e-07 0 -1.83109e-06 1.01283e-07 6.09767e-09
1066 8 0.001 0.0117065 0 -0.0345806 -2.62647e-06 0 4.11791e-07 1.94733e-07 4.58937e-09
1068 8 0.001 0.0114587 0 -0.0333323 -7.81727e-07 0 8.00371e-07 1.94692e-07 4.58701e-09
1067 8 0.001 0.011587 0 -0.0339556 -1.74314e-06 0 5.94539e-07 1.95179e-07 4.58912e-09
1218 9 0.001 0.015743 0 -0.0334533 9.8954e-07 0 8.66521e-08 2.88366e-07 2.82446e-09
1217 9 0.001 0.0159422 0 -0.034058 1.17799e-06 0 1.39823e-07 3.06328e-07 2.85167e-09
1216 9 0.001 0.0161308 0 -0.034666 1.39528e-06 0 1.9656e-07 3.23677e-07 2.87807e-09
1366 10 0.001 0.0210272 0 -0.0346864 -2.65202e-07 0 -1.88755e-07 3.48267e-07 2.61062e-09
1367 10 0.001 0.0208264 0 -0.0340822 -2.38114e-07 0 -1.87434e-07 3.26632e-07 2.57912e-09
1368 10 0.001 0.0206148 0 -0.0334818 -2.0339e-07 0 -1.83825e-07 3.04574e-07 2.5472e-09
20 1 0.001 -0.0183106 0 -0.0330106 2.2568e-06 0 7.47962e-07 1.6264e-07 1.49351e-08
21 1 0.001 -0.0179309 0 -0.0325012 2.58299e-06 0 7.40937e-07 9.51615e-08 1.4694e-08
22 1 0.001 -0.0175464 0 -0.0319954 2.63747e-06 0 8.8979e-07 4.61771e-08 1.45186e-08
170 2 0.001 -0.0136079 0 -0.032864 3.03069e-06 0 6.05191e-06 6.30847e-08 1.97674e-08
171 2 0.001 -0.0132641 0 -0.0323301 2.03206e-06 0 6.83345e-06 2.5446e-08 1.95978e-08
172 2 0.001 -0.012918 0 -0.0317977 1.05152e-06 0 7.5836e-06 8.1234e-09 1.95104e-08
319 3 0.001 -0.00961356 0 -0.033139 -1.16414e-05 0 -2.73384e-06 2.84105e-08 2.74878e-08
320 3 0.001 -0.00934541 0 -0.0325639 -1.11138e-05 0 -3.17356e-06 9.23939e-09 2.74188e-08
321 3 0.001 -0.00907614 0 -0.0319893 -9.85277e-06 0 -3.92813e-06 6.31895e-09 2.74279e-08
469 4 0.001 -0.00570362 0 -0.0328109 -7.791e-07 0 1.83521e-06 2.2374e-09 8.17685e-09
470 4 0.001 -0.00554593 0 -0.0321948 -2.51734e-06 0 2.32119e-06 3.51581e-09 8.17752e-09
619 5 0.001 -0.00159253 0 -0.0326732 1.95971e-06 0 -1.9783e-06 1.25436e-08 6.95805e-09
620 5 0.001 -0.0015243 0 -0.0320408 5.45205e-07 0 -1.86517e-06 2.15792e-08 6.98241e-09
769 6 0.001 0.00270462 0 -0.0326323 -5.32412e-07 0 2.49128e-06 5.40825e-08 7.3414e-09
770 6 0.001 0.00269905 0 -0.0319963 5.46793e-07 0 2.57992e-06 6.52145e-08 7.36485e-09
920 7 0.001 0.00693928 0 -0.0320129 1.87808e-08 0 -2.0433e-06 1.24021e-07 6.15716e-09
919 7 0.001 0.00701564 0 -0.0326445 2.66594e-07 0 -1.98028e-06 1.16812e-07 6.13806e-09
1069 8 0.001 0.0113218 0 -0.0327109 1.97741e-07 0 1.01681e-06 1.93288e-07 4.58311e-09
1070 8 0.001 0.0111762 0 -0.0320914 1.11724e-06 0 1.23169e-06 1.90987e-07 4.57748e-09
1219 9 0.001 0.0155335 0 -0.0328522 8.48049e-07 0 4.911e-08 2.69927e-07 2.79666e-09
1220 9 0.001 0.0153143 0 -0.0322545 7.70023e-07 0 3.06924e-08 2.5115e-07 2.7685e-09
1370 10 0.001 0.0201606 0 -0.0322922 -1.22184e-07 0 -1.64981e-07 2.59843e-07 2.48309e-09
1369 10 0.001 0.0203927 0 -0.0328851 -1.63641e-07 0 -1.74666e-07 2.82256e-07 2.51511e-09
23 1 0.001 -0.0171587 0 -0.031492 2.49739e-06 0 1.15714e-06 1.65237e-08 1.44107e-08
24 1 0.001 -0.0167694 0 -0.0309898 2.13968e-06 0 1.53207e-06 6.70781e-09 1.43713e-08
25 1 0.001 -0.0163802 0 -0.0304875 1.7325e-06 0 1.9344e-06 1.68995e-08 1.4401e-08
173 2 0.001 -0.0125713 0 -0.0312656 1.43681e-07 0 8.21459e-06 1.14409e-08 1.95061e-08
174 2 0.001 -0.0122257 0 -0.0307328 -5.59785e-07 0 8.68169e-06 3.53116e-08 1.95845e-08
322 3 0.001 -0.00880741 0 -0.0314144 -8.06031e-06 0 -4.84118e-06 1.96742e-08 2.75153e-08
323 3 0.001 -0.00854085 0 -0.0308386 -5.96104e-06 0 -5.84153e-06 4.89673e-08 2.76794e-08
324 3 0.001 -0.0082781 0 -0.030261 -3.78181e-06 0 -6.78788e-06 9.35068e-08 2.79174e-08
471 4 0.001 -0.005389 0 -0.0315785 -4.21247e-06 0 2.78655e-06 1.0725e-08 8.19355e-09
472 4 0.001 -0.0052339 0 -0.0309618 -5.5835e-06 0 3.16735e-06 2.37596e-08 8.22469e-09
473 4 0.001 -0.00508167 0 -0.0303444 -6.42834e-06 0 3.37616e-06 4.24349e-08 8.27055e-09
621 5 0.001 -0.00145896 0 -0.0314081 -8.22191e-07 0 -1.73202e-06 3.3042e-08 7.01269e-09
622 5 0.001 -0.0013972 0 -0.0307751 -2.03568e-06 0 -1.62703e-06 4.67944e-08 7.04857e-09
771 6 0.001 0.00268835 0 -0.0313604 1.74722e-06 0 2.68146e-06 7.69789e-08 7.38978e-09
772 6 0.001 0.0026721 0 -0.0307246 2.89386e-06 0 2.78357e-06 8.92422e-08 7.4159e-09
921 7 0.001 0.00685591 0 -0.0313823 -2.38556e-07 0 -2.09156e-06 1.30751e-07 6.17524e-09
922 7 0.001 0.00676534 0 -0.0307526 -4.78019e-07 0 -2.1198e-06 1.36924e-07 6.19209e-09
1071 8 0.001 0.0110221 0 -0.031474 1.90945e-06 0 1.42624e-06 1.8782e-07 4.5702e-09
1072 8 0.001 0.0108596 0 -0.0308587 2.51785e-06 0 1.57966e-06 1.83825e-07 4.56136e-09
1073 8 0.001 0.0106887 0 -0.0302458 2.90248e-06 0 1.67789e-06 1.79043e-07 4.55106e-09
1221 9 0.001 0.0150856 0 -0.0316604 7.5765e-07 0 3.63351e-08 2.32174e-07 2.74018e-09
1222 9 0.001 0.0148478 0 -0.0310698 8.05102e-07 0 6.79543e-08 2.13143e-07 2.71192e-09
1223 9 0.001 0.0146015 0 -0.0304827 8.98105e-07 0 1.1889e-07 1.94197e-07 2.68394e-09
1371 10 0.001 0.019919 0 -0.0317032 -7.68108e-08 0 -1.52554e-07 2.37496e-07 2.45137e-09
1372 10 0.001 0.0196684 0 -0.0311179 -2.84032e-08 0 -1.34743e-07 2.15377e-07 2.42018e-09
1373 10 0.001 0.0194093 0 -0.0305363 2.14156e-08 0 -1.14142e-07 1.93643e-07 2.38973e-09
26 1 0.001 -0.0159926 0 -0.0299841 1.3578e-06 0 2.29111e-06 4.69307e-08 1.44992e-08
27 1 0.001 -0.0156081 0 -0.0294782 1.11637e-06 0 2.58515e-06 9.62964e-08 1.46649e-08
28 1 0.001 -0.0152285 0 -0.0289687 9.83983e-07 0 2.7701e-06 1.64159e-07 1.48963e-08
175 2 0.001 -0.011883 0 -0.0301982 -1.03512e-06 0 8.89805e-06 7.92411e-08 1.97443e-08
176 2 0.001 -0.0115449 0 -0.0296607 -1.28665e-06 0 8.91323e-06 1.42337e-07 1.99828e-08
177 2 0.001 -0.011213 0 -0.0291194 -1.3734e-06 0 8.7576e-06 2.23322e-07 2.02965e-08
325 3 0.001 -0.00802081 0 -0.0296809 -1.70999e-06 0 -7.62745e-06 1.52259e-07 2.8225e-08
326 3 0.001 -0.00777058 0 -0.0290979 2.53113e-08 0 -8.22161e-06 2.23865e-07 2.85968e-08
474 4 0.001 -0.00493338 0 -0.029726 -6.65495e-06 0 3.43839e-06 6.64911e-08 8.33057e-09
475 4 0.001 -0.00479007 0 -0.0291064 -6.19487e-06 0 3.34384e-06 9.55995e-08 8.40399e-09
623 5 0.001 -0.00133974 0 -0.0301416 -3.07603e-06 0 -1.5611e-06 6.2668e-08 7.08969e-09
624 5 0.001 -0.00128725 0 -0.0295078 -3.85626e-06 0 -1.50922e-06 8.04671e-08 7.13559e-09
625 5 0.001 -0.00124043 0 -0.0288734 -4.32357e-06 0 -1.43312e-06 9.99709e-08 7.18572e-09
773 6 0.001 0.00264985 0 -0.0300889 3.88389e-06 0 2.89668e-06 1.01867e-07 7.44287e-09
774 6 0.001 0.00262121 0 -0.0294536 4.61141e-06 0 2.97517e-06 1.1471e-07 7.47041e-09
775 6 0.001 0.00258577 0 -0.0288186 4.94553e-06 0 3.04517e-06 1.27626e-07 7.49818e-09
923 7 0.001 0.00666742 0 -0.030124 -6.47723e-07 0 -2.12919e-06 1.4247e-07 6.20751e-09
924 7 0.001 0.00656201 0 -0.0294967 -7.58097e-07 0 -2.13994e-06 1.47326e-07 6.22135e-09
925 7 0.001 0.006449 0 -0.0288706 -7.86505e-07 0 -2.1285e-06 1.51436e-07 6.23349e-09
1075 8 0.001 0.0103226 0 -0.0290269 2.91866e-06 0 1.64929e-06 1.67322e-07 4.52655e-09
1074 8 0.001 0.0105097 0 -0.0296351 3.03743e-06 0 1.70246e-06 1.73525e-07 4.53942e-09
1224 9 0.001 0.0143471 0 -0.0298991 1.02322e-06 0 1.83577e-07 1.75479e-07 2.65645e-09
1226 9 0.001 0.0138156 0 -0.0287421 1.28045e-06 0 3.14023e-07 1.3927e-07 2.60369e-09
1225 9 0.001 0.014085 0 -0.029319 1.15905e-06 0 2.51912e-07 1.57125e-07 2.62963e-09
1376 10 0.001 0.0185855 0 -0.0288131 1.62917e-07 0 -5.30994e-08 1.32256e-07 2.30478e-09
1375 10 0.001 0.0188673 0 -0.029384 1.19764e-07 0 -6.99781e-08 1.51937e-07 2.33184e-09
1374 10 0.001 0.0191421 0 -0.0299584 7.15661e-08 0 -9.11223e-08 1.72447e-07 2.36022e-09
29 1 0.001 -0.0148554 0 -0.0284545 9.45605e-07 0 2.85154e-06 2.49355e-07 1.51909e-08
30 1 0.001 -0.0144903 0 -0.0279345 1.00342e-06 0 2.83035e-06 3.50409e-07 1.55451e-08
31 1 0.001 -0.0141349 0 -0.0274079 1.19088e-06 0 2.72283e-06 4.65545e-07 1.59545e-08
178 2 0.001 -0.0108892 0 -0.0285732 -1.27696e-06 0 8.4751e-06 3.20551e-07 2.06801e-08
179 2 0.001 -0.0105751 0 -0.0280213 -1.11158e-06 0 8.0822e-06 4.32038e-07 2.11274e-08
180 2 0.001 -0.0102725 0 -0.0274632 -8.84648e-07 0 7.71932e-06 5.55479e-07 2.16304e-08
327 3 0.001 -0.00752902 0 -0.0285111 1.31091e-06 0 -8.55571e-06 3.0666e-07 2.90257e-08
328 3 0.001 -0.00729771 0 -0.0279203 2.11809e-06 0 -8.62332e-06 3.987e-07 2.95032e-08
329 3 0.001 -0.00707819 0 -0.0273251 2.38768e-06 0 -8.43027e-06 4.97795e-07 3.00193e-08
476 4 0.001 -0.00465276 0 -0.0284855 -5.09129e-06 0 3.10226e-06 1.29369e-07 8.48996e-09
477 4 0.001 -0.00452247 0 -0.0278631 -3.34076e-06 0 2.74496e-06 1.67355e-07 8.58747e-09
478 4 0.001 -0.0044002 0 -0.0272391 -1.16121e-06 0 2.30729e-06 2.09063e-07 8.69542e-09
626 5 0.001 -0.00119992 0 -0.0282387 -4.54633e-06 0 -1.3915e-06 1.20938e-07 7.23948e-09
627 5 0.001 -0.00116637 0 -0.0276036 -4.54671e-06 0 -1.37722e-06 1.43108e-07 7.29629e-09
777 6 0.001 0.00249308 0 -0.02755 4.23087e-06 0 3.10073e-06 1.5308e-07 7.55294e-09
776 6 0.001 0.00254318 0 -0.028184 4.83584e-06 0 3.09736e-06 1.40467e-07 7.52582e-09
926 7 0.001 0.00632831 0 -0.028246 -6.82378e-07 0 -2.07725e-06 1.54753e-07 6.24378e-09
927 7 0.001 0.00619986 0 -0.027623 -4.53692e-07 0 -1.9944e-06 1.57241e-07 6.25213e-09
1078 8 0.001 0.00971522 0 -0.0272171 1.29437e-06 0 1.05202e-06 1.45192e-07 4.48165e-09
1077 8 0.001 0.0099252 0 -0.0278178 2.0126e-06 0 1.32143e-06 1.53093e-07 4.49754e-09
1076 8 0.001 0.0101277 0 -0.0284211 2.56952e-06 0 1.52353e-06 1.60491e-07 4.51255e-09
1227 9 0.001 0.0135394 0 -0.0281684 1.35772e-06 0 3.58668e-07 1.22042e-07 2.5788e-09
1228 9 0.001 0.013257 0 -0.0275979 1.37368e-06 0 3.72601e-07 1.05565e-07 2.55512e-09
1377 10 0.001 0.0182972 0 -0.0282454 1.95108e-07 0 -3.82233e-08 1.13538e-07 2.2792e-09
1378 10 0.001 0.0180028 0 -0.0276808 2.14657e-07 0 -3.07694e-08 9.591e-08 2.25525e-09
32 1 0.001 -0.0137909 0 -0.0268738 1.45109e-06 0 2.58254e-06 5.92706e-07 1.64135e-08
33 1 0.001 -0.01346 0 -0.0263316 1.75932e-06 0 2.39572e-06 7.29582e-07 1.69154e-08
34 1 0.001 -0.0131438 0 -0.0257807 2.07505e-06 0 2.20327e-06 8.73634e-07 1.74521e-08
181 2 0.001 -0.00998311 0 -0.0268981 -6.07843e-07 0 7.33144e-06 6.88292e-07 2.21799e-08
182 2 0.001 -0.00970858 0 -0.0263256 -3.15897e-07 0 6.87002e-06 8.27655e-07 2.27653e-08
183 2 0.001 -0.00945061 0 -0.0257456 -1.48827e-07 0 6.42064e-06 9.7056e-07 2.33745e-08
330 3 0.001 -0.00687197 0 -0.0267251 2.03561e-06 0 -7.94866e-06 6.0155e-07 3.05629e-08
331 3 0.001 -0.0066805 0 -0.0261203 1.23258e-06 0 -7.31654e-06 7.07412e-07 3.11213e-08
479 4 0.001 -0.00428693 0 -0.0266134 1.23851e-06 0 1.90858e-06 2.53957e-07 8.81259e-09
480 4 0.001 -0.00418361 0 -0.025986 3.59688e-06 0 1.54661e-06 3.01466e-07 8.9376e-09
628 5 0.001 -0.00114039 0 -0.0269681 -4.4139e-06 0 -1.36382e-06 1.66207e-07 7.3555e-09
629 5 0.001 -0.00112259 0 -0.0263323 -4.1622e-06 0 -1.34643e-06 1.89949e-07 7.41642e-09
630 5 0.001 -0.00111354 0 -0.0256963 -3.81167e-06 0 -1.29915e-06 2.14042e-07 7.47831e-09
778 6 0.001 0.00243515 0 -0.0269166 3.14794e-06 0 3.0347e-06 1.65311e-07 7.57918e-09
779 6 0.001 0.0023691 0 -0.026284 1.70731e-06 0 2.91593e-06 1.77008e-07 7.60414e-09
928 7 0.001 0.00606362 0 -0.0270016 -1.19522e-07 0 -1.86107e-06 1.58874e-07 6.25846e-09
930 7 0.001 0.0057677 0 -0.0257643 6.55465e-07 0 -1.5253e-06 1.59519e-07 6.26485e-09
929 7 0.001 0.00591956 0 -0.026382 2.4505e-07 0 -1.69666e-06 1.59635e-07 6.26271e-09
1079 8 0.001 0.00949803 0 -0.0266189 4.77463e-07 0 7.35124e-07 1.36856e-07 4.46499e-09
1080 8 0.001 0.00927386 0 -0.0260234 -3.52613e-07 0 3.97912e-07 1.28158e-07 4.44771e-09
1229 9 0.001 0.0129687 0 -0.0270302 1.31228e-06 0 3.50736e-07 8.99545e-08 2.53282e-09
1231 9 0.001 0.0123766 0 -0.0259029 9.47259e-07 0 1.68804e-07 6.17607e-08 2.49284e-09
1230 9 0.001 0.0126751 0 -0.0264653 1.16965e-06 0 2.80796e-07 7.53195e-08 2.51201e-09
1381 10 0.001 0.0170889 0 -0.0260035 1.78678e-07 0 -5.1745e-08 5.0708e-08 2.19446e-09
1379 10 0.001 0.017703 0 -0.0271191 2.16932e-07 0 -2.89007e-08 7.9491e-08 2.23306e-09
1380 10 0.001 0.0173982 0 -0.0265601 2.04023e-07 0 -3.78416e-08 6.43904e-08 2.21276e-09
35 1 0.001 -0.012844 0 -0.0252207 2.27166e-06 0 2.05313e-06 1.02214e-06 1.80146e-08
36 1 0.001 -0.0125623 0 -0.0246516 2.32566e-06 0 1.97807e-06 1.17222e-06 1.85923e-08
184 2 0.001 -0.00921081 0 -0.0251579 -1.40233e-07 0 6.01005e-06 1.11387e-06 2.39943e-08
185 2 0.001 -0.00899074 0 -0.0245625 -3.29615e-07 0 5.68154e-06 1.25437e-06 2.46104e-08
332 3 0.001 -0.00650516 0 -0.0255107 8.35261e-08 0 -6.60676e-06 8.12732e-07 3.1681e-08
333 3 0.001 -0.00634725 0 -0.0248963 -1.17495e-06 0 -5.82112e-06 9.14827e-07 3.22279e-08
334 3 0.001 -0.00620799 0 -0.0242775 -2.33948e-06 0 -5.02629e-06 1.01105e-06 3.27473e-08
481 4 0.001 -0.00409116 0 -0.0253569 5.73202e-06 0 1.23525e-06 3.50984e-07 9.06908e-09
482 4 0.001 -0.00401049 0 -0.0247262 7.44761e-06 0 1.00444e-06 4.01879e-07 9.20549e-09
631 5 0.001 -0.00111377 0 -0.0250603 -3.38557e-06 0 -1.24671e-06 2.38188e-07 7.54042e-09
632 5 0.001 -0.0011238 0 -0.0244244 -2.87017e-06 0 -1.16259e-06 2.62089e-07 7.60199e-09
780 6 0.001 0.00229465 0 -0.0256524 7.35545e-08 0 2.74388e-06 1.88016e-07 7.62742e-09
781 6 0.001 0.00221155 0 -0.0250219 -1.49497e-06 0 2.56843e-06 1.9819e-07 7.6486e-09
782 6 0.001 0.00211959 0 -0.0243926 -2.88109e-06 0 2.38848e-06 2.07391e-07 7.6673e-09
932 7 0.001 0.00544067 0 -0.0245347 1.33274e-06 0 -1.15808e-06 1.56681e-07 6.2629e-09
931 7 0.001 0.00560805 0 -0.0251485 1.04701e-06 0 -1.33743e-06 1.5853e-07 6.26491e-09
1083 8 0.001 0.00856213 0 -0.0242519 -2.28751e-06 0 -4.47221e-07 1.00656e-07 4.39351e-09
1081 8 0.001 0.00904297 0 -0.0254304 -1.12767e-06 0 7.08372e-08 1.19171e-07 4.42994e-09
1082 8 0.001 0.00880564 0 -0.0248399 -1.78764e-06 0 -2.17241e-07 1.09977e-07 4.41182e-09
1234 9 0.001 0.0114567 0 -0.024229 -3.95182e-08 0 -3.54458e-07 2.84233e-08 2.44615e-09
1232 9 0.001 0.0120737 0 -0.0253429 6.54679e-07 0 1.95048e-08 4.93705e-08 2.47541e-09
1233 9 0.001 0.0117669 0 -0.024785 3.15932e-07 0 -1.60626e-07 3.82329e-08 2.45981e-09
1382 10 0.001 0.0167757 0 -0.0254491 1.4415e-07 0 -6.74424e-08 3.85337e-08 2.17826e-09
1384 10 0.001 0.0161396 0 -0.0243459 6.08672e-08 0 -1.05863e-07 1.90165e-08 2.15243e-09
1383 10 0.001 0.0164591 0 -0.0248967 1.04189e-07 0 -8.56269e-08 2.79469e-08 2.16422e-09
37 1 0.001 -0.0123001 0 -0.0240731 2.22024e-06 0 1.96285e-06 1.3209e-06 1.91738e-08
38 1 0.001 -0.0120592 0 -0.0234855 1.97696e-06 0 2.03737e-06 1.46518e-06 1.97467e-08
39 1 0.001 -0.0118409 0 -0.0228892 1.57601e-06 0 2.21131e-06 1.60206e-06 2.02978e-08
186 2 0.001 -0.00879188 0 -0.0239597 -6.22314e-07 0 5.42066e-06 1.38887e-06 2.52076e-08
187 2 0.001 -0.00861561 0 -0.02335 -9.00263e-07 0 5.10121e-06 1.51423e-06 2.57706e-08
188 2 0.001 -0.00846318 0 -0.022734 -1.12862e-06 0 4.68704e-06 1.62752e-06 2.62842e-08
335 3 0.001 -0.00608847 0 -0.0236546 -3.26892e-06 0 -4.26908e-06 1.09889e-06 3.32246e-08
336 3 0.001 -0.00598965 0 -0.0230281 -3.86396e-06 0 -3.62258e-06 1.176e-06 3.36465e-08
483 4 0.001 -0.00394245 0 -0.024094 8.60942e-06 0 8.44597e-07 4.53491e-07 9.34521e-09
484 4 0.001 -0.00388787 0 -0.0234605 9.12647e-06 0 7.69621e-07 5.05141e-07 9.48646e-09
485 4 0.001 -0.00384751 0 -0.022826 9.01038e-06 0 7.60242e-07 5.56137e-07 9.62733e-09
633 5 0.001 -0.00114411 0 -0.0237888 -2.29793e-06 0 -1.04635e-06 2.85451e-07 7.66224e-09