ITEM: TIMESTEP
700000
ITEM: NUMBER OF ATOMS
1500
ITEM: BOX BOUNDS ff ff ff
-2.5000000000000001e-02 2.5000000000000001e-02
-5.0000000000000001e-03 5.0000000000000001e-03
-5.0000000000000003e-02 5.0000000000000003e-02
ITEM: ATOMS id type radius x y z fx fy fz c_bendingE c_stretchingE
1 1 0.001 -0.0225 0 -0.04617 -0.0512081 0 -3.8e-09 8.85029e-08 1.59293e-34
2 1 0.001 -0.0225 0 -0.0455324 0.0515671 0 -0.00693719 1.75386e-07 1.99373e-09
151 2 0.001 -0.0175 0 -0.04617 -0.0611613 0 -3.8e-09 1.26254e-07 1.59293e-34
152 2 0.001 -0.0175 0 -0.0455324 0.0609415 0 -0.0103293 2.52587e-07 4.4308e-09
301 3 0.001 -0.0125 0 -0.04617 -0.067029 0 -3.8e-09 1.51644e-07 1.59293e-34
302 3 0.001 -0.0125 0 -0.0455324 0.0664639 0 -0.011817 3.04706e-07 5.80562e-09
451 4 0.001 -0.0075 0 -0.04617 -0.068704 0 -3.8e-09 1.59319e-07 1.59293e-34
452 4 0.001 -0.0075 0 -0.0455324 0.0683832 0 -0.0142892 3.18679e-07 8.47975e-09
601 5 0.001 -0.0025 0 -0.04617 -0.060203 0 -3.8e-09 1.22328e-07 1.59293e-34
602 5 0.001 -0.0025 0 -0.0455324 0.0608136 0 -0.0144084 2.41095e-07 8.6003e-09
751 6 0.001 0.0025 0 -0.04617 -0.0416894 0 -3.8e-09 5.86571e-08 1.59293e-34
752 6 0.001 0.0025 0 -0.0455324 0.0430778 0 -0.0122162 1.13047e-07 6.17496e-09
901 7 0.001 0.0075 0 -0.04617 -0.0181688 0 -3.8e-09 1.11406e-08 1.59293e-34
902 7 0.001 0.0075 0 -0.0455324 0.0198143 0 -0.0107804 2.02906e-08 4.81547e-09
1051 8 0.001 0.0125 0 -0.04617 0.0098125 0 -3.8e-09 3.24946e-09 1.59293e-34
1052 8 0.001 0.0125 0 -0.0455324 -0.00872034 0 -0.00780939 7.24303e-09 2.53369e-09
1201 9 0.001 0.0175 0 -0.04617 0.0476027 0 -3.8e-09 7.64785e-08 1.59293e-34
1202 9 0.001 0.0175 0 -0.0455324 -0.0479134 0 -0.00547189 1.517e-07 1.24044e-09
1351 10 0.001 0.0225 0 -0.04617 0.0424828 0 -3.8e-09 6.09111e-08 1.59293e-34
1352 10 0.001 0.0225 0 -0.0455324 -0.0425306 0 -0.00546148 1.21475e-07 1.23761e-09
3 1 0.001 -0.0224896 0 -0.0448961 -1.01562e-05 0 7.00503e-07 2.6032e-07 3.98236e-09
4 1 0.001 -0.022469 0 -0.04426 -2.62988e-05 0 2.16556e-06 2.54544e-07 3.971e-09
153 2 0.001 -0.0174876 0 -0.0448967 -5.22909e-06 0 -2.75427e-09 3.78194e-07 8.86043e-09
154 2 0.001 -0.0174629 0 -0.0442613 -1.41826e-05 0 6.59955e-07 3.76064e-07 8.85479e-09
303 3 0.001 -0.0124865 0 -0.0448969 2.83562e-06 0 -1.09245e-06 4.58028e-07 1.16161e-08
304 3 0.001 -0.0124594 0 -0.0442619 8.14548e-06 0 -2.93637e-06 4.58782e-07 1.16219e-08
453 4 0.001 -0.00748614 0 -0.0448974 5.15108e-06 0 3.9082e-06 4.76619e-07 1.69508e-08
454 4 0.001 -0.00745842 0 -0.0442627 1.15616e-05 0 6.04839e-06 4.72357e-07 1.69221e-08
603 5 0.001 -0.00248786 0 -0.0448973 -8.04489e-06 0 4.52563e-07 3.55322e-07 1.71774e-08
604 5 0.001 -0.00246375 0 -0.0442626 -1.8649e-05 0 1.11699e-06 3.41826e-07 1.7126e-08
753 6 0.001 0.00250841 0 -0.0448969 -2.65559e-06 0 1.1285e-06 1.62934e-07 1.23278e-08
754 6 0.001 0.00252493 0 -0.0442616 -7.09772e-06 0 1.87093e-06 1.49507e-07 1.22822e-08
903 7 0.001 0.00750367 0 -0.0448966 -4.12913e-06 0 3.56782e-07 2.75942e-08 9.62255e-09
904 7 0.001 0.00751066 0 -0.0442609 -1.04573e-05 0 7.03648e-07 2.20839e-08 9.60622e-09
1053 8 0.001 0.012498 0 -0.0448961 3.65071e-06 0 2.40299e-07 1.20386e-08 5.0696e-09
1054 8 0.001 0.0124938 0 -0.0442599 9.15862e-06 0 7.11175e-07 1.44422e-08 5.07395e-09
1203 9 0.001 0.0174904 0 -0.0448958 1.47274e-06 0 -1.22343e-06 2.25421e-07 2.47849e-09
1204 9 0.001 0.0174712 0 -0.0442594 4.00753e-06 0 -2.20209e-06 2.20939e-07 2.47373e-09
1353 10 0.001 0.0224914 0 -0.0448958 -6.26888e-07 0 9.5584e-07 1.81482e-07 2.47381e-09
1354 10 0.001 0.0224743 0 -0.0442594 -1.0911e-06 0 1.7178e-06 1.79814e-07 2.4702e-09
5 1 0.001 -0.0224383 0 -0.0436243 -4.47504e-05 0 3.94738e-06 2.48003e-07 3.9577e-09
6 1 0.001 -0.0223976 0 -0.0429891 -6.19235e-05 0 5.38595e-06 2.40913e-07 3.94355e-09
155 2 0.001 -0.0174259 0 -0.0436265 -2.47458e-05 0 1.61633e-06 3.71675e-07 8.84298e-09
156 2 0.001 -0.0173767 0 -0.0429925 -3.477e-05 0 2.36994e-06 3.65202e-07 8.8261e-09
305 3 0.001 -0.0124186 0 -0.0436276 1.58593e-05 0 -5.50757e-06 4.55988e-07 1.16199e-08
306 3 0.001 -0.0123644 0 -0.0429943 2.5452e-05 0 -8.03644e-06 4.49586e-07 1.16098e-08
455 4 0.001 -0.00741693 0 -0.0436289 1.73801e-05 0 7.83593e-06 4.63741e-07 1.68712e-08
456 4 0.001 -0.0073618 0 -0.0429961 2.11062e-05 0 1.07023e-05 4.50868e-07 1.67973e-08
605 5 0.001 -0.00242792 0 -0.0436284 -2.82494e-05 0 2.65542e-06 3.25769e-07 1.70642e-08
606 5 0.001 -0.00238065 0 -0.042995 -3.50292e-05 0 3.9886e-06 3.07534e-07 1.69935e-08
755 6 0.001 0.0025492 0 -0.0436265 -1.07878e-05 0 2.52457e-06 1.35616e-07 1.22343e-08
756 6 0.001 0.00258086 0 -0.0429917 -1.37177e-05 0 3.67854e-06 1.21493e-07 1.21844e-08
905 7 0.001 0.00752063 0 -0.0436252 -1.7366e-05 0 9.08215e-07 1.70882e-08 9.59111e-09
906 7 0.001 0.0075332 0 -0.0429895 -2.36756e-05 0 1.08094e-06 1.26783e-08 9.57766e-09
1055 8 0.001 0.0124872 0 -0.0436236 1.4938e-05 0 1.03715e-06 1.70137e-08 5.07823e-09
1056 8 0.001 0.012478 0 -0.0429874 1.95852e-05 0 9.3194e-07 1.9748e-08 5.08286e-09
1206 9 0.001 0.0174047 0 -0.0429878 8.48901e-06 0 -4.75876e-06 2.10006e-07 2.46493e-09
1205 9 0.001 0.0174426 0 -0.0436234 6.44506e-06 0 -3.32399e-06 2.15782e-07 2.4691e-09
1355 10 0.001 0.0224486 0 -0.0436232 -1.09873e-06 0 2.34514e-06 1.77528e-07 2.46506e-09
1356 10 0.001 0.0224144 0 -0.0429874 -5.87318e-07 0 2.63604e-06 1.74642e-07 2.45866e-09
7 1 0.001 -0.022347 0 -0.0423547 -7.50163e-05 0 6.70523e-06 2.33477e-07 3.92955e-09
8 1 0.001 -0.0222868 0 -0.0417211 -8.19506e-05 0 7.83768e-06 2.25855e-07 3.9161e-09
9 1 0.001 -0.0222171 0 -0.0410885 -8.14954e-05 0 8.25408e-06 2.18141e-07 3.90336e-09
157 2 0.001 -0.0173154 0 -0.0423596 -4.26045e-05 0 3.34096e-06 3.56837e-07 8.8051e-09
158 2 0.001 -0.0172421 0 -0.041728 -4.68372e-05 0 4.11552e-06 3.46765e-07 8.78047e-09
159 2 0.001 -0.0171572 0 -0.0410978 -4.60974e-05 0 3.71867e-06 3.35144e-07 8.75319e-09
307 3 0.001 -0.0122968 0 -0.0423623 3.49708e-05 0 -1.03297e-05 4.39557e-07 1.15903e-08
308 3 0.001 -0.0122159 0 -0.0417318 4.37188e-05 0 -1.25995e-05 4.25939e-07 1.15605e-08
309 3 0.001 -0.012122 0 -0.0411032 5.0487e-05 0 -1.53286e-05 4.08853e-07 1.1521e-08
457 4 0.001 -0.00729325 0 -0.0423646 1.90208e-05 0 1.37336e-05 4.33961e-07 1.67005e-08
458 4 0.001 -0.00721156 0 -0.0417346 1.36568e-05 0 1.56665e-05 4.13372e-07 1.65849e-08
459 4 0.001 -0.00711709 0 -0.0411064 7.37176e-06 0 1.69682e-05 3.89559e-07 1.64554e-08
607 5 0.001 -0.0023223 0 -0.0423624 -3.58571e-05 0 4.71651e-06 2.87493e-07 1.69158e-08
608 5 0.001 -0.00225324 0 -0.041731 -3.15253e-05 0 5.78525e-06 2.65991e-07 1.68317e-08
609 5 0.001 -0.00217391 0 -0.0411007 -2.12759e-05 0 6.51609e-06 2.43336e-07 1.67405e-08
757 6 0.001 0.0026195 0 -0.0423573 -1.35673e-05 0 4.3924e-06 1.0736e-07 1.21331e-08
758 6 0.001 0.00266469 0 -0.0417233 -1.06239e-05 0 4.62105e-06 9.34206e-08 1.20817e-08
759 6 0.001 0.002716 0 -0.0410898 -5.42914e-06 0 4.7372e-06 7.98571e-08 1.20308e-08
907 7 0.001 0.00754801 0 -0.0423538 -2.80384e-05 0 1.56891e-06 8.9065e-09 9.56577e-09
908 7 0.001 0.00756469 0 -0.0417183 -3.00749e-05 0 2.32075e-06 5.80542e-09 9.55495e-09
909 7 0.001 0.00758287 0 -0.0410827 -3.00329e-05 0 2.64615e-06 3.38987e-09 9.54528e-09
1057 8 0.001 0.012466 0 -0.0423512 2.17798e-05 0 9.7628e-07 2.26396e-08 5.08804e-09
1058 8 0.001 0.012451 0 -0.0417151 2.12183e-05 0 1.27933e-06 2.56773e-08 5.09344e-09
1059 8 0.001 0.0124327 0 -0.0410791 1.76054e-05 0 1.40529e-06 2.88408e-08 5.09889e-09
1207 9 0.001 0.0173575 0 -0.0423529 1.02603e-05 0 -5.89083e-06 2.03667e-07 2.46134e-09
1209 9 0.001 0.0172363 0 -0.0410854 1.24892e-05 0 -8.39134e-06 1.89517e-07 2.4558e-09
1208 9 0.001 0.0173013 0 -0.0417187 1.15862e-05 0 -6.86904e-06 1.96819e-07 2.45821e-09
1357 10 0.001 0.0223719 0 -0.0423522 7.29352e-07 0 3.25298e-06 1.71181e-07 2.4511e-09
1358 10 0.001 0.0223211 0 -0.0417175 2.62002e-06 0 4.18104e-06 1.67182e-07 2.4422e-09
1359 10 0.001 0.0222621 0 -0.0410836 5.10833e-06 0 4.70604e-06 1.62689e-07 2.43218e-09
10 1 0.001 -0.022138 0 -0.040457 -7.3586e-05 0 8.17942e-06 2.10361e-07 3.8911e-09
11 1 0.001 -0.0220498 0 -0.0398267 -5.9123e-05 0 6.86333e-06 2.02476e-07 3.87895e-09
160 2 0.001 -0.0170607 0 -0.0404693 -4.04124e-05 0 2.5785e-06 3.22092e-07 8.72399e-09
161 2 0.001 -0.0169529 0 -0.0398426 -3.00386e-05 0 7.52274e-07 3.07688e-07 8.69269e-09
310 3 0.001 -0.0120155 0 -0.0404765 5.45822e-05 0 -1.75218e-05 3.88506e-07 1.14727e-08
311 3 0.001 -0.0118966 0 -0.0398521 5.60544e-05 0 -1.86086e-05 3.65203e-07 1.14153e-08
460 4 0.001 -0.00701025 0 -0.0404802 2.86048e-06 0 1.80395e-05 3.63045e-07 1.63154e-08
461 4 0.001 -0.00689151 0 -0.0398562 2.21695e-06 0 1.89818e-05 3.3437e-07 1.61669e-08
610 5 0.001 -0.00208476 0 -0.0404718 -5.76285e-06 0 5.38394e-06 2.19812e-07 1.66435e-08
611 5 0.001 -0.00198631 0 -0.0398442 1.02252e-05 0 4.35384e-06 1.95696e-07 1.65418e-08
760 6 0.001 0.00277294 0 -0.0404568 9.23149e-07 0 5.04693e-06 6.68398e-08 1.19804e-08
761 6 0.001 0.00283505 0 -0.0398242 7.85694e-06 0 5.06942e-06 5.45323e-08 1.19308e-08
910 7 0.001 0.00760217 0 -0.0404472 -2.80473e-05 0 3.01973e-06 1.66054e-09 9.53695e-09
911 7 0.001 0.00762224 0 -0.0398117 -2.4156e-05 0 3.51996e-06 6.08124e-10 9.52965e-09
1060 8 0.001 0.0124111 0 -0.0404432 1.14762e-05 0 1.67699e-06 3.20979e-08 5.10418e-09
1061 8 0.001 0.0123858 0 -0.0398074 3.66873e-06 0 1.57807e-06 3.54034e-08 5.10922e-09
1211 9 0.001 0.0170803 0 -0.0398216 1.28741e-05 0 -1.04721e-05 1.73747e-07 2.45315e-09
1210 9 0.001 0.0171625 0 -0.040453 1.2937e-05 0 -9.44512e-06 1.8181e-07 2.45418e-09
1360 10 0.001 0.022195 0 -0.0404504 8.25201e-06 0 5.75702e-06 1.57753e-07 2.42117e-09
1361 10 0.001 0.02212 0 -0.0398182 1.18e-05 0 6.99345e-06 1.52433e-07 2.40907e-09
12 1 0.001 -0.0219527 0 -0.0391977 -3.98346e-05 0 4.64507e-06 1.94397e-07 3.8666e-09
13 1 0.001 -0.0218468 0 -0.0385701 -1.76665e-05 0 1.77221e-06 1.86e-07 3.85341e-09
14 1 0.001 -0.0217324 0 -0.037944 5.10962e-06 0 -1.7716e-06 1.77155e-07 3.8389e-09
162 2 0.001 -0.0168342 0 -0.0392179 -1.61936e-05 0 -1.81747e-06 2.91984e-07 8.65882e-09
163 2 0.001 -0.0167048 0 -0.0385953 -9.72025e-07 0 -4.91849e-06 2.75022e-07 8.62199e-09
164 2 0.001 -0.0165652 0 -0.0379749 1.41526e-05 0 -8.59432e-06 2.56858e-07 8.5822e-09
312 3 0.001 -0.0117659 0 -0.0392301 5.4376e-05 0 -1.88423e-05 3.39341e-07 1.13495e-08
313 3 0.001 -0.0116237 0 -0.0386105 4.90736e-05 0 -1.82112e-05 3.11404e-07 1.12765e-08
314 3 0.001 -0.0114706 0 -0.0379936 4.05422e-05 0 -1.65605e-05 2.81947e-07 1.11984e-08
462 4 0.001 -0.00676138 0 -0.0392343 5.99223e-06 0 1.90477e-05 3.04069e-07 1.60113e-08
463 4 0.001 -0.00662044 0 -0.0386149 1.30167e-05 0 1.82245e-05 2.72659e-07 1.58505e-08
464 4 0.001 -0.00646931 0 -0.0379978 2.29594e-05 0 1.50033e-05 2.40644e-07 1.56879e-08
612 5 0.001 -0.00187911 0 -0.0392181 2.64094e-05 0 3.19173e-06 1.71285e-07 1.64355e-08
613 5 0.001 -0.00176373 0 -0.0385934 4.22341e-05 0 1.52533e-06 1.46917e-07 1.63256e-08
614 5 0.001 -0.00164081 0 -0.0379702 5.51085e-05 0 -1.07314e-06 1.2297e-07 1.62151e-08
762 6 0.001 0.0029018 0 -0.0391921 1.37429e-05 0 4.83818e-06 4.30973e-08 1.18828e-08
763 6 0.001 0.00297267 0 -0.0385605 1.64709e-05 0 5.23988e-06 3.27009e-08 1.18369e-08
764 6 0.001 0.00304713 0 -0.0379293 1.57769e-05 0 5.75646e-06 2.35116e-08 1.17936e-08
912 7 0.001 0.0076427 0 -0.0391762 -1.85131e-05 0 3.90033e-06 2.17128e-10 9.52317e-09
914 7 0.001 0.00768336 0 -0.0379053 -6.50652e-06 0 4.26791e-06 1.34485e-09 9.51299e-09
913 7 0.001 0.00766319 0 -0.0385408 -1.24118e-05 0 4.2126e-06 4.69122e-10 9.51755e-09
1062 8 0.001 0.0123568 0 -0.0391718 -5.0055e-06 0 1.36794e-06 3.87006e-08 5.11401e-09
1063 8 0.001 0.0123238 0 -0.0385364 -1.38287e-05 0 1.19366e-06 4.19241e-08 5.1183e-09
1064 8 0.001 0.0122867 0 -0.0379012 -2.14584e-05 0 9.95993e-07 4.5004e-08 5.12184e-09
1212 9 0.001 0.0169897 0 -0.0391914 1.26053e-05 0 -1.20256e-05 1.65376e-07 2.45294e-09
1214 9 0.001 0.0167846 0 -0.0379347 9.38609e-06 0 -1.58397e-05 1.47881e-07 2.45601e-09
1213 9 0.001 0.0168911 0 -0.0385624 1.15289e-05 0 -1.37483e-05 1.56741e-07 2.45386e-09
1364 10 0.001 0.0218488 0 -0.0379275 2.33318e-05 0 9.89615e-06 1.34792e-07 2.36852e-09
1363 10 0.001 0.0219467 0 -0.0385567 1.94753e-05 0 9.15803e-06 1.40889e-07 2.38248e-09
1362 10 0.001 0.0220372 0 -0.0391869 1.55118e-05 0 7.98344e-06 1.4679e-07 2.39609e-09
15 1 0.001 -0.0216097 0 -0.0373195 2.60412e-05 0 -5.22896e-06 1.67748e-07 3.82263e-09
16 1 0.001 -0.0214789 0 -0.0366966 4.29377e-05 0 -7.88536e-06 1.577e-07 3.80403e-09
165 2 0.001 -0.0164156 0 -0.0373569 2.72602e-05 0 -1.17159e-05 2.37583e-07 8.53933e-09
166 2 0.001 -0.0162566 0 -0.0367412 3.7392e-05 0 -1.41915e-05 2.17344e-07 8.4931e-09
315 3 0.001 -0.0113072 0 -0.0373793 2.98557e-05 0 -1.3469e-05 2.51575e-07 1.11167e-08
316 3 0.001 -0.011134 0 -0.0367676 1.6931e-05 0 -8.6094e-06 2.2092e-07 1.1032e-08
465 4 0.001 -0.00630864 0 -0.0373832 3.51613e-05 0 1.03826e-05 2.08524e-07 1.55276e-08
466 4 0.001 -0.00613912 0 -0.0367709 4.91595e-05 0 6.28574e-06 1.76804e-07 1.53703e-08
615 5 0.001 -0.001511 0 -0.0373483 6.32786e-05 0 -2.44926e-06 9.98734e-08 1.61064e-08
616 5 0.001 -0.00137501 0 -0.0367277 6.51985e-05 0 -1.95479e-06 7.8105e-08 1.60001e-08
765 6 0.001 0.00312461 0 -0.0372984 1.24075e-05 0 5.9091e-06 1.56931e-08 1.17543e-08
766 6 0.001 0.00320454 0 -0.0366678 6.81808e-06 0 6.65563e-06 9.39284e-09 1.17199e-08
915 7 0.001 0.00770285 0 -0.0372698 -8.45206e-07 0 4.36397e-06 2.82502e-09 9.50966e-09
916 7 0.001 0.00772132 0 -0.0366342 4.76617e-06 0 4.654e-06 4.89034e-09 9.50733e-09
1065 8 0.001 0.0122454 0 -0.0372662 -2.707e-05 0 1.08704e-06 4.78719e-08 5.12431e-09
1066 8 0.001 0.0121996 0 -0.0366316 -2.9756e-05 0 1.27943e-06 5.04675e-08 5.12543e-09
1216 9 0.001 0.016549 0 -0.0366834 2.76125e-06 0 -1.99007e-05 1.2963e-07 2.46374e-09
1215 9 0.001 0.0166705 0 -0.0373083 6.26409e-06 0 -1.77619e-05 1.38833e-07 2.45935e-09
1366 10 0.001 0.0216314 0 -0.0366729 2.84356e-05 0 1.07902e-05 1.22245e-07 2.34085e-09
1365 10 0.001 0.0217437 0 -0.0372996 2.65257e-05 0 1.04847e-05 1.2856e-07 2.35459e-09
17 1 0.001 -0.0213403 0 -0.0360754 5.42834e-05 0 -9.41733e-06 1.46993e-07 3.78267e-09
18 1 0.001 -0.0211942 0 -0.035456 5.9107e-05 0 -9.64152e-06 1.35672e-07 3.75853e-09
167 2 0.001 -0.0160885 0 -0.0361279 4.30022e-05 0 -1.60571e-05 1.96352e-07 8.44418e-09
168 2 0.001 -0.0159118 0 -0.035517 4.37443e-05 0 -1.65372e-05 1.74882e-07 8.39358e-09
169 2 0.001 -0.0157271 0 -0.0349085 3.88711e-05 0 -1.4917e-05 1.53272e-07 8.34185e-09
317 3 0.001 -0.0109518 0 -0.0361586 2.35966e-06 0 -3.31692e-06 1.9061e-07 1.09463e-08
318 3 0.001 -0.0107613 0 -0.0355522 -1.38978e-05 0 2.31789e-06 1.61252e-07 1.08624e-08
319 3 0.001 -0.0105631 0 -0.0349482 -2.88892e-05 0 7.48505e-06 1.33399e-07 1.07829e-08
467 4 0.001 -0.0059615 0 -0.0361609 6.27782e-05 0 1.28414e-06 1.46006e-07 1.52171e-08
468 4 0.001 -0.00577655 0 -0.0355531 7.38524e-05 0 -2.78182e-06 1.16681e-07 1.50701e-08
469 4 0.001 -0.00558506 0 -0.0349473 8.13306e-05 0 -6.00211e-06 8.94134e-08 1.49309e-08
617 5 0.001 -0.00123357 0 -0.0361084 6.02772e-05 0 -7.86618e-07 5.81728e-08 1.58984e-08
618 5 0.001 -0.00108745 0 -0.0354902 4.98539e-05 0 1.93378e-06 4.05874e-08 1.58043e-08
619 5 0.001 -0.000937443 0 -0.0348728 3.60913e-05 0 5.22435e-06 2.58245e-08 1.57196e-08
767 6 0.001 0.00328635 0 -0.0360375 5.71623e-07 0 6.75241e-06 4.73049e-09 1.16914e-08
768 6 0.001 0.00336944 0 -0.0354074 -4.53647e-06 0 6.37672e-06 1.79025e-09 1.16699e-08
917 7 0.001 0.0077384 0 -0.0359987 9.99473e-06 0 4.79793e-06 7.52116e-09 9.50593e-09
918 7 0.001 0.00775377 0 -0.035363 1.4718e-05 0 5.27602e-06 1.06971e-08 9.50533e-09
1067 8 0.001 0.0121494 0 -0.0359973 -2.95466e-05 0 1.39072e-06 5.27437e-08 5.12532e-09
1068 8 0.001 0.0120946 0 -0.0353634 -2.65333e-05 0 1.69009e-06 5.46706e-08 5.12412e-09
1217 9 0.001 0.0164204 0 -0.0360598 -9.68594e-07 0 -2.20758e-05 1.20304e-07 2.46922e-09
1218 9 0.001 0.016285 0 -0.0354377 -4.44975e-06 0 -2.38411e-05 1.10894e-07 2.4756e-09
1367 10 0.001 0.0215122 0 -0.0360474 2.84972e-05 0 1.07663e-05 1.15889e-07 2.32741e-09
1368 10 0.001 0.0213863 0 -0.0354233 2.64322e-05 0 1.01635e-05 1.0952e-07 2.31437e-09
19 1 0.001 -0.0210409 0 -0.0348382 5.71477e-05 0 -8.29079e-06 1.2385e-07 3.73186e-09
20 1 0.001 -0.0208807 0 -0.0342223 4.86764e-05 0 -5.37819e-06 1.11699e-07 3.70317e-09
21 1 0.001 -0.0207141 0 -0.033608 3.47034e-05 0 -8.54262e-07 9.94366e-08 3.67308e-09
170 2 0.001 -0.0155348 0 -0.0343024 2.90137e-05 0 -1.20131e-05 1.31903e-07 8.29015e-09
171 2 0.001 -0.0153357 0 -0.0336984 1.59844e-05 0 -8.11598e-06 1.11181e-07 8.2402e-09
320 3 0.001 -0.0103579 0 -0.0343465 -4.09704e-05 0 1.11313e-05 1.07529e-07 1.07104e-08
321 3 0.001 -0.0101466 0 -0.033747 -4.85425e-05 0 1.34522e-05 8.40227e-08 1.06468e-08
470 4 0.001 -0.0053879 0 -0.0343433 8.09392e-05 0 -7.60813e-06 6.48162e-08 1.48029e-08
471 4 0.001 -0.00518592 0 -0.0337409 7.28051e-05 0 -6.56846e-06 4.35125e-08 1.46891e-08
620 5 0.001 -0.000784374 0 -0.0342562 2.00398e-05 0 8.31749e-06 1.42891e-08 1.56476e-08
621 5 0.001 -0.000629078 0 -0.0336402 4.14284e-06 0 1.19198e-05 6.28828e-09 1.55897e-08
769 6 0.001 0.00345321 0 -0.0347773 -7.87484e-06 0 5.91325e-06 6.17321e-10 1.16558e-08
770 6 0.001 0.00353708 0 -0.0341472 -9.25951e-06 0 5.23981e-06 1.21977e-09 1.1649e-08
771 6 0.001 0.00362045 0 -0.0335171 -8.88242e-06 0 4.81892e-06 3.57345e-09 1.16488e-08
919 7 0.001 0.00776708 0 -0.0347274 1.83263e-05 0 6.05698e-06 1.43955e-08 9.50499e-09
921 7 0.001 0.00778619 0 -0.0334559 2.04084e-05 0 6.05338e-06 2.32457e-08 9.50717e-09
920 7 0.001 0.007778 0 -0.0340917 2.01714e-05 0 6.05547e-06 1.85897e-08 9.50537e-09
1069 8 0.001 0.012035 0 -0.0347299 -2.12668e-05 0 2.48023e-06 5.62355e-08 5.12172e-09
1071 8 0.001 0.0119017 0 -0.0334643 -7.48499e-06 0 4.24167e-06 5.83059e-08 5.1133e-09
1070 8 0.001 0.0119708 0 -0.0340969 -1.46853e-05 0 3.38897e-06 5.7442e-08 5.11803e-09
1219 9 0.001 0.0161431 0 -0.034817 -6.78403e-06 0 -2.47292e-05 1.01444e-07 2.48245e-09
1221 9 0.001 0.0158409 0 -0.0335801 -6.33139e-06 0 -2.61501e-05 8.26652e-08 2.4976e-09
1220 9 0.001 0.015995 0 -0.0341978 -7.45803e-06 0 -2.5549e-05 9.2011e-08 2.48968e-09
1369 10 0.001 0.0212539 0 -0.0348005 2.18355e-05 0 9.0892e-06 1.03152e-07 2.30174e-09
1371 10 0.001 0.0209703 0 -0.0335591 5.2831e-06 0 4.25039e-06 9.03944e-08 2.27797e-09
1370 10 0.001 0.0211151 0 -0.0341791 1.4536e-05 0 7.03391e-06 9.67808e-08 2.28956e-09
22 1 0.001 -0.0205413 0 -0.0329954 1.70494e-05 0 4.76681e-06 8.73032e-08 3.64225e-09
23 1 0.001 -0.0203628 0 -0.0323844 -2.46843e-06 0 1.11897e-05 7.55391e-08 3.61132e-09
172 2 0.001 -0.0151302 0 -0.0330966 9.97524e-07 0 -3.38758e-06 9.15007e-08 8.19344e-09
173 2 0.001 -0.0149189 0 -0.0324968 -1.42093e-05 0 1.83066e-06 7.3225e-08 8.15083e-09
174 2 0.001 -0.0147026 0 -0.0318988 -2.90265e-05 0 6.87738e-06 5.66629e-08 8.11332e-09
322 3 0.001 -0.00992979 0 -0.0331494 -5.15392e-05 0 1.43336e-05 6.31682e-08 1.05925e-08
323 3 0.001 -0.0097083 0 -0.0325535 -5.00009e-05 0 1.34239e-05 4.51672e-08 1.0548e-08
324 3 0.001 -0.00948286 0 -0.0319591 -4.35091e-05 0 1.07637e-05 3.01518e-08 1.05136e-08
472 4 0.001 -0.00498004 0 -0.0331398 5.9011e-05 0 -3.67926e-06 2.60977e-08 1.45919e-08
473 4 0.001 -0.00477118 0 -0.0325397 3.87166e-05 0 9.65411e-07 1.30929e-08 1.45142e-08
474 4 0.001 -0.0045603 0 -0.0319403 1.35749e-05 0 6.31695e-06 4.89838e-09 1.44592e-08
622 5 0.001 -0.000472402 0 -0.0330245 -8.65481e-06 0 1.41639e-05 2.01549e-09 1.55468e-08
623 5 0.001 -0.000315198 0 -0.032409 -1.84464e-05 0 1.57513e-05 1.54816e-09 1.55198e-08
772 6 0.001 0.00370273 0 -0.0328868 -8.34477e-06 0 4.08461e-06 7.62663e-09 1.16548e-08
773 6 0.001 0.00378334 0 -0.0322564 -8.06241e-06 0 3.01095e-06 1.3303e-08 1.16676e-08
922 7 0.001 0.00779134 0 -0.0328201 1.92966e-05 0 6.13541e-06 2.83205e-08 9.51024e-09
923 7 0.001 0.00779311 0 -0.0321843 1.69116e-05 0 6.31507e-06 3.37602e-08 9.51431e-09
1073 8 0.001 0.0117491 0 -0.032201 5.19215e-06 0 5.59725e-06 5.91049e-08 5.10204e-09
1072 8 0.001 0.0118278 0 -0.0328324 -5.11426e-07 0 4.89222e-06 5.88514e-08 5.10791e-09
1223 9 0.001 0.0155163 0 -0.0323488 2.79499e-07 0 -2.4767e-05 6.45604e-08 2.51542e-09
1222 9 0.001 0.0156812 0 -0.0329637 -3.67346e-06 0 -2.59357e-05 7.3486e-08 2.50628e-09
1372 10 0.001 0.0208196 0 -0.0329404 -5.42876e-06 0 9.1325e-07 8.39716e-08 2.26698e-09
1373 10 0.001 0.0206632 0 -0.0323232 -1.64777e-05 0 -2.39613e-06 7.74922e-08 2.25641e-09
24 1 0.001 -0.0201791 0 -0.0317751 -2.19168e-05 0 1.75858e-05 6.43625e-08 3.58094e-09
25 1 0.001 -0.0199905 0 -0.0311671 -3.94641e-05 0 2.34019e-05 5.39535e-08 3.55176e-09
26 1 0.001 -0.0197974 0 -0.0305606 -5.37096e-05 0 2.83927e-05 4.44435e-08 3.52415e-09
175 2 0.001 -0.0144818 0 -0.0313024 -4.27585e-05 0 1.13106e-05 4.20584e-08 8.08207e-09
176 2 0.001 -0.0142572 0 -0.0307074 -5.43466e-05 0 1.52887e-05 2.9585e-08 8.05763e-09
325 3 0.001 -0.00925421 0 -0.0313659 -3.28305e-05 0 6.23839e-06 1.82032e-08 1.04891e-08
326 3 0.001 -0.00902312 0 -0.0307737 -1.93025e-05 0 2.33891e-07 9.37108e-09 1.04751e-08
475 4 0.001 -0.00434834 0 -0.0313413 -1.45796e-05 0 1.33937e-05 1.75631e-09 1.44283e-08
476 4 0.001 -0.00413628 0 -0.0307423 -4.27325e-05 0 2.12023e-05 3.7223e-09 1.44203e-08
624 5 0.001 -0.000158319 0 -0.0317933 -2.49934e-05 0 1.66422e-05 4.85612e-09 1.55082e-08
625 5 0.001 -2.61117e-06 0 -0.0311774 -2.61563e-05 0 1.59998e-05 1.18192e-08 1.55115e-08
626 5 0.001 0.000151089 0 -0.0305609 -2.20408e-05 0 1.34342e-05 2.22494e-08 1.55297e-08
774 6 0.001 0.00386169 0 -0.0316256 -5.8312e-06 0 1.6804e-06 2.05054e-08 1.1687e-08
775 6 0.001 0.00393722 0 -0.0309945 -2.01832e-06 0 -5.65172e-09 2.91207e-08 1.1713e-08
776 6 0.001 0.00400938 0 -0.030363 1.15991e-06 0 -1.36346e-06 3.90229e-08 1.17452e-08
924 7 0.001 0.0077912 0 -0.0315485 1.30443e-05 0 6.29728e-06 3.94988e-08 9.51923e-09
925 7 0.001 0.00778531 0 -0.0309127 7.41472e-06 0 5.83107e-06 4.54563e-08 9.52529e-09
1076 8 0.001 0.0114839 0 -0.0303107 1.1195e-05 0 6.84439e-06 5.83327e-08 5.08081e-09
1075 8 0.001 0.0115772 0 -0.0309401 1.0874e-05 0 6.71897e-06 5.88298e-08 5.08844e-09
1074 8 0.001 0.0116656 0 -0.0315702 8.99028e-06 0 6.28974e-06 5.90914e-08 5.09556e-09
1224 9 0.001 0.0153465 0 -0.0317352 5.73017e-06 0 -2.31913e-05 5.59782e-08 2.52496e-09
1226 9 0.001 0.0149934 0 -0.0305118 1.89607e-05 0 -1.80803e-05 4.01911e-08 2.54508e-09
1225 9 0.001 0.015172 0 -0.0311229 1.18717e-05 0 -2.09917e-05 4.78276e-08 2.5349e-09
1376 10 0.001 0.0201627 0 -0.0304798 -4.85965e-05 0 -1.36619e-05 5.76296e-08 2.22651e-09
1375 10 0.001 0.0203345 0 -0.0310929 -3.89175e-05 0 -9.73018e-06 6.4317e-08 2.23606e-09
1374 10 0.001 0.0205015 0 -0.0317074 -2.78689e-05 0 -5.95667e-06 7.09418e-08 2.2461e-09
27 1 0.001 -0.0196004 0 -0.0299554 -6.35118e-05 0 3.19334e-05 3.59126e-08 3.49833e-09
28 1 0.001 -0.0193997 0 -0.0293514 -6.7953e-05 0 3.34251e-05 2.83924e-08 3.47456e-09
177 2 0.001 -0.0140294 0 -0.0301136 -6.28847e-05 0 1.84324e-05 1.93455e-08 8.03988e-09
178 2 0.001 -0.0137991 0 -0.0295209 -6.79502e-05 0 2.02381e-05 1.13769e-08 8.02868e-09
179 2 0.001 -0.0135668 0 -0.0289289 -6.82696e-05 0 2.02567e-05 5.65962e-09 8.02386e-09
327 3 0.001 -0.00879033 0 -0.0301821 -5.1047e-06 0 -6.65169e-06 3.69174e-09 1.04723e-08
328 3 0.001 -0.00855657 0 -0.029591 8.74954e-06 0 -1.4471e-05 1.20023e-09 1.04819e-08
329 3 0.001 -0.00832261 0 -0.0289999 2.20458e-05 0 -2.20551e-05 1.93545e-09 1.05051e-08
477 4 0.001 -0.00392507 0 -0.0301431 -6.92006e-05 0 2.86824e-05 1.0655e-08 1.44336e-08
478 4 0.001 -0.00371567 0 -0.0295432 -9.25173e-05 0 3.49474e-05 2.22236e-08 1.44663e-08
479 4 0.001 -0.00350901 0 -0.0289423 -0.000108863 0 3.95268e-05 3.79363e-08 1.45154e-08
627 5 0.001 0.000301956 0 -0.0299438 -1.42278e-05 0 9.57519e-06 3.59148e-08 1.55631e-08
628 5 0.001 0.00044918 0 -0.0293258 -4.20013e-06 0 4.69374e-06 5.2559e-08 1.5612e-08
777 6 0.001 0.00407762 0 -0.029731 3.50267e-06 0 -2.03668e-06 5.0073e-08 1.17825e-08
778 6 0.001 0.00414141 0 -0.0290986 3.97511e-06 0 -2.73017e-06 6.21155e-08 1.1824e-08
926 7 0.001 0.00777514 0 -0.030277 5.02629e-07 0 5.68064e-06 5.1538e-08 9.53219e-09
928 7 0.001 0.00774087 0 -0.0290059 -1.21224e-05 0 5.63486e-06 6.36365e-08 9.54514e-09
927 7 0.001 0.00776041 0 -0.0296414 -6.36048e-06 0 5.76084e-06 5.76364e-08 9.53897e-09
1077 8 0.001 0.0113859 0 -0.029682 1.02269e-05 0 6.62915e-06 5.76068e-08 5.07282e-09
1078 8 0.001 0.0112831 0 -0.0290541 7.993e-06 0 6.03167e-06 5.66539e-08 5.06467e-09
1228 9 0.001 0.0146249 0 -0.029293 3.56467e-05 0 -1.15462e-05 2.67414e-08 2.56629e-09
1227 9 0.001 0.0148109 0 -0.0299019 2.69142e-05 0 -1.48848e-05 3.31419e-08 2.55547e-09
1378 10 0.001 0.0198053 0 -0.0292576 -6.01392e-05 0 -1.99001e-05 4.42155e-08 2.20977e-09
1377 10 0.001 0.0199862 0 -0.0298681 -5.5982e-05 0 -1.72208e-05 5.09108e-08 2.2177e-09
29 1 0.001 -0.0191958 0 -0.0287484 -6.64734e-05 0 3.30394e-05 2.18734e-08 3.45293e-09
30 1 0.001 -0.0189892 0 -0.0281463 -5.90396e-05 0 3.06277e-05 1.63162e-08 3.4332e-09
31 1 0.001 -0.0187801 0 -0.0275451 -4.61933e-05 0 2.61031e-05 1.16644e-08 3.41528e-09
180 2 0.001 -0.0133332 0 -0.0283374 -6.34671e-05 0 1.83623e-05 2.13106e-09 8.025e-09
181 2 0.001 -0.0130989 0 -0.0277461 -5.39225e-05 0 1.46311e-05 7.02177e-10 8.03162e-09
330 3 0.001 -0.00808919 0 -0.0284085 3.26056e-05 0 -2.85419e-05 5.93817e-09 1.0542e-08
331 3 0.001 -0.00785707 0 -0.0278167 4.04233e-05 0 -3.37782e-05 1.32438e-08 1.05929e-08
480 4 0.001 -0.00330598 0 -0.0283403 -0.000116588 0 4.08509e-05 5.71857e-08 1.45779e-08
481 4 0.001 -0.00310747 0 -0.0277367 -0.000115114 0 3.80534e-05 7.93063e-08 1.46522e-08
629 5 0.001 0.000591965 0 -0.0287067 6.02572e-06 0 5.19004e-07 7.19103e-08 1.56754e-08
630 5 0.001 0.000729535 0 -0.0280865 1.41067e-05 0 -2.4343e-06 9.36805e-08 1.57511e-08
631 5 0.001 0.000861127 0 -0.027465 1.67169e-05 0 -4.71476e-06 1.1755e-07 1.58381e-08
779 6 0.001 0.00420023 0 -0.0284658 2.9852e-06 0 -2.64991e-06 7.49757e-08 1.18688e-08
780 6 0.001 0.00425359 0 -0.0278324 1.08937e-06 0 -2.95161e-06 8.84587e-08 1.19163e-08
930 7 0.001 0.00768637 0 -0.0277354 -1.76112e-05 0 5.38429e-06 7.48941e-08 9.55456e-09
929 7 0.001 0.00771627 0 -0.0283705 -1.58703e-05 0 5.61257e-06 6.94245e-08 9.5504e-09
1080 8 0.001 0.0110634 0 -0.0278006 1.35577e-06 0 5.266e-06 5.40601e-08 5.04706e-09
1079 8 0.001 0.0111756 0 -0.0284269 4.98046e-06 0 5.67362e-06 5.54727e-08 5.0562e-09
1231 9 0.001 0.0140497 0 -0.0274717 5.77411e-05 0 -1.34004e-06 1.18034e-08 2.60067e-09
1230 9 0.001 0.014244 0 -0.028078 5.1864e-05 0 -4.05402e-06 1.60537e-08 2.58894e-09
1229 9 0.001 0.0144358 0 -0.028685 4.43077e-05 0 -7.78772e-06 2.10359e-08 2.57752e-09
1379 10 0.001 0.0196204 0 -0.0286483 -6.0859e-05 0 -2.1614e-05 3.76225e-08 2.20284e-09
1381 10 0.001 0.0192398 0 -0.027433 -5.21562e-05 0 -2.2515e-05 2.51562e-08 2.19305e-09
1380 10 0.001 0.0194318 0 -0.0280401 -5.82909e-05 0 -2.24577e-05 3.12313e-08 2.19714e-09
32 1 0.001 -0.018569 0 -0.0269446 -2.88276e-05 0 2.01208e-05 7.85746e-09 3.39897e-09
33 1 0.001 -0.0183563 0 -0.0263447 -8.46527e-06 0 1.3171e-05 4.84309e-09 3.38392e-09
182 2 0.001 -0.0128645 0 -0.027155 -3.98315e-05 0 9.15191e-06 1.27509e-09 8.0433e-09
183 2 0.001 -0.0126306 0 -0.0265636 -2.24795e-05 0 2.3705e-06 3.759e-09 8.0597e-09
184 2 0.001 -0.0123977 0 -0.0259718 -3.70976e-06 0 -4.62071e-06 8.08185e-09 8.08044e-09
332 3 0.001 -0.00762702 0 -0.0272241 4.44378e-05 0 -3.75856e-05 2.38695e-08 1.06579e-08
333 3 0.001 -0.00739979 0 -0.0266304 4.451e-05 0 -4.00855e-05 3.77986e-08 1.07376e-08
334 3 0.001 -0.00717615 0 -0.0260353 4.02876e-05 0 -4.10419e-05 5.49619e-08 1.08324e-08
482 4 0.001 -0.00291431 0 -0.0271314 -0.00010256 0 3.32645e-05 1.03637e-07 1.47353e-08
483 4 0.001 -0.0027273 0 -0.0265242 -8.08794e-05 0 2.67747e-05 1.29575e-07 1.48225e-08
484 4 0.001 -0.00254719 0 -0.0259149 -5.1288e-05 0 1.70244e-05 1.56618e-07 1.49126e-08
632 5 0.001 0.000986002 0 -0.0268421 1.24807e-05 0 -5.24951e-06 1.43142e-07 1.59355e-08
633 5 0.001 0.00110344 0 -0.0262178 2.9299e-06 0 -4.97955e-06 1.70008e-07 1.60415e-08
781 6 0.001 0.00430101 0 -0.0271986 -1.95075e-06 0 -3.51791e-06 1.02351e-07 1.19663e-08
782 6 0.001 0.00434202 0 -0.0265643 -4.64474e-06 0 -3.07641e-06 1.16423e-07 1.20175e-08
783 6 0.001 0.0043762 0 -0.0259297 -8.1456e-06 0 -2.75506e-06 1.30436e-07 1.20682e-08
931 7 0.001 0.00765099 0 -0.0271006 -1.72939e-05 0 5.06975e-06 7.99525e-08 9.55773e-09
933 7 0.001 0.00756307 0 -0.0258321 -1.10849e-05 0 5.51782e-06 8.85513e-08 9.55971e-09
932 7 0.001 0.00760994 0 -0.0264662 -1.51361e-05 0 5.16058e-06 8.45238e-08 9.55961e-09
1081 8 0.001 0.0109466 0 -0.0271751 -2.22343e-06 0 4.69334e-06 5.24139e-08 5.03726e-09
1083 8 0.001 0.0106996 0 -0.0259267 -6.09451e-06 0 4.47322e-06 4.84317e-08 5.01548e-09
1082 8 0.001 0.0108254 0 -0.0265505 -4.98625e-06 0 4.38919e-06 5.0535e-08 5.02678e-09
1233 9 0.001 0.0136553 0 -0.026261 6.10736e-05 0 1.71124e-06 5.43974e-09 2.62553e-09
1232 9 0.001 0.0138534 0 -0.0268661 6.09305e-05 0 4.79098e-07 8.27438e-09 2.61294e-09
1383 10 0.001 0.018847 0 -0.0262217 -3.10169e-05 0 -1.92288e-05 1.444e-08 2.1908e-09
1382 10 0.001 0.0190447 0 -0.0268269 -4.30563e-05 0 -2.15057e-05 1.95188e-08 2.19091e-09
34 1 0.001 -0.0181423 0 -0.0257452 1.31559e-05 0 5.83218e-06 2.58753e-09 3.36986e-09
35 1 0.001 -0.0179273 0 -0.0251461 3.37983e-05 0 -1.40486e-06 1.08238e-09 3.35679e-09
36 1 0.001 -0.0177118 0 -0.0245472 5.16156e-05 0 -7.80565e-06 3.47718e-10 3.34489e-09
185 2 0.001 -0.0121665 0 -0.0253794 1.41693e-05 0 -1.10581e-05 1.41952e-08 8.10509e-09
186 2 0.001 -0.0119374 0 -0.0247862 2.90834e-05 0 -1.6727e-05 2.20716e-08 8.13396e-09
335 3 0.001 -0.00695689 0 -0.0254387 3.16572e-05 0 -3.99197e-05 7.52188e-08 1.09417e-08
336 3 0.001 -0.00674277 0 -0.0248402 2.00656e-05 0 -3.78794e-05 9.83423e-08 1.10646e-08
337 3 0.001 -0.00653456 0 -0.0242396 6.34887e-06 0 -3.45876e-05 1.2401e-07 1.11999e-08
485 4 0.001 -0.0023747 0 -0.0253034 -1.71226e-05 0 6.84627e-06 1.84383e-07 1.50057e-08
486 4 0.001 -0.00221051 0 -0.0246896 1.91496e-05 0 -2.08683e-06 2.12607e-07 1.50998e-08
634 5 0.001 0.00121275 0 -0.025592 -1.20294e-05 0 -4.05873e-06 1.97607e-07 1.61543e-08
635 5 0.001 0.00131326 0 -0.0249647 -2.94875e-05 0 -3.03449e-06 2.2532e-07 1.62715e-08
636 5 0.001 0.00140437 0 -0.024336 -4.69681e-05 0 -1.98903e-06 2.5246e-07 1.63898e-08