ITEM: TIMESTEP
4
ITEM: NUMBER OF ATOMS
2279
ITEM: BOX BOUNDS ff ff ff
-1.1000000000000000e-01 1.1000000000000000e-01
-6.0000000000000001e-03 6.0000000000000001e-03
-5.5000000000000000e-02 5.5000000000000000e-02
ITEM: ATOMS id type radius x y z fx fy fz c_bendingE c_stretchingE
1 1 0.001 -0.1 0 -0.05 -1.55263e-06 1.16254e-16 0.000162089 0 1.0352e-11
21 21 0.001 -0.1 -4.97496e-21 -0.0489999 -0.00119995 4.40655e-15 0.00104591 0 1.03574e-11
219 23 0.001 -0.0990475 1.95295e-20 -0.0500001 0.000994764 -6.52281e-15 -0.00121599 0 9.0282e-12
220 23 0.001 -0.0980952 -9.03115e-19 -0.05 0.000332403 3.11586e-14 -0.000346465 0 4.04021e-12
221 23 0.001 -0.0971429 5.95516e-19 -0.05 2.84103e-05 -2.43156e-14 0.000106049 0 6.09576e-14
222 23 0.001 -0.0961905 9.82927e-23 -0.05 5.40222e-07 6.14175e-15 9.6537e-06 0 2.40936e-17
223 23 0.001 -0.0952381 6.54083e-22 -0.05 2.35214e-08 -1.51079e-15 -1.78177e-06 0 4.87009e-20
224 23 0.001 -0.0942857 -1.39802e-21 -0.05 -3.15745e-09 4.94416e-17 -6.67593e-08 0 3.27647e-22
225 23 0.001 -0.0933333 6.97424e-22 -0.05 3.69209e-09 -2.24864e-17 -1.06933e-08 0 3.05994e-22
226 23 0.001 -0.092381 0 -0.05 2.78226e-09 5.96936e-24 -1.44635e-08 0 6.71448e-23
227 23 0.001 -0.0914286 0 -0.05 1.76064e-10 -2.95735e-24 -1.44635e-08 0 1.43476e-22
228 23 0.001 -0.0904762 0 -0.05 -3.92628e-09 0 -1.44635e-08 0 1.06879e-22
229 23 0.001 -0.0895238 0 -0.05 3.12639e-10 5.94924e-06 -4.8771e-08 0 6.36543e-23
230 23 0.001 -0.0885714 0 -0.05 2.27349e-09 -1.18985e-05 8.1697e-08 0 5.86422e-23
231 23 0.001 -0.087619 -4.2746e-20 -0.05 4.54798e-09 5.94923e-06 -1.32394e-07 0 4.41985e-22
232 23 0.001 -0.0866667 8.54919e-20 -0.05 -7.55503e-09 4.1455e-11 1.24298e-07 0 5.58077e-22
233 23 0.001 -0.0857143 -3.86287e-20 -0.05 3.39325e-10 -2.26951e-11 -2.72891e-07 0 2.26449e-22
234 23 0.001 -0.0847619 -1.49006e-22 -0.05 -2.20357e-09 -4.70583e-14 -4.38231e-06 0 1.67672e-21
235 23 0.001 -0.0838095 -7.42651e-19 -0.05 -8.08301e-07 1.46019e-14 2.47514e-05 0 4.37521e-17
236 23 0.001 -0.0828571 -1.03484e-18 -0.05 -4.03499e-05 3.95451e-14 0.000260013 0 1.21081e-13
237 23 0.001 -0.0819048 3.0293e-18 -0.05 -0.000666007 -8.13313e-14 -0.000861457 0 2.31554e-11
3 3 0.001 -0.08 -6.24787e-18 -0.05 -4.84103e-05 7.87717e-14 -0.000289998 0 4.53472e-11
120 22 0.001 -0.0799994 -1.13055e-20 -0.049 0.0115444 -7.49749e-15 0.000481687 0 5.8064e-12
238 23 0.001 -0.0809525 -7.46198e-21 -0.0500002 -0.00226382 8.22218e-15 -0.00304861 0 4.91631e-11
359 25 0.001 -0.0801966 7.36471e-19 -0.0490197 -0.0103998 -2.78808e-14 -0.00159164 0 5.74314e-12
459 27 0.001 -0.0790475 -9.30175e-21 -0.0500001 0.00182983 -5.18564e-15 -0.00199951 0 3.29509e-11
460 27 0.001 -0.0780952 9.38779e-19 -0.05 0.000545434 9.94438e-12 -0.000555439 0 1.5167e-11
461 27 0.001 -0.0771429 3.94127e-21 -0.05 3.42822e-05 -2.66897e-10 0.000171535 0 8.69089e-14
462 27 0.001 -0.0761905 -4.7684e-19 -0.05 5.24957e-07 2.19489e-09 1.57034e-05 0 2.56575e-17
463 27 0.001 -0.0752381 1.04787e-13 -0.05 3.72675e-08 -6.70476e-09 -2.90476e-06 0 1.13916e-19
464 27 0.001 -0.0742857 -2.09573e-13 -0.05 -2.20429e-09 7.84264e-09 -9.08098e-08 0 2.19577e-22
465 27 0.001 -0.0733333 1.04787e-13 -0.05 5.0663e-09 -3.9647e-09 -9.41831e-09 0 1.84e-22
466 27 0.001 -0.072381 0 -0.05 -2.0615e-09 1.77773e-09 -1.24321e-08 0 2.84792e-24
467 27 0.001 -0.0714286 0 -0.05 1.33526e-09 -8.88867e-10 -1.54792e-08 0 2.69804e-24
468 27 0.001 -0.0704762 0 -0.05 -1.03063e-09 0 -1.44635e-08 0 7.87907e-24
469 27 0.001 -0.0695238 0 -0.05 3.28744e-09 -1.31865e-12 -1.44635e-08 0 7.13324e-23
470 27 0.001 -0.0685714 0 -0.05 -5.47317e-09 2.37292e-08 -1.44635e-08 0 6.60529e-23
471 27 0.001 -0.067619 5.29628e-23 -0.05 -3.69018e-09 -4.97936e-08 -4.43485e-07 0 3.0547e-22
472 27 0.001 -0.0666667 -1.05926e-22 -0.05 3.69018e-09 3.11029e-08 8.95273e-07 0 3.0547e-22
473 27 0.001 -0.0657143 5.29551e-23 -0.05 2.76028e-09 -5.03717e-09 -6.70501e-07 0 6.43472e-23
474 27 0.001 -0.0647619 1.47937e-20 -0.05 -6.60825e-09 6.37145e-15 -4.38034e-06 0 2.15527e-21
475 27 0.001 -0.0638095 8.38406e-19 -0.05 -8.08326e-07 -1.26683e-14 2.47487e-05 0 4.38046e-17
476 27 0.001 -0.0628571 3.44643e-20 -0.05 -4.03489e-05 4.88369e-13 0.000260023 0 1.21079e-13
477 27 0.001 -0.0619048 -3.35439e-18 -0.05 -0.000665996 -1.90865e-12 -0.000861522 0 2.31547e-11
478 27 0.001 -0.0609525 3.16678e-18 -0.0500002 -0.00226266 2.37732e-12 -0.00304851 0 4.92596e-11
5 5 0.001 -0.06 1.47546e-15 -0.05 -3.75973e-05 3.95172e-11 -0.000287652 0 4.53609e-11
360 26 0.001 -0.0599994 5.17006e-18 -0.049 0.0115448 2.56189e-12 0.000481914 0 5.80316e-12
599 29 0.001 -0.0601966 4.18277e-18 -0.0490197 -0.010354 1.74156e-12 -0.00158249 0 5.74308e-12
699 31 0.001 -0.0590475 1.5505e-14 -0.0500001 0.00183103 -3.33485e-10 -0.00199942 0 3.28685e-11
700 31 0.001 -0.0580952 -2.9012e-14 -0.05 0.000545298 6.30361e-10 -0.000555503 0 1.51652e-11
701 31 0.001 -0.0571429 9.61736e-15 -0.05 3.42863e-05 -4.56753e-10 0.000171546 0 8.71187e-14
702 31 0.001 -0.0561905 3.6848e-15 -0.05 6.66253e-07 9.98529e-11 1.56936e-05 0 2.89681e-17
703 31 0.001 -0.0552381 -2.1442e-16 -0.05 -4.07854e-09 2.96222e-11 -2.88361e-06 0 4.29926e-22
704 31 0.001 -0.0542857 -1.65006e-24 -0.05 2.82927e-09 -1.77634e-11 -1.06011e-07 0 4.2986e-22
705 31 0.001 -0.0533333 6.43643e-27 -0.05 3.16128e-09 3.04108e-13 -5.11206e-09 0 1.84206e-23
706 31 0.001 -0.052381 0 -0.05 5.51606e-09 1.6639e-17 -1.44637e-08 0 1.82882e-21
707 31 0.001 -0.0514286 0 -0.05 -2.01233e-08 -9.87771e-25 -1.44635e-08 0 4.72889e-21
708 31 0.001 -0.0504762 0 -0.05 4.66075e-08 0 -1.44635e-08 0 4.23723e-21
709 31 0.001 -0.0495238 0 -0.05 -9.59733e-09 1.85248e-09 -1.49236e-08 0 2.16349e-21
710 31 0.001 -0.0485714 0 -0.05 -2.30503e-08 -3.70497e-09 -1.35432e-08 0 1.24916e-21
711 31 0.001 -0.047619 -1.14535e-14 -0.05 -2.47616e-09 1.09422e-09 -1.43738e-08 0 6.61372e-22
712 31 0.001 -0.0466667 1.17391e-13 -0.05 -1.42966e-08 1.06207e-08 1.76015e-08 0 4.09022e-21
713 31 0.001 -0.0457143 9.47758e-13 -0.05 2.2758e-08 -5.55159e-08 -1.93749e-07 0 7.47869e-21
714 31 0.001 -0.0447619 -2.17824e-12 -0.05 -2.07117e-08 9.11215e-08 -4.42025e-06 0 1.16941e-20
715 31 0.001 -0.0438095 1.08732e-12 -0.05 -7.9626e-07 -5.74674e-08 2.47597e-05 0 4.33321e-17
716 31 0.001 -0.0428571 5.10953e-14 -0.05 -4.03571e-05 1.50316e-08 0.000260026 0 1.21092e-13
717 31 0.001 -0.0419048 -1.4144e-14 -0.05 -0.000665993 -2.96542e-09 -0.000861525 0 2.31547e-11
718 31 0.001 -0.0409525 2.78978e-16 -0.0500002 -0.00226266 -8.47643e-11 -0.00304851 0 4.92595e-11
7 7 0.001 -0.04 1.47162e-15 -0.05 -3.75973e-05 5.85203e-11 -0.000287652 0 4.53609e-11
600 30 0.001 -0.0399994 8.34257e-19 -0.049 0.0115448 1.82299e-12 0.000481914 0 5.80316e-12
839 33 0.001 -0.0401966 2.9781e-19 -0.0490197 -0.010354 1.84115e-12 -0.00158249 0 5.74308e-12
939 35 0.001 -0.0390475 1.5505e-14 -0.0500001 0.00183103 -3.33491e-10 -0.00199942 0 3.28685e-11
940 35 0.001 -0.0380952 -2.9012e-14 -0.05 0.000545298 6.30373e-10 -0.000555503 0 1.51652e-11
941 35 0.001 -0.0371429 9.61738e-15 -0.05 3.42863e-05 -4.5676e-10 0.000171546 0 8.71187e-14
942 35 0.001 -0.0361905 3.6848e-15 -0.05 6.66298e-07 9.98535e-11 1.56936e-05 0 2.89681e-17
943 35 0.001 -0.0352381 -2.1442e-16 -0.05 -4.27811e-09 2.96222e-11 -2.88361e-06 0 4.42843e-22
944 35 0.001 -0.0342857 -1.65006e-24 -0.05 3.98974e-09 -1.77634e-11 -1.06011e-07 0 5.19019e-22
945 35 0.001 -0.0333333 6.43643e-27 -0.05 -3.73394e-09 3.04108e-13 -5.06181e-09 0 4.71679e-22
946 35 0.001 -0.032381 0 -0.05 8.01815e-09 3.32778e-17 -1.45642e-08 0 1.44849e-21
947 35 0.001 -0.0314286 0 -0.05 -9.03975e-09 -1.66388e-17 -1.44132e-08 0 2.43732e-21
948 35 0.001 -0.0304762 0 -0.05 1.14103e-08 0 -1.44635e-08 0 3.77592e-21
949 35 0.001 -0.0295238 0 -0.05 -6.23039e-08 3.38952e-07 -2.05648e-09 0 6.68311e-21
950 35 0.001 -0.0285714 0 -0.05 6.92423e-08 -1.76262e-06 -7.30203e-08 0 1.12057e-20
951 35 0.001 -0.027619 -1.49405e-10 -0.05 -2.77863e-08 7.05212e-06 2.05792e-07 0 1.41659e-20
952 35 0.001 -0.0266667 2.98813e-10 -0.05 2.14897e-08 -1.12584e-05 -3.41873e-07 0 9.41546e-21
953 35 0.001 -0.0257143 -1.4941e-10 -0.05 -5.10152e-09 7.20752e-06 1.23098e-07 0 2.41773e-21
954 35 0.001 -0.0247619 1.99698e-16 -0.05 -1.86134e-08 -2.08333e-06 -4.64406e-06 0 1.32066e-20
955 35 0.001 -0.0238095 -1.61103e-14 -0.05 -7.84048e-07 5.20467e-07 2.48604e-05 0 4.26949e-17
956 35 0.001 -0.0228571 3.63939e-14 -0.05 -4.03722e-05 -1.52541e-08 0.000260008 0 1.21121e-13
957 35 0.001 -0.0219048 -1.6969e-14 -0.05 -0.000665995 6.4605e-10 -0.00086146 0 2.31552e-11
9 9 0.001 -0.02 6.23019e-16 -0.05 -4.83747e-05 1.07905e-11 -0.000289991 0 4.53473e-11
840 34 0.001 -0.0199994 1.13497e-18 -0.049 0.0115444 7.72159e-13 0.000481687 0 5.8064e-12
958 35 0.001 -0.0209525 -1.52105e-15 -0.0500002 -0.00226382 -1.39684e-10 -0.00304861 0 4.91628e-11
1079 37 0.001 -0.0201966 -1.12775e-18 -0.0490197 -0.0103956 8.90479e-13 -0.00159081 0 5.74314e-12
1179 39 0.001 -0.0190475 7.15102e-17 -0.0500001 0.00182983 1.97474e-11 -0.00199951 0 3.29513e-11
1180 39 0.001 -0.0180952 -7.256e-16 -0.05 0.000545449 -1.7211e-10 -0.00055544 0 1.51673e-11
1181 39 0.001 -0.0171429 -1.07979e-14 -0.05 3.42663e-05 5.45259e-10 0.000171538 0 8.68766e-14
1182 39 0.001 -0.0161905 2.35048e-14 -0.05 5.36604e-07 -8.47024e-10 1.56936e-05 0 2.61315e-17
1183 39 0.001 -0.0152381 -1.20023e-14 -0.05 2.56856e-08 6.66724e-10 -2.8892e-06 0 9.27804e-20
1184 39 0.001 -0.0142857 -9.36236e-17 -0.05 2.68054e-09 -2.26997e-10 -1.01855e-07 0 1.22399e-21
1185 39 0.001 -0.0133333 4.68083e-17 -0.05 9.60924e-09 1.5022e-11 -5.63945e-09 0 5.88892e-22
1186 39 0.001 -0.012381 0 -0.05 -2.09271e-09 3.22693e-19 -1.44635e-08 0 4.59455e-22
1187 39 0.001 -0.0114286 0 -0.05 -2.07583e-08 -1.20997e-19 -1.44635e-08 0 2.47061e-22
1188 39 0.001 -0.0104762 0 -0.05 -1.92611e-08 0 -1.44635e-08 0 9.0865e-22
1189 39 0.001 -0.00952381 0 -0.05 3.5538e-08 -2.76321e-06 7.91474e-09 0 1.45118e-21
1190 39 0.001 -0.00857143 0 -0.05 1.40378e-09 5.52643e-06 -6.19194e-08 0 6.30686e-22
1191 39 0.001 -0.00761905 -5.03821e-24 -0.05 -2.02767e-09 -2.76321e-06 1.34522e-08 0 3.92664e-23
1192 39 0.001 -0.00666667 2.65478e-22 -0.05 6.58296e-09 3.79028e-17 1.87296e-08 0 1.68492e-22
1193 39 0.001 -0.00571429 -5.15841e-22 -0.05 -4.16896e-09 4.52667e-17 -2.08319e-07 0 1.53076e-22
1194 39 0.001 -0.0047619 2.44149e-20 -0.05 -5.78885e-09 -1.08022e-15 -4.3996e-06 0 2.7532e-21
1195 39 0.001 -0.00380952 -4.4083e-20 -0.05 -8.03951e-07 1.80494e-15 2.47487e-05 0 4.34674e-17
1196 39 0.001 -0.00285714 1.57021e-20 -0.05 -4.03589e-05 -5.11407e-13 0.000260017 0 1.21107e-13
1197 39 0.001 -0.00190477 6.0658e-21 -0.05 -0.000665997 7.77017e-13 -0.00086146 0 2.31552e-11
1198 39 0.001 -0.000952543 -3.71876e-21 -0.0500002 -0.00226382 -2.23317e-14 -0.00304861 0 4.91629e-11
1319 41 0.001 -0.000196614 2.90684e-18 -0.0490197 -0.0103956 -9.15674e-14 -0.00159081 0 5.74314e-12
11 11 0.001 -1.36801e-09 -1.00395e-18 -0.05 -4.83768e-05 -2.32291e-13 -0.000289991 0 4.53472e-11
1080 38 0.001 6.05953e-07 -2.36115e-18 -0.049 0.0115444 7.4771e-14 0.000481687 0 5.8064e-12
1419 43 0.001 0.000952513 -3.64568e-21 -0.0500001 0.00182987 -1.59111e-15 -0.00199951 0 3.29483e-11
1420 43 0.001 0.00190477 -1.17267e-21 -0.05 0.000545296 -1.01947e-15 -0.00055544 0 1.51647e-11
1421 43 0.001 0.00285714 -8.5749e-21 -0.05 3.42824e-05 -5.35337e-15 0.000171538 0 8.71034e-14
1422 43 0.001 0.00380952 1.95025e-20 -0.05 6.59676e-07 1.44733e-14 1.57002e-05 0 2.88927e-17
1423 43 0.001 0.0047619 -1.14613e-21 -0.05 4.10089e-09 -5.70729e-15 -2.90329e-06 0 1.06342e-21
1424 43 0.001 0.00571429 -7.2524e-21 -0.05 7.92706e-11 -1.93379e-15 -6.63905e-08 0 3.4893e-25
1425 43 0.001 0.00666667 4.20573e-22 -0.05 2.25871e-09 -2.39105e-07 -9.16731e-08 0 4.21671e-22
1426 43 0.001 0.00761905 0 -0.05 1.28959e-08 4.7821e-07 7.79584e-08 0 2.10141e-21
1427 43 0.001 0.00857143 0 -0.05 3.3584e-08 -2.39105e-07 -4.82514e-08 0 2.0876e-21
1428 43 0.001 0.00952381 0 -0.05 -4.84913e-08 0 -1.44635e-08 0 4.54767e-22
1429 43 0.001 0.0104762 0 -0.05 -1.90864e-10 1.44861e-17 -1.44635e-08 0 2.86934e-22
1430 43 0.001 0.0114286 0 -0.05 2.32666e-09 -4.82656e-17 -1.44635e-08 0 2.39696e-22
1431 43 0.001 0.012381 -9.3434e-13 -0.05 -1.60852e-09 1.86868e-08 -3.9046e-09 0 2.25425e-22
1432 43 0.001 0.0133333 1.87247e-12 -0.05 -1.39611e-09 -4.33309e-08 -2.30298e-08 0 2.55369e-22
1433 43 0.001 0.0142857 -8.26421e-13 -0.05 1.19675e-09 3.07413e-08 -1.40395e-07 0 8.07629e-23
1434 43 0.001 0.0152381 -2.25359e-13 -0.05 -1.13233e-08 -5.51103e-09 -4.44572e-06 0 5.25607e-21
1435 43 0.001 0.0161905 9.8288e-14 -0.05 -7.98131e-07 -1.35788e-09 2.47646e-05 0 4.33113e-17
1436 43 0.001 0.0171429 2.81874e-14 -0.05 -4.03613e-05 7.42163e-10 0.000260011 0 1.21111e-13
1437 43 0.001 0.0180952 -1.2039e-14 -0.05 -0.000665994 1.15844e-10 -0.000861457 0 2.31551e-11
1438 43 0.001 0.0190475 -8.98063e-16 -0.0500002 -0.00226383 -9.73668e-11 -0.00304861 0 4.91625e-11
13 13 0.001 0.02 3.87285e-16 -0.05 -4.83727e-05 9.11613e-12 -0.000289991 0 4.53471e-11
1320 42 0.001 0.0200006 6.90479e-19 -0.049 0.0115444 4.52884e-13 0.000481687 0 5.8064e-12
1559 45 0.001 0.0198034 -1.56991e-18 -0.0490197 -0.0103956 -2.05462e-13 -0.00159081 0 5.74314e-12
1659 47 0.001 0.0209525 8.97371e-19 -0.0500001 0.00182979 6.28481e-13 -0.00199951 0 3.29535e-11
1660 47 0.001 0.0219048 -4.48721e-19 -0.05 0.000545686 -8.05323e-13 -0.000555439 0 1.51688e-11
1661 47 0.001 0.0228571 1.34067e-23 -0.05 3.37518e-05 3.19428e-13 0.000171537 0 8.61661e-14
1662 47 0.001 0.0238095 1.01009e-22 -0.05 9.15823e-07 1.97424e-14 1.56888e-05 0 4.47306e-17
1663 47 0.001 0.0247619 3.76739e-22 -0.05 -2.90171e-08 -1.32552e-14 -2.85654e-06 0 9.0556e-20
1664 47 0.001 0.0257143 -8.52397e-22 -0.05 -2.16117e-08 1.91251e-15 -1.50509e-07 0 8.58072e-21
1665 47 0.001 0.0266667 4.26199e-22 -0.05 2.03263e-08 -2.01113e-17 1.57872e-08 0 8.17979e-21
1666 47 0.001 0.027619 0 -0.05 1.12084e-10 3.06929e-22 -1.44635e-08 0 3.20382e-21
1667 47 0.001 0.0285714 0 -0.05 4.22669e-10 -5.13301e-23 -1.44635e-08 0 8.09768e-21
1668 47 0.001 0.0295238 0 -0.05 -2.20228e-08 0 -1.44635e-08 0 8.74462e-21
1669 47 0.001 0.0304762 0 -0.05 1.52407e-08 1.10925e-17 2.67067e-08 0 2.28949e-21
1670 47 0.001 0.0314286 0 -0.05 -1.78297e-09 -2.21851e-17 -9.6804e-08 0 1.72861e-22
1671 47 0.001 0.032381 -1.57122e-29 -0.05 3.80889e-09 1.10926e-17 2.67067e-08 0 3.20246e-22
1672 47 0.001 0.0333333 6.02588e-23 -0.05 -4.64402e-09 -2.13981e-16 2.05912e-08 0 6.05954e-22
1673 47 0.001 0.0342857 -1.54471e-20 -0.05 8.91279e-09 3.65881e-15 -1.9472e-07 0 1.8562e-21
1674 47 0.001 0.0352381 2.52038e-20 -0.05 -1.80519e-08 -1.84773e-14 -4.4248e-06 0 9.51926e-21
1675 47 0.001 0.0361905 -1.18199e-19 -0.05 -7.96212e-07 2.72091e-14 2.47624e-05 0 4.33322e-17
1676 47 0.001 0.0371429 -1.56224e-18 -0.05 -4.03571e-05 5.14704e-13 0.000260026 0 1.21092e-13
1677 47 0.001 0.0380952 9.42878e-19 -0.05 -0.000665993 -1.98867e-12 -0.000861525 0 2.31547e-11
1678 47 0.001 0.0390475 3.22903e-18 -0.0500002 -0.00226266 2.39532e-12 -0.00304851 0 4.92595e-11
15 15 0.001 0.04 1.47162e-15 -0.05 -3.75973e-05 3.95601e-11 -0.000287652 0 4.53609e-11
1560 46 0.001 0.0400006 8.34257e-19 -0.049 0.0115448 1.8236e-12 0.000481914 0 5.80316e-12
1799 49 0.001 0.0398034 2.9781e-19 -0.0490197 -0.010354 1.84184e-12 -0.00158249 0 5.74308e-12
1899 51 0.001 0.0409525 1.5505e-14 -0.0500001 0.00183103 -3.33491e-10 -0.00199942 0 3.28685e-11
1900 51 0.001 0.0419048 -2.9012e-14 -0.05 0.000545298 6.30372e-10 -0.000555503 0 1.51652e-11
1901 51 0.001 0.0428571 9.61738e-15 -0.05 3.42863e-05 -4.56759e-10 0.000171546 0 8.71187e-14
1902 51 0.001 0.0438095 3.6848e-15 -0.05 6.66253e-07 9.98532e-11 1.56936e-05 0 2.89681e-17
1903 51 0.001 0.0447619 -2.1442e-16 -0.05 -4.07854e-09 2.96222e-11 -2.88361e-06 0 4.29926e-22
1904 51 0.001 0.0457143 -1.65006e-24 -0.05 2.82927e-09 -1.77634e-11 -1.06011e-07 0 4.2986e-22
1905 51 0.001 0.0466667 6.43643e-27 -0.05 3.16128e-09 3.04108e-13 -5.11206e-09 0 1.84206e-23
1906 51 0.001 0.047619 0 -0.05 5.51606e-09 1.6639e-17 -1.44637e-08 0 1.82882e-21
1907 51 0.001 0.0485714 0 -0.05 -2.01233e-08 -9.87771e-25 -1.44635e-08 0 4.72889e-21
1908 51 0.001 0.0495238 0 -0.05 1.41692e-08 0 -1.44635e-08 0 4.23723e-21
1909 51 0.001 0.0504762 0 -0.05 -6.89723e-09 -7.88666e-22 -1.17641e-08 0 2.16381e-21
1910 51 0.001 0.0514286 0 -0.05 6.61253e-09 7.43377e-17 -4.08908e-08 0 1.22465e-21
1911 51 0.001 0.052381 1.81889e-30 -0.05 -3.2262e-09 -1.27888e-16 3.30007e-08 0 4.40561e-22
1912 51 0.001 0.0533333 -8.47726e-23 -0.05 -8.37453e-09 9.46845e-18 -2.68171e-08 0 1.96705e-21
1913 51 0.001 0.0542857 -2.21527e-21 -0.05 1.6521e-08 -2.81952e-15 -1.497e-07 0 4.4963e-21
1914 51 0.001 0.0552381 1.23697e-20 -0.05 -1.95252e-08 -8.31069e-15 -4.4466e-06 0 1.06229e-20
1915 51 0.001 0.0561905 2.18457e-19 -0.05 -7.96245e-07 2.15027e-14 2.47639e-05 0 4.33293e-17
1916 51 0.001 0.0571429 7.44462e-21 -0.05 -4.03572e-05 -1.11094e-14 0.000260013 0 1.21092e-13
1917 51 0.001 0.0580952 -4.71708e-19 -0.05 -0.000666004 1.51938e-15 -0.000861458 0 2.31554e-11
17 17 0.001 0.06 3.37393e-18 -0.05 -4.83789e-05 1.25858e-13 -0.000289991 0 4.53472e-11
1800 50 0.001 0.0600006 7.93436e-20 -0.049 0.0115444 1.84364e-15 0.000481687 0 5.8064e-12
1918 51 0.001 0.0590475 -7.63043e-22 -0.0500002 -0.00226382 3.04677e-15 -0.00304861 0 4.91632e-11
2039 53 0.001 0.0598034 -2.30877e-18 -0.0490197 -0.0103956 8.64814e-14 -0.00159081 0 5.74314e-12
2139 55 0.001 0.0609525 2.84606e-21 -0.0500001 0.00182987 -4.80284e-15 -0.00199951 0 3.29482e-11
2140 55 0.001 0.0619048 -8.35504e-19 -0.05 0.000545294 -2.33256e-13 -0.00055544 0 1.51647e-11
2141 55 0.001 0.0628571 -7.95894e-21 -0.05 3.4283e-05 -1.47553e-13 0.000171537 0 8.71055e-14
2142 55 0.001 0.0638095 4.16551e-19 -0.05 6.61221e-07 2.37181e-13 1.56917e-05 0 2.88839e-17
2143 55 0.001 0.0647619 5.1667e-21 -0.05 2.3323e-10 -6.20278e-15 -2.88295e-06 0 4.83811e-22
2144 55 0.001 0.0657143 -7.07534e-29 -0.05 -3.27533e-09 2.69941e-09 -1.10366e-07 0 2.94005e-22
2145 55 0.001 0.0666667 1.75247e-30 -0.05 -1.7394e-08 -5.39882e-09 44.9139 0 2.88024e-22
2146 55 0.001 0.067619 0 -0.05 2.38091e-08 2.37279e-08 -89.8278 0 6.71413e-23
2147 55 0.001 0.0685714 0 -0.05 1.76008e-10 -2.10285e-08 44.9139 0 1.43483e-22
2148 55 0.001 0.0695238 0 -0.05 -3.92628e-09 0 -1.44635e-08 0 1.06879e-22
2149 55 0.001 0.0704762 0 -0.05 3.12639e-10 5.94924e-06 -4.87974e-08 0 6.36543e-23
2150 55 0.001 0.0714286 0 -0.05 2.27349e-09 -1.18985e-05 7.90504e-08 0 5.86422e-23
2151 55 0.001 0.072381 -1.41806e-20 -0.05 4.54792e-09 5.94925e-06 -7.48905e-08 0 4.41985e-22
2152 55 0.001 0.0733333 2.83611e-20 -0.05 -7.55497e-09 -7.56799e-12 -6.05434e-08 0 5.58077e-22
2153 55 0.001 0.0742857 -1.07824e-20 -0.05 3.39324e-10 1.93095e-12 5.35262e-08 0 2.26449e-22
2154 55 0.001 0.0752381 -1.37304e-21 -0.05 -2.83206e-09 -9.84507e-14 -6.89901e-09 0 2.09587e-21
2155 55 0.001 0.0761905 -7.14015e-21 -0.05 -1.0738e-06 2.71785e-15 7.78388e-07 0 7.62996e-17
2156 55 0.001 0.0771429 6.79365e-21 -0.05 -7.33332e-05 -2.77237e-15 -2.80905e-06 0 3.83223e-13
2157 55 0.001 0.0780952 -7.33635e-20 -0.05 -0.00174551 -7.83858e-15 -9.14282e-06 0 2.1041e-10
2158 55 0.001 0.0790471 4.97989e-19 -0.05 0.000621161 1.45645e-14 -0.00551838 0 3.84884e-10
2279 57 0.001 0.0798024 2.47656e-18 -0.0490196 -0.00285064 -1.62698e-14 -0.0050434 0 1.25631e-10
19 19 0.001 0.0799999 9.25931e-18 -0.05 -0.00119265 -9.51956e-15 0.000818626 0 2.58676e-10
2040 54 0.001 0.0800023 1.10407e-17 -0.049 0.00672983 -8.87202e-14 -0.00179892 0 7.26664e-15
22 21 0.001 -0.1 9.17859e-19 -0.048 -0.000289227 -2.10968e-14 0.000247877 0 5.05731e-12
121 22 0.001 -0.0799994 4.80302e-20 -0.0479999 0.0120333 1.76826e-15 0.00159423 0 5.11369e-12
358 25 0.001 -0.0803927 -1.60192e-18 -0.0480392 -0.0117838 4.83861e-14 -0.000740209 0 5.09287e-12
598 29 0.001 -0.0603927 -3.77596e-18 -0.0480392 -0.0119007 -6.54774e-13 -0.000763592 0 5.09288e-12
361 26 0.001 -0.0599994 -6.64469e-18 -0.0479999 0.0120331 -2.32439e-12 0.00159423 0 5.11362e-12
601 30 0.001 -0.0399994 1.46095e-18 -0.0479999 0.0120331 -9.62152e-13 0.00159423 0 5.11362e-12
838 33 0.001 -0.0403927 2.00503e-18 -0.0480392 -0.0119007 -9.82644e-13 -0.000763592 0 5.09288e-12
841 34 0.001 -0.0199994 -5.06714e-19 -0.0479999 0.0120333 -3.82311e-13 0.00159423 0 5.11369e-12
1078 37 0.001 -0.0203927 3.12124e-18 -0.0480392 -0.0117766 -5.31507e-13 -0.000738776 0 5.09287e-12
1318 41 0.001 -0.000392748 -4.25924e-18 -0.0480392 -0.0117766 1.47739e-13 -0.000738776 0 5.09287e-12
1081 38 0.001 5.8695e-07 4.3806e-18 -0.0479999 0.0120333 -1.39735e-13 0.00159423 0 5.11369e-12
1321 42 0.001 0.0200006 -2.85438e-19 -0.0479999 0.0120333 -1.62234e-13 0.00159423 0 5.11369e-12
1558 45 0.001 0.0196073 3.30647e-18 -0.0480392 -0.0117766 6.82584e-13 -0.000738776 0 5.09287e-12
1561 46 0.001 0.0400006 1.46095e-18 -0.0479999 0.0120331 -9.62152e-13 0.00159423 0 5.11362e-12
1798 49 0.001 0.0396073 2.00503e-18 -0.0480392 -0.0119007 -9.82644e-13 -0.000763592 0 5.09288e-12
1801 50 0.001 0.0600006 -2.70335e-19 -0.0479999 0.0120333 4.77506e-15 0.00159423 0 5.11369e-12
2038 53 0.001 0.0596073 3.70692e-18 -0.0480392 -0.0117766 -1.40503e-13 -0.000738776 0 5.09287e-12
2278 57 0.001 0.0796072 -3.14927e-18 -0.0480392 -0.0151211 9.01852e-14 -0.000421002 0 4.18441e-11
2041 54 0.001 0.0800021 -2.44329e-17 -0.048 0.00898922 4.48258e-13 0.00261496 0 1.38264e-18
23 21 0.001 -0.1 -4.52382e-21 -0.047 9.0144e-05 2.39148e-15 6.4016e-06 0 2.92543e-15
24 21 0.001 -0.1 -4.51481e-19 -0.046 6.94224e-06 1.17737e-14 3.65799e-08 0 1.74807e-19
122 22 0.001 -0.0799995 -1.20606e-19 -0.0469999 0.0106956 4.67482e-15 0.0018059 0 7.83982e-14
123 22 0.001 -0.0799995 7.58708e-20 -0.0459999 0.00914913 -2.91302e-15 0.00164234 0 2.7149e-13
356 25 0.001 -0.0807848 -4.79932e-19 -0.0460784 -0.00930683 2.12886e-14 -0.000190044 0 2.66803e-13
357 25 0.001 -0.0805888 1.36921e-18 -0.0470588 -0.0109448 -4.3398e-14 -0.000353586 0 7.67804e-14
596 29 0.001 -0.0607848 5.81395e-19 -0.0460784 -0.00929632 1.94419e-13 -0.000187942 0 2.66804e-13
597 29 0.001 -0.0605888 4.08491e-19 -0.0470588 -0.0109022 -3.62652e-13 -0.000345074 0 7.67808e-14
362 26 0.001 -0.0599995 2.37089e-18 -0.0469999 0.0106956 6.57127e-13 0.0018059 0 7.83979e-14
363 26 0.001 -0.0599995 2.00105e-19 -0.0459999 0.00914913 6.08857e-14 0.00164234 0 2.7149e-13
836 33 0.001 -0.0407848 -1.9001e-20 -0.0460784 -0.00929632 -1.23578e-13 -0.000187942 0 2.66804e-13
602 30 0.001 -0.0399995 -1.54921e-18 -0.0469999 0.0106956 4.40568e-14 0.0018059 0 7.83979e-14
603 30 0.001 -0.0399995 1.63785e-19 -0.0459999 0.00914913 -4.60601e-14 0.00164234 0 2.7149e-13
837 33 0.001 -0.0405888 -1.50687e-18 -0.0470588 -0.0109022 1.05384e-13 -0.000345074 0 7.67808e-14
842 34 0.001 -0.0199995 -2.21433e-19 -0.0469999 0.0106956 1.28993e-14 0.0018059 0 7.83982e-14
843 34 0.001 -0.0199995 3.2601e-19 -0.0459999 0.00914913 -5.29377e-14 0.00164233 0 2.7149e-13
1076 37 0.001 -0.0207848 9.26302e-21 -0.0460784 -0.00929933 -1.24015e-14 -0.000188543 0 2.66803e-13
1077 37 0.001 -0.0205888 -1.70175e-18 -0.0470588 -0.0109675 7.25588e-14 -0.000358124 0 7.67801e-14
1316 41 0.001 -0.000784778 2.56046e-19 -0.0460784 -0.00929933 1.34704e-14 -0.000188543 0 2.66803e-13
1317 41 0.001 -0.000588777 1.42012e-18 -0.0470588 -0.0109675 -7.92718e-14 -0.000358124 0 7.67801e-14
1082 38 0.001 5.33215e-07 -2.03886e-18 -0.0469999 0.0106956 8.53026e-14 0.0018059 0 7.83982e-14
1083 38 0.001 4.5684e-07 -1.32631e-19 -0.0459999 0.00914913 -1.81773e-14 0.00164233 0 2.7149e-13
1556 45 0.001 0.0192152 1.36166e-19 -0.0460784 -0.00929933 -2.57696e-13 -0.000188543 0 2.66803e-13
1557 45 0.001 0.0194112 -1.7491e-18 -0.0470588 -0.0109675 -1.02494e-13 -0.000358124 0 7.67801e-14
1322 42 0.001 0.0200005 -2.21373e-19 -0.0469999 0.0106956 -3.71674e-14 0.0018059 0 7.83982e-14
1323 42 0.001 0.0200005 3.25999e-19 -0.0459999 0.00914913 -4.50188e-14 0.00164233 0 2.7149e-13
1562 46 0.001 0.0400005 -1.54921e-18 -0.0469999 0.0106956 4.40568e-14 0.0018059 0 7.83979e-14
1563 46 0.001 0.0400005 1.63785e-19 -0.0459999 0.00914913 -4.60601e-14 0.00164234 0 2.7149e-13
1796 49 0.001 0.0392152 -1.9001e-20 -0.0460784 -0.00929632 -1.23578e-13 -0.000187942 0 2.66804e-13
1797 49 0.001 0.0394112 -1.50687e-18 -0.0470588 -0.0109022 1.05384e-13 -0.000345074 0 7.67808e-14
1802 50 0.001 0.0600005 3.92642e-19 -0.0469999 0.0106956 -1.83345e-14 0.0018059 0 7.83982e-14
1803 50 0.001 0.0600005 -2.63632e-19 -0.0459999 0.00914913 4.10754e-14 0.00164233 0 2.7149e-13
2036 53 0.001 0.0592152 7.53589e-24 -0.0460784 -0.0092997 -1.34649e-14 -0.000188617 0 2.66803e-13
2037 53 0.001 0.0594112 -1.70173e-18 -0.0470588 -0.0109675 7.91567e-14 -0.000358126 0 7.67801e-14
2276 57 0.001 0.0792152 6.41616e-19 -0.0460784 -0.00908389 4.60435e-14 -0.00014851 0 2.67978e-13
2277 57 0.001 0.0794112 8.22858e-19 -0.0470588 -0.010201 -1.13623e-13 -0.000180819 0 1.00151e-13
2042 54 0.001 0.0800018 8.60837e-18 -0.047 0.00754757 -6.81373e-13 0.00261492 0 1.9478e-18
2043 54 0.001 0.0800016 2.97741e-18 -0.046 0.00604753 2.9812e-13 0.00235763 0 3.56925e-18
25 21 0.001 -0.1 -2.2496e-21 -0.045 -1.28227e-06 -5.38065e-15 -1.43383e-08 0 1.02142e-24
124 22 0.001 -0.0799996 4.47962e-20 -0.0449999 0.00727594 -1.82605e-15 0.00136568 0 4.56812e-13
355 25 0.001 -0.0809808 5.22347e-20 -0.045098 -0.00740532 -9.74809e-15 -8.99404e-05 0 4.52055e-13
595 29 0.001 -0.0609808 -6.57604e-20 -0.045098 -0.00740167 -9.95739e-15 -8.92115e-05 0 4.52055e-13
364 26 0.001 -0.0599996 7.57713e-20 -0.0449999 0.00727594 -5.45099e-14 0.00136568 0 4.56812e-13
835 33 0.001 -0.0409808 2.83392e-20 -0.045098 -0.00740167 8.07776e-14 -8.92115e-05 0 4.52055e-13
604 30 0.001 -0.0399996 8.17848e-20 -0.0449999 0.00727594 5.21207e-14 0.00136568 0 4.56812e-13
844 34 0.001 -0.0199996 -2.21397e-19 -0.0449999 0.00727594 7.4662e-14 0.00136568 0 4.56812e-13
1075 37 0.001 -0.0209808 4.1967e-20 -0.045098 -0.00740081 -4.60707e-15 -8.90383e-05 0 4.52055e-13
1315 41 0.001 -0.000980762 1.35316e-19 -0.045098 -0.00740081 -2.83781e-14 -8.90383e-05 0 4.52055e-13
1084 38 0.001 3.6326e-07 2.37793e-20 -0.0449999 0.00727594 1.65997e-14 0.00136568 0 4.56812e-13
1555 45 0.001 0.0190192 -7.46317e-20 -0.045098 -0.00740081 3.27155e-14 -8.90384e-05 0 4.52055e-13
1324 42 0.001 0.0200004 -2.21399e-19 -0.0449999 0.00727594 5.34392e-14 0.00136568 0 4.56812e-13
1795 49 0.001 0.0390192 2.83392e-20 -0.045098 -0.00740167 8.07776e-14 -8.92115e-05 0 4.52055e-13
1564 46 0.001 0.0400004 8.17848e-20 -0.0449999 0.00727594 5.21207e-14 0.00136568 0 4.56812e-13
1804 50 0.001 0.0600004 6.55796e-20 -0.0449999 0.00727594 -8.10292e-14 0.00136568 0 4.56812e-13
2035 53 0.001 0.0590192 2.61538e-24 -0.045098 -0.00740113 2.18392e-15 -8.91035e-05 0 4.52055e-13
2275 57 0.001 0.0790192 2.05129e-19 -0.045098 -0.00739776 -7.99817e-15 -9.22044e-05 0 4.52022e-13
2044 54 0.001 0.0800013 9.34825e-20 -0.045 0.00493969 6.46281e-14 0.00194989 0 6.15773e-18
26 21 0.001 -0.1 9.15116e-29 -0.044 -3.69978e-08 1.71861e-15 -1.44635e-08 0 3.61112e-32
27 21 0.001 -0.1 -3.94977e-30 -0.043 8.76484e-08 4.7979e-17 -1.44635e-08 0 1.44445e-33
353 25 0.001 -0.0813727 2.1595e-18 -0.0431373 -0.00336557 1.58201e-12 5.04811e-05 0 5.13787e-13
125 22 0.001 -0.0799997 -1.13019e-19 -0.0439999 0.00525873 4.6927e-15 0.00104105 0 5.30798e-13
126 22 0.001 -0.0799998 1.0208e-19 -0.043 0.00328877 -3.65216e-15 0.000708588 0 5.15912e-13
354 25 0.001 -0.0811767 -6.6786e-20 -0.0441176 -0.00536135 -6.75038e-14 -1.07023e-05 0 5.2677e-13
593 29 0.001 -0.0613727 -1.32485e-21 -0.0431373 -0.00336515 -6.5976e-14 5.05655e-05 0 5.13787e-13
594 29 0.001 -0.0611767 -2.85362e-21 -0.0441176 -0.00536133 -2.49052e-15 -1.0697e-05 0 5.2677e-13
365 26 0.001 -0.0599997 -9.98541e-20 -0.0439999 0.00525873 1.00131e-14 0.00104105 0 5.30798e-13
366 26 0.001 -0.0599998 2.32335e-20 -0.043 0.00328877 7.6099e-15 0.000708588 0 5.15912e-13
833 33 0.001 -0.0413727 -1.32485e-21 -0.0431373 -0.00336515 -6.36858e-16 5.05655e-05 0 5.13787e-13
834 33 0.001 -0.0411767 -2.85362e-21 -0.0441176 -0.00536133 -2.01522e-14 -1.0697e-05 0 5.2677e-13
605 30 0.001 -0.0399997 -9.98541e-20 -0.0439999 0.00525873 -3.20332e-14 0.00104105 0 5.30798e-13
606 30 0.001 -0.0399998 2.32335e-20 -0.043 0.00328877 7.59963e-15 0.000708588 0 5.15912e-13
1073 37 0.001 -0.0213727 2.26509e-18 -0.0431373 -0.00337138 1.32668e-12 4.93188e-05 0 5.13787e-13
1074 37 0.001 -0.0211767 -2.09966e-19 -0.0441176 -0.00535844 3.16795e-14 -1.01188e-05 0 5.2677e-13
845 34 0.001 -0.0199997 5.83961e-20 -0.0439999 0.00525873 -8.39844e-14 0.00104105 0 5.30798e-13
846 34 0.001 -0.0199998 -1.99818e-23 -0.043 0.00328877 1.0509e-13 0.000708588 0 5.15912e-13
1313 41 0.001 -0.00137272 2.23354e-18 -0.0431373 -0.00337138 1.27462e-12 4.93188e-05 0 5.13787e-13
1314 41 0.001 -0.00117674 -1.81286e-19 -0.0441176 -0.00535844 8.076e-14 -1.01189e-05 0 5.2677e-13
1085 38 0.001 2.62446e-07 2.88154e-20 -0.0439999 0.00525873 -2.34564e-14 0.00104105 0 5.30798e-13
1086 38 0.001 1.64413e-07 -4.58607e-21 -0.043 0.00328877 1.54052e-14 0.000708588 0 5.15912e-13
1553 45 0.001 0.0186273 2.17461e-18 -0.0431373 -0.00337138 1.32958e-12 4.93188e-05 0 5.13787e-13
1554 45 0.001 0.0188233 -6.97696e-20 -0.0441176 -0.00535844 2.56597e-14 -1.01188e-05 0 5.2677e-13
1325 42 0.001 0.0200003 5.83964e-20 -0.0439999 0.00525873 -7.72247e-14 0.00104105 0 5.30798e-13
1326 42 0.001 0.0200002 -1.99818e-23 -0.043 0.00328877 1.13945e-13 0.000708588 0 5.15912e-13
1793 49 0.001 0.0386273 -1.32485e-21 -0.0431373 -0.00336515 -6.36858e-16 5.05655e-05 0 5.13787e-13
1794 49 0.001 0.0388233 -2.85362e-21 -0.0441176 -0.00536133 -2.01522e-14 -1.0697e-05 0 5.2677e-13
1565 46 0.001 0.0400003 -9.98541e-20 -0.0439999 0.00525873 -3.20332e-14 0.00104105 0 5.30798e-13
1566 46 0.001 0.0400002 2.32335e-20 -0.043 0.00328877 7.59963e-15 0.000708588 0 5.15912e-13
2033 53 0.001 0.0586273 -1.63881e-21 -0.0431373 -0.00336515 -5.61278e-16 5.05649e-05 0 5.13787e-13
1805 50 0.001 0.0600003 2.25251e-21 -0.0439999 0.00525873 5.90029e-14 0.00104105 0 5.30798e-13
1806 50 0.001 0.0600002 -1.93504e-21 -0.043 0.00328877 4.30957e-14 0.000708588 0 5.15912e-13
2034 53 0.001 0.0588233 2.22476e-22 -0.0441176 -0.00536131 6.52824e-17 -1.06933e-05 0 5.2677e-13
2273 57 0.001 0.0786273 2.15957e-18 -0.0431373 -0.00335998 1.63589e-12 4.94752e-05 0 5.13367e-13