ITEM: TIMESTEP
1
ITEM: NUMBER OF ATOMS
2279
ITEM: BOX BOUNDS ff ff ff
-1.1000000000000000e-01 1.1000000000000000e-01
-6.0000000000000001e-03 6.0000000000000001e-03
-5.5000000000000000e-02 5.5000000000000000e-02
ITEM: ATOMS id type radius x y z fx fy fz c_bendingE c_stretchingE
1 1 0.001 -0.1 0 -0.05 -0.000171691 -1.09285e-23 1.14532e-05 0 5.24972e-14
21 21 0.001 -0.1 0 -0.049 -0.00198775 -5.03064e-18 0.00207028 0 5.37774e-14
219 23 0.001 -0.0990476 0 -0.05 0.00197155 5.54625e-18 -0.00208341 0 4.69317e-14
220 23 0.001 -0.0980952 0 -0.05 0.000192679 -1.10923e-17 -2.85791e-05 0 2.15191e-14
221 23 0.001 -0.0971429 0 -0.05 1.27532e-06 5.5461e-18 9.83585e-06 0 1.96072e-16
222 23 0.001 -0.0961905 0 -0.05 5.0153e-07 0 -1.95451e-08 0 1.08737e-24
223 23 0.001 -0.0952381 0 -0.05 2.39109e-08 0 -1.95451e-08 0 3.55512e-25
224 23 0.001 -0.0942857 0 -0.05 2.23599e-08 0 -1.95451e-08 0 2.09036e-26
225 23 0.001 -0.0933333 0 -0.05 -2.23599e-08 0 -1.95451e-08 0 2.09036e-26
226 23 0.001 -0.092381 0 -0.05 -2.39109e-08 0 -1.95451e-08 0 3.55512e-25
227 23 0.001 -0.0914286 0 -0.05 1.80677e-09 0 -1.95451e-08 0 1.08737e-24
228 23 0.001 -0.0904762 0 -0.05 -1.80677e-09 0 -1.95451e-08 0 1.08737e-24
229 23 0.001 -0.0895238 0 -0.05 2.447e-08 0 -1.95451e-08 0 3.55512e-25
230 23 0.001 -0.0885714 0 -0.05 -1.83533e-11 0 -1.95451e-08 0 2.09036e-26
231 23 0.001 -0.087619 0 -0.05 -2.29373e-08 0 -1.95451e-08 0 7.67814e-33
232 23 0.001 -0.0866667 0 -0.05 2.29373e-08 0 -1.95451e-08 0 7.67814e-33
233 23 0.001 -0.0857143 0 -0.05 1.83533e-11 0 -1.95451e-08 0 2.09036e-26
234 23 0.001 -0.0847619 0 -0.05 -2.447e-08 0 -1.95451e-08 0 3.55512e-25
235 23 0.001 -0.0838095 0 -0.05 1.80677e-09 -4.96035e-18 3.19641e-08 0 1.08737e-24
236 23 0.001 -0.0828571 0 -0.05 -2.05179e-06 -3.73254e-14 2.43209e-05 0 2.60929e-16
237 23 0.001 -0.0819048 0 -0.05 -0.000245551 5.60804e-14 -8.63993e-05 0 1.23708e-13
3 3 0.001 -0.08 -1.71068e-32 -0.05 -4.5073e-06 -2.61175e-14 -3.28571e-05 0 2.26268e-13
120 22 0.001 -0.08 0 -0.049 0.0164987 -9.40389e-22 0.000448773 0 2.67347e-14
238 23 0.001 -0.0809524 0 -0.05 -0.0045256 -1.6464e-16 -0.00519336 0 2.58511e-13
359 25 0.001 -0.0801961 9.69507e-33 -0.0490196 -0.0145579 5.93096e-14 -0.00246356 0 2.65914e-14
459 27 0.001 -0.0790476 0 -0.05 0.00367359 5.54631e-18 -0.0033989 0 1.69814e-13
460 27 0.001 -0.0780952 0 -0.05 0.00021024 -1.10923e-17 -4.66108e-05 0 8.1024e-14
461 27 0.001 -0.0771429 0 -0.05 9.5751e-07 5.54606e-18 1.60584e-05 0 1.96072e-16
462 27 0.001 -0.0761905 0 -0.05 8.19339e-07 0 -1.95451e-08 0 1.08737e-24
463 27 0.001 -0.0752381 0 -0.05 2.447e-08 0 -1.95451e-08 0 3.55512e-25
464 27 0.001 -0.0742857 0 -0.05 -1.83533e-11 0 -1.95451e-08 0 2.09036e-26
465 27 0.001 -0.0733333 0 -0.05 1.65436e-24 0 -1.95451e-08 0 7.67814e-33
466 27 0.001 -0.072381 0 -0.05 1.83533e-11 0 -1.95451e-08 0 2.09036e-26
467 27 0.001 -0.0714286 0 -0.05 -2.447e-08 0 -1.95451e-08 0 3.55512e-25
468 27 0.001 -0.0704762 0 -0.05 1.80677e-09 0 -1.95451e-08 0 1.08737e-24
469 27 0.001 -0.0695238 0 -0.05 -1.80677e-09 0 -1.95451e-08 0 1.08737e-24
470 27 0.001 -0.0685714 0 -0.05 2.39109e-08 0 -1.95451e-08 0 3.55512e-25
471 27 0.001 -0.067619 0 -0.05 2.23599e-08 0 -1.95451e-08 0 2.09036e-26
472 27 0.001 -0.0666667 0 -0.05 -2.23599e-08 0 -1.95451e-08 0 2.09036e-26
473 27 0.001 -0.0657143 0 -0.05 -2.39109e-08 0 -1.95451e-08 0 3.55512e-25
474 27 0.001 -0.0647619 0 -0.05 1.80677e-09 0 -1.95451e-08 0 1.08737e-24
475 27 0.001 -0.0638095 0 -0.05 -4.57059e-10 1.66172e-14 3.19641e-08 0 1.08737e-24
476 27 0.001 -0.0628571 0 -0.05 -2.05115e-06 4.05161e-15 2.43208e-05 0 2.60906e-16
477 27 0.001 -0.0619048 0 -0.05 -0.000245552 -3.93695e-14 -8.63992e-05 0 1.23708e-13
478 27 0.001 -0.0609524 0 -0.05 -0.00452559 1.15375e-16 -0.00519336 0 2.58513e-13
5 5 0.001 -0.06 1.20963e-32 -0.05 -3.5184e-06 1.64588e-14 -3.26588e-05 0 2.26266e-13
360 26 0.001 -0.06 0 -0.049 0.0164987 5.72118e-14 0.000448773 0 2.67347e-14
599 29 0.001 -0.0601961 1.80407e-25 -0.0490196 -0.0145541 -6.16787e-21 -0.00246279 0 2.65915e-14
699 31 0.001 -0.0590476 0 -0.05 0.0036736 1.34972e-09 -0.0033989 0 1.69806e-13
700 31 0.001 -0.0580952 0 -0.05 0.000211078 -2.69943e-09 -4.66136e-05 0 8.10196e-14
701 31 0.001 -0.0571429 0 -0.05 9.34554e-07 1.34971e-09 1.60598e-05 0 1.96184e-16
702 31 0.001 -0.0561905 0 -0.05 6.93256e-09 0 -1.95451e-08 0 1.52489e-22
703 31 0.001 -0.0552381 0 -0.05 -5.81664e-09 0 -1.95451e-08 0 1.7621e-22
704 31 0.001 -0.0542857 0 -0.05 2.5623e-09 0 -1.95451e-08 0 6.77743e-23
705 31 0.001 -0.0533333 0 -0.05 -2.5569e-09 0 -1.95451e-08 0 6.71499e-23
706 31 0.001 -0.052381 0 -0.05 5.99678e-09 0 -1.95451e-08 0 2.15296e-22
707 31 0.001 -0.0514286 0 -0.05 -6.66155e-09 0 -1.95451e-08 0 3.71155e-22
708 31 0.001 -0.0504762 0 -0.05 2.90398e-08 0 -1.95451e-08 0 3.71155e-22
709 31 0.001 -0.0495238 0 -0.05 -5.99678e-09 0 -1.95451e-08 0 2.15296e-22
710 31 0.001 -0.0485714 0 -0.05 -2.00551e-08 0 -1.95451e-08 0 5.69835e-23
711 31 0.001 -0.047619 0 -0.05 0 0 -1.95451e-08 0 6.77793e-24
712 31 0.001 -0.0466667 0 -0.05 2.00551e-08 0 -1.95451e-08 0 5.69835e-23
713 31 0.001 -0.0457143 0 -0.05 -1.50317e-08 0 -1.95451e-08 0 2.15296e-22
714 31 0.001 -0.0447619 0 -0.05 -5.31184e-09 0 -1.95451e-08 0 3.71155e-22
715 31 0.001 -0.0438095 0 -0.05 8.01125e-09 -6.07516e-18 4.35405e-08 0 3.71155e-22
716 31 0.001 -0.0428571 0 -0.05 -2.06138e-06 1.21506e-17 2.42977e-05 0 2.61148e-16
717 31 0.001 -0.0419048 0 -0.05 -0.000245549 -6.07563e-18 -8.63877e-05 0 1.23707e-13
718 31 0.001 -0.0409524 0 -0.05 -0.0045256 7.44197e-25 -0.00519336 0 2.58511e-13
7 7 0.001 -0.04 1.20963e-32 -0.05 -3.5184e-06 -2.12646e-15 -3.26588e-05 0 2.26266e-13
600 30 0.001 -0.04 0 -0.049 0.0164987 5.72118e-14 0.000448773 0 2.67347e-14
839 33 0.001 -0.0401961 1.80407e-25 -0.0490196 -0.0145541 -6.16787e-21 -0.00246279 0 2.65915e-14
939 35 0.001 -0.0390476 0 -0.05 0.0036736 1.34972e-09 -0.0033989 0 1.69806e-13
940 35 0.001 -0.0380952 0 -0.05 0.000211078 -2.69943e-09 -4.66136e-05 0 8.10196e-14
941 35 0.001 -0.0371429 0 -0.05 9.34554e-07 1.34971e-09 1.60598e-05 0 1.96184e-16
942 35 0.001 -0.0361905 0 -0.05 6.93256e-09 0 -1.95451e-08 0 1.52489e-22
943 35 0.001 -0.0352381 0 -0.05 -5.81664e-09 0 -1.95451e-08 0 1.7621e-22
944 35 0.001 -0.0342857 0 -0.05 2.5623e-09 0 -1.95451e-08 0 6.77743e-23
945 35 0.001 -0.0333333 0 -0.05 -2.5623e-09 0 -1.95451e-08 0 6.77743e-23
946 35 0.001 -0.032381 0 -0.05 6.13427e-09 0 -1.95451e-08 0 2.37715e-22
947 35 0.001 -0.0314286 0 -0.05 -8.98565e-09 0 -1.95451e-08 0 4.86602e-22
948 35 0.001 -0.0304762 0 -0.05 1.06025e-08 0 -1.95451e-08 0 6.84042e-22
949 35 0.001 -0.0295238 0 -0.05 -1.14394e-08 0 -1.95451e-08 0 7.93222e-22
950 35 0.001 -0.0285714 0 -0.05 1.29211e-08 0 -1.95451e-08 0 8.26292e-22
951 35 0.001 -0.027619 0 -0.05 9.77471e-09 0 -1.95451e-08 0 7.30979e-22
952 35 0.001 -0.0266667 0 -0.05 -3.53701e-08 0 -1.95451e-08 0 3.75192e-22
953 35 0.001 -0.0257143 0 -0.05 1.91197e-08 0 -1.95451e-08 0 1.16438e-22
954 35 0.001 -0.0247619 0 -0.05 -4.21905e-09 0 -1.95451e-08 0 3.75192e-22
955 35 0.001 -0.0238095 0 -0.05 -2.42297e-08 -1.9712e-09 4.18413e-08 0 7.25114e-22
956 35 0.001 -0.0228571 0 -0.05 -2.02885e-06 3.94245e-09 2.43011e-05 0 2.61468e-16
957 35 0.001 -0.0219048 0 -0.05 -0.000245544 -1.97126e-09 -8.63895e-05 0 1.23702e-13
9 9 0.001 -0.02 0 -0.05 -4.50395e-06 1.85854e-14 -3.28572e-05 0 2.26269e-13
840 34 0.001 -0.02 0 -0.049 0.0164987 -7.05243e-23 0.000448773 0 2.67347e-14
958 35 0.001 -0.0209524 0 -0.05 -0.0045256 1.07754e-16 -0.00519336 0 2.585e-13
1079 37 0.001 -0.0201961 1.07265e-24 -0.0490196 -0.0145577 -4.31984e-20 -0.0024635 0 2.65914e-14
1179 39 0.001 -0.0190476 0 -0.05 0.00367359 5.54631e-18 -0.0033989 0 1.69827e-13
1180 39 0.001 -0.0180952 0 -0.05 0.00021025 -1.10923e-17 -4.66108e-05 0 8.10315e-14
1181 39 0.001 -0.0171429 0 -0.05 9.46144e-07 5.54606e-18 1.60584e-05 0 1.95527e-16
1182 39 0.001 -0.0161905 0 -0.05 8.29085e-07 0 -1.95451e-08 0 3.88766e-22
1183 39 0.001 -0.0152381 0 -0.05 -3.05257e-09 0 -1.95451e-08 0 9.85303e-23
1184 39 0.001 -0.0142857 0 -0.05 2.1461e-08 0 -1.95451e-08 0 6.48978e-24
1185 39 0.001 -0.0133333 0 -0.05 -2.10469e-08 0 -1.95451e-08 0 2.09355e-26
1186 39 0.001 -0.012381 0 -0.05 2.71779e-09 0 -1.95451e-08 0 2.09355e-26
1187 39 0.001 -0.0114286 0 -0.05 -2.55048e-08 0 -1.95451e-08 0 6.27613e-24
1188 39 0.001 -0.0104762 0 -0.05 2.52804e-08 0 -1.95451e-08 0 8.13006e-23
1189 39 0.001 -0.00952381 0 -0.05 -6.17307e-09 0 -1.95451e-08 0 1.50091e-22
1190 39 0.001 -0.00857143 0 -0.05 7.54205e-10 0 -1.95451e-08 0 7.54268e-23
1191 39 0.001 -0.00761905 0 -0.05 5.05505e-09 0 -1.95451e-08 0 3.40428e-24
1192 39 0.001 -0.00666667 0 -0.05 -2.12957e-09 0 -1.95451e-08 0 3.02258e-24
1193 39 0.001 -0.00571429 0 -0.05 1.92715e-09 0 -1.95451e-08 0 2.09355e-26
1194 39 0.001 -0.0047619 0 -0.05 -2.34129e-09 0 -1.95451e-08 0 6.48992e-24
1195 39 0.001 -0.00380952 0 -0.05 6.85175e-09 -5.72772e-18 3.99326e-08 0 9.57757e-23
1196 39 0.001 -0.00285714 0 -0.05 -2.06258e-06 1.14557e-17 2.43049e-05 0 2.61367e-16
1197 39 0.001 -0.00190476 0 -0.05 -0.000245544 -5.72818e-18 -8.63914e-05 0 1.23702e-13
1198 39 0.001 -0.000952393 0 -0.05 -0.0045256 -2.26734e-24 -0.00519336 0 2.58503e-13
1319 41 0.001 -0.000196115 1.07265e-24 -0.0490196 -0.0145577 5.5175e-14 -0.0024635 0 2.65915e-14
11 11 0.001 8.02333e-14 0 -0.05 -4.50755e-06 -7.53207e-15 -3.28571e-05 0 2.26266e-13
1080 38 0.001 4.14982e-08 0 -0.049 0.0164987 -7.05243e-23 0.000448773 0 2.67347e-14
1419 43 0.001 0.00095239 0 -0.05 0.00367359 5.5463e-18 -0.0033989 0 1.69811e-13
1420 43 0.001 0.00190476 0 -0.05 0.00021106 -1.10923e-17 -4.66108e-05 0 8.10222e-14
1421 43 0.001 0.00285714 0 -0.05 9.57275e-07 5.54605e-18 1.60584e-05 0 1.96105e-16
1422 43 0.001 0.00380952 0 -0.05 0 0 -1.95451e-08 0 9.47919e-35
1423 43 0.001 0.0047619 0 -0.05 1.66511e-15 0 -1.95451e-08 0 9.47919e-35
1424 43 0.001 0.00571429 0 -0.05 0 0 -1.95451e-08 0 9.47919e-35
1425 43 0.001 0.00666667 0 -0.05 -3.33022e-15 0 -1.95451e-08 0 4.73959e-34
1426 43 0.001 0.00761905 0 -0.05 5.40572e-08 0 -1.95451e-08 0 6.09789e-26
1427 43 0.001 0.00857143 0 -0.05 -5.26346e-08 0 -1.95451e-08 0 6.83822e-24
1428 43 0.001 0.00952381 0 -0.05 -9.15405e-10 0 -1.95451e-08 0 8.00611e-23
1429 43 0.001 0.0104762 0 -0.05 -4.17388e-09 0 -1.95451e-08 0 1.46567e-22
1430 43 0.001 0.0114286 0 -0.05 4.55877e-09 0 -1.95451e-08 0 7.36653e-23
1431 43 0.001 0.012381 0 -0.05 -3.23189e-08 0 -1.95451e-08 0 3.40422e-24
1432 43 0.001 0.0133333 0 -0.05 3.14268e-08 0 -1.95451e-08 0 3.02248e-24
1433 43 0.001 0.0142857 0 -0.05 1.92715e-09 0 -1.95451e-08 0 2.09355e-26
1434 43 0.001 0.0152381 0 -0.05 2.19933e-08 0 -1.95451e-08 0 6.49006e-24
1435 43 0.001 0.0161905 0 -0.05 -2.1282e-08 -1.20712e-09 3.33138e-08 0 9.85316e-23
1436 43 0.001 0.0171429 0 -0.05 -2.05911e-06 2.41425e-09 2.43182e-05 0 2.61427e-16
1437 43 0.001 0.0180952 0 -0.05 -0.000245542 -1.20712e-09 -8.6398e-05 0 1.23698e-13
1438 43 0.001 0.0190476 0 -0.05 -0.0045256 -2.26734e-24 -0.00519336 0 2.58492e-13
13 13 0.001 0.02 0 -0.05 -4.50052e-06 2.8638e-21 -3.28573e-05 0 2.26266e-13
1320 42 0.001 0.02 0 -0.049 0.0164987 -7.05243e-23 0.000448773 0 2.67347e-14
1559 45 0.001 0.0198039 1.07265e-24 -0.0490196 -0.0145577 -4.31984e-20 -0.0024635 0 2.65914e-14
1659 47 0.001 0.0209524 0 -0.05 0.00367359 5.54631e-18 -0.0033989 0 1.6983e-13
1660 47 0.001 0.0219048 0 -0.05 0.000209428 -1.10923e-17 -4.66109e-05 0 8.10315e-14
1661 47 0.001 0.0228571 0 -0.05 3.43313e-06 5.54606e-18 1.60585e-05 0 1.95523e-16
1662 47 0.001 0.0238095 0 -0.05 -8.56516e-07 0 -1.95451e-08 0 3.75192e-22
1663 47 0.001 0.0247619 0 -0.05 2.10285e-08 0 -1.95451e-08 0 1.16438e-22
1664 47 0.001 0.0257143 0 -0.05 3.70429e-08 0 -1.95451e-08 0 2.91097e-22
1665 47 0.001 0.0266667 0 -0.05 -3.70429e-08 0 -1.95451e-08 0 2.91097e-22
1666 47 0.001 0.027619 0 -0.05 0 0 -1.95451e-08 0 1.16438e-22
1667 47 0.001 0.0285714 0 -0.05 3.70429e-08 0 -1.95451e-08 0 2.91097e-22
1668 47 0.001 0.0295238 0 -0.05 -3.56931e-08 0 -1.95451e-08 0 2.91097e-22
1669 47 0.001 0.0304762 0 -0.05 -3.23002e-10 0 -1.95451e-08 0 8.40942e-23
1670 47 0.001 0.0314286 0 -0.05 -7.5188e-09 0 -1.95451e-08 0 8.4094e-23
1671 47 0.001 0.032381 0 -0.05 4.47769e-09 0 -1.95451e-08 0 7.74411e-23
1672 47 0.001 0.0333333 0 -0.05 -1.29642e-09 0 -1.95451e-08 0 7.28167e-23
1673 47 0.001 0.0342857 0 -0.05 5.99678e-09 0 -1.95451e-08 0 2.15296e-22
1674 47 0.001 0.0352381 0 -0.05 -5.31184e-09 0 -1.95451e-08 0 3.71155e-22
1675 47 0.001 0.0361905 0 -0.05 8.01125e-09 -6.07516e-18 4.35405e-08 0 3.71155e-22
1676 47 0.001 0.0371429 0 -0.05 -2.06138e-06 1.21506e-17 2.42977e-05 0 2.61148e-16
1677 47 0.001 0.0380952 0 -0.05 -0.000245549 -6.07563e-18 -8.63877e-05 0 1.23707e-13
1678 47 0.001 0.0390476 0 -0.05 -0.0045256 7.44197e-25 -0.00519336 0 2.58511e-13
15 15 0.001 0.04 1.20963e-32 -0.05 -3.5184e-06 -2.12646e-15 -3.26588e-05 0 2.26266e-13
1560 46 0.001 0.04 0 -0.049 0.0164987 5.72118e-14 0.000448773 0 2.67347e-14
1799 49 0.001 0.0398039 1.80407e-25 -0.0490196 -0.0145541 -6.16787e-21 -0.00246279 0 2.65915e-14
1899 51 0.001 0.0409524 0 -0.05 0.0036736 1.34972e-09 -0.0033989 0 1.69806e-13
1900 51 0.001 0.0419048 0 -0.05 0.000211078 -2.69943e-09 -4.66136e-05 0 8.10196e-14
1901 51 0.001 0.0428571 0 -0.05 9.34554e-07 1.34971e-09 1.60598e-05 0 1.96184e-16
1902 51 0.001 0.0438095 0 -0.05 6.93256e-09 0 -1.95451e-08 0 1.52489e-22
1903 51 0.001 0.0447619 0 -0.05 -5.81664e-09 0 -1.95451e-08 0 1.7621e-22
1904 51 0.001 0.0457143 0 -0.05 2.5623e-09 0 -1.95451e-08 0 6.77743e-23
1905 51 0.001 0.0466667 0 -0.05 -2.5569e-09 0 -1.95451e-08 0 6.71499e-23
1906 51 0.001 0.047619 0 -0.05 5.99678e-09 0 -1.95451e-08 0 2.15296e-22
1907 51 0.001 0.0485714 0 -0.05 -6.66155e-09 0 -1.95451e-08 0 3.71155e-22
1908 51 0.001 0.0495238 0 -0.05 2.90398e-08 0 -1.95451e-08 0 3.71155e-22
1909 51 0.001 0.0504762 0 -0.05 -5.99678e-09 0 -1.95451e-08 0 2.15296e-22
1910 51 0.001 0.0514286 0 -0.05 -2.00551e-08 0 -1.95451e-08 0 5.69835e-23
1911 51 0.001 0.052381 0 -0.05 0 0 -1.95451e-08 0 6.77793e-24
1912 51 0.001 0.0533333 0 -0.05 2.00551e-08 0 -1.95451e-08 0 5.69835e-23
1913 51 0.001 0.0542857 0 -0.05 -1.50317e-08 0 -1.95451e-08 0 2.15296e-22
1914 51 0.001 0.0552381 0 -0.05 -5.78997e-09 0 -1.95451e-08 0 3.71155e-22
1915 51 0.001 0.0561905 0 -0.05 8.01125e-09 1.79487e-14 3.60912e-08 0 3.71155e-22
1916 51 0.001 0.0571429 0 -0.05 -2.06088e-06 1.38482e-15 2.43126e-05 0 2.61143e-16
1917 51 0.001 0.0580952 0 -0.05 -0.000245549 -3.80302e-14 -8.63952e-05 0 1.23707e-13
17 17 0.001 0.06 0 -0.05 -4.51003e-06 1.85853e-14 -3.28571e-05 0 2.26267e-13
1800 50 0.001 0.06 0 -0.049 0.0164987 -1.18614e-23 0.000448773 0 2.67347e-14
1918 51 0.001 0.0590476 0 -0.05 -0.00452559 1.11428e-16 -0.00519336 0 2.58512e-13
2039 53 0.001 0.0598039 1.80407e-25 -0.0490196 -0.0145577 -6.90243e-21 -0.0024635 0 2.65915e-14
2139 55 0.001 0.0609524 0 -0.05 0.0036736 5.54632e-18 -0.0033989 0 1.69807e-13
2140 55 0.001 0.0619048 0 -0.05 0.000211059 -1.10923e-17 -4.66109e-05 0 8.10207e-14
2141 55 0.001 0.0628571 0 -0.05 9.57753e-07 5.54607e-18 1.60585e-05 0 1.96141e-16
2142 55 0.001 0.0638095 0 -0.05 9.40827e-10 0 -1.95451e-08 0 8.3613e-25
2143 55 0.001 0.0647619 0 -0.05 2.25558e-08 0 -1.95451e-08 0 3.08366e-25
2144 55 0.001 0.0657143 0 -0.05 2.10102e-08 0 -1.95451e-08 0 2.09036e-26
2145 55 0.001 0.0666667 0 -0.05 -2.23599e-08 0 -1.95451e-08 0 2.09036e-26
2146 55 0.001 0.067619 0 -0.05 -2.39109e-08 0 -1.95451e-08 0 3.55512e-25
2147 55 0.001 0.0685714 0 -0.05 1.80677e-09 0 -1.95451e-08 0 1.08737e-24
2148 55 0.001 0.0695238 0 -0.05 -1.80677e-09 0 -1.95451e-08 0 1.08737e-24
2149 55 0.001 0.0704762 0 -0.05 2.447e-08 0 -1.95451e-08 0 3.55512e-25
2150 55 0.001 0.0714286 0 -0.05 -1.83533e-11 0 -1.95451e-08 0 2.09036e-26
2151 55 0.001 0.072381 0 -0.05 -2.29373e-08 0 -1.95451e-08 0 7.67814e-33
2152 55 0.001 0.0733333 0 -0.05 2.29373e-08 0 -1.95451e-08 0 7.67814e-33
2153 55 0.001 0.0742857 0 -0.05 1.83533e-11 0 -1.95451e-08 0 2.09036e-26
2154 55 0.001 0.0752381 0 -0.05 -2.447e-08 0 -1.95451e-08 0 3.55512e-25
2155 55 0.001 0.0761905 0 -0.05 1.80677e-09 3.02474e-17 3.99326e-08 0 1.08737e-24
2156 55 0.001 0.0771429 0 -0.05 -2.05167e-06 -2.1518e-16 -9.09478e-08 0 2.60899e-16
2157 55 0.001 0.0780952 0 -0.05 -0.000333625 3.06254e-16 -1.56764e-05 0 1.09096e-12
2158 55 0.001 0.0790476 0 -0.05 -0.00394023 -8.79534e-17 -0.00552324 0 2.40066e-12
2279 57 0.001 0.0798038 3.90514e-33 -0.0490196 -0.0120854 6.2464e-14 -0.0040756 0 5.3379e-13
19 19 0.001 0.08 -4.02307e-33 -0.05 3.05866e-06 6.47096e-14 5.67633e-05 0 1.68402e-12
2040 54 0.001 0.0800001 0 -0.049 0.0173859 6.20511e-15 -0.00176218 0 8.4512e-20
22 21 0.001 -0.1 0 -0.048 -2.3496e-05 1.00611e-17 2.03032e-05 0 2.68888e-14
121 22 0.001 -0.08 0 -0.048 0.0158748 -1.43345e-15 0.00247302 0 2.56006e-14
358 25 0.001 -0.0803922 -1.47924e-33 -0.0480392 -0.0160214 -1.03555e-13 -0.000696075 0 2.55075e-14
598 29 0.001 -0.0603922 -3.60813e-25 -0.0480392 -0.0160309 1.3281e-20 -0.00069797 0 2.55075e-14
361 26 0.001 -0.06 0 -0.048 0.0158748 -1.08045e-13 0.00247302 0 2.56006e-14
601 30 0.001 -0.04 0 -0.048 0.0158748 -1.08045e-13 0.00247302 0 2.56006e-14
838 33 0.001 -0.0403922 -3.60813e-25 -0.0480392 -0.0160309 1.3281e-20 -0.00069797 0 2.55075e-14
841 34 0.001 -0.02 0 -0.048 0.0158748 5.32812e-23 0.00247302 0 2.56006e-14
1078 37 0.001 -0.0203922 -2.14529e-24 -0.0480392 -0.0160207 8.91722e-20 -0.000695948 0 2.55075e-14
1318 41 0.001 -0.000392197 -2.14529e-24 -0.0480392 -0.0160207 -8.02224e-14 -0.000695948 0 2.55075e-14
1081 38 0.001 3.9736e-08 0 -0.048 0.0158748 5.32812e-23 0.00247302 0 2.56006e-14
1321 42 0.001 0.02 0 -0.048 0.0158748 5.32812e-23 0.00247302 0 2.56006e-14
1558 45 0.001 0.0196078 -2.14529e-24 -0.0480392 -0.0160207 8.91722e-20 -0.000695948 0 2.55075e-14
1561 46 0.001 0.04 0 -0.048 0.0158748 -1.08045e-13 0.00247302 0 2.56006e-14
1798 49 0.001 0.0396078 -3.60813e-25 -0.0480392 -0.0160309 1.3281e-20 -0.00069797 0 2.55075e-14
1801 50 0.001 0.06 0 -0.048 0.0158748 8.96127e-24 0.00247302 0 2.56006e-14
2038 53 0.001 0.0596078 -3.60813e-25 -0.0480392 -0.0160207 1.48723e-20 -0.000695948 0 2.55075e-14
2278 57 0.001 0.0796078 2.12207e-34 -0.0480392 -0.0162683 -2.54415e-13 -0.000674484 0 1.59741e-13
2041 54 0.001 0.0800001 0 -0.048 0.0152438 -4.57822e-15 0.00261954 0 4.45445e-23
23 21 0.001 -0.1 0 -0.047 8.10808e-06 -5.03051e-18 -1.95451e-08 0 1.44445e-33
24 21 0.001 -0.1 0 -0.046 0 0 -1.95451e-08 0 1.44445e-33
122 22 0.001 -0.08 0 -0.047 0.0144528 4.33145e-15 0.00248963 0 3.59654e-16
123 22 0.001 -0.08 0 -0.046 0.0123834 -2.92889e-15 0.00224636 0 1.27046e-15
356 25 0.001 -0.0807843 -2.67952e-25 -0.0460784 -0.0125825 -7.53183e-15 -0.00023027 0 1.24877e-15
357 25 0.001 -0.0805883 -4.32343e-33 -0.0470588 -0.0146666 5.93093e-14 -0.000402626 0 3.49527e-16
596 29 0.001 -0.0607843 -6.28766e-25 -0.0460784 -0.0125818 2.40382e-20 -0.000230143 0 1.24877e-15
597 29 0.001 -0.0605883 3.60813e-25 -0.0470588 -0.0146629 -1.64891e-20 -0.000401879 0 3.49527e-16
362 26 0.001 -0.06 0 -0.047 0.0144528 5.29592e-14 0.00248963 0 3.59654e-16
363 26 0.001 -0.06 0 -0.046 0.0123834 1.56478e-24 0.00224636 0 1.27046e-15
836 33 0.001 -0.0407843 -6.28766e-25 -0.0460784 -0.0125818 2.40382e-20 -0.000230143 0 1.24877e-15
602 30 0.001 -0.04 0 -0.047 0.0144528 5.29592e-14 0.00248963 0 3.59654e-16
603 30 0.001 -0.04 0 -0.046 0.0123834 1.56478e-24 0.00224636 0 1.27046e-15
837 33 0.001 -0.0405883 3.60813e-25 -0.0470588 -0.0146629 -1.64891e-20 -0.000401879 0 3.49527e-16
842 34 0.001 -0.02 0 -0.047 0.0144528 -2.01336e-23 0.00248963 0 3.59654e-16
843 34 0.001 -0.02 0 -0.046 0.0123834 1.029e-23 0.00224636 0 1.27046e-15
1076 37 0.001 -0.0207843 -2.14529e-24 -0.0460784 -0.0125818 7.87577e-20 -0.000230137 0 1.24877e-15
1077 37 0.001 -0.0205883 2.14529e-24 -0.0470588 -0.0146684 -9.09208e-20 -0.00040299 0 3.49527e-16
1316 41 0.001 -0.000784345 -2.14529e-24 -0.0460784 -0.0125818 1.05116e-14 -0.000230137 0 1.24877e-15
1317 41 0.001 -0.000588272 2.14529e-24 -0.0470588 -0.0146684 2.44434e-14 -0.00040299 0 3.49527e-16
1082 38 0.001 3.62367e-08 0 -0.047 0.0144528 -6.03933e-16 0.00248963 0 3.59654e-16
1083 38 0.001 3.10479e-08 0 -0.046 0.0123834 2.40225e-15 0.00224636 0 1.27046e-15
1556 45 0.001 0.0192157 -2.14529e-24 -0.0460784 -0.0125818 7.87577e-20 -0.000230137 0 1.24877e-15
1557 45 0.001 0.0194117 2.14529e-24 -0.0470588 -0.0146684 -9.09208e-20 -0.00040299 0 3.49527e-16
1322 42 0.001 0.02 0 -0.047 0.0144528 -2.01336e-23 0.00248963 0 3.59654e-16
1323 42 0.001 0.02 0 -0.046 0.0123834 1.029e-23 0.00224636 0 1.27046e-15
1562 46 0.001 0.04 0 -0.047 0.0144528 5.29592e-14 0.00248963 0 3.59654e-16
1563 46 0.001 0.04 0 -0.046 0.0123834 1.56478e-24 0.00224636 0 1.27046e-15
1796 49 0.001 0.0392157 -6.28766e-25 -0.0460784 -0.0125818 2.40382e-20 -0.000230143 0 1.24877e-15
1797 49 0.001 0.0394117 3.60813e-25 -0.0470588 -0.0146629 -1.64891e-20 -0.000401879 0 3.49527e-16
1802 50 0.001 0.06 0 -0.047 0.0144528 -2.40937e-24 0.00248963 0 3.59654e-16
1803 50 0.001 0.06 0 -0.046 0.0123834 1.56478e-24 0.00224636 0 1.27046e-15
2036 53 0.001 0.0592157 -6.28766e-25 -0.0460784 -0.0125818 2.40382e-20 -0.000230143 0 1.24877e-15
2037 53 0.001 0.0594117 3.60813e-25 -0.0470588 -0.0146684 -1.73051e-20 -0.00040299 0 3.49527e-16
2276 57 0.001 0.0792157 -2.67952e-25 -0.0460784 -0.0125807 6.47417e-14 -0.000230113 0 1.24877e-15
2277 57 0.001 0.0794117 -2.65328e-33 -0.0470588 -0.014588 6.24663e-14 -0.000386954 0 3.49527e-16
2042 54 0.001 0.0800001 0 -0.047 0.0136769 -3.25391e-15 0.00261878 0 1.70069e-23
2043 54 0.001 0.0800001 0 -0.046 0.011763 -4.57797e-15 0.00236232 0 4.58926e-23
25 21 0.001 -0.1 0 -0.045 0 0 -1.95451e-08 0 3.61112e-32
124 22 0.001 -0.08 0 -0.045 0.00984676 -1.40279e-15 0.00185864 0 2.1268e-15
355 25 0.001 -0.0809804 5.35905e-25 -0.045098 -0.01002 -1.85283e-20 -0.000110644 0 2.10479e-15
595 29 0.001 -0.0609804 7.16312e-25 -0.045098 -0.0100197 -2.57582e-20 -0.00011059 0 2.10479e-15
364 26 0.001 -0.06 0 -0.045 0.00984676 -3.68073e-24 0.00185864 0 2.1268e-15
835 33 0.001 -0.0409804 7.16312e-25 -0.045098 -0.0100197 -2.57582e-20 -0.00011059 0 2.10479e-15
604 30 0.001 -0.04 0 -0.045 0.00984676 -3.68073e-24 0.00185864 0 2.1268e-15
844 34 0.001 -0.02 0 -0.045 0.00984676 -2.55578e-24 0.00185864 0 2.1268e-15
1075 37 0.001 -0.0209804 1.07265e-24 -0.045098 -0.0100197 -4.47849e-20 -0.000110587 0 2.10479e-15
1315 41 0.001 -0.000980417 1.07265e-24 -0.045098 -0.0100197 -2.14256e-15 -0.000110588 0 2.10479e-15
1084 38 0.001 2.46882e-08 0 -0.045 0.00984676 -3.60076e-15 0.00185864 0 2.1268e-15
1555 45 0.001 0.0190196 1.07265e-24 -0.045098 -0.0100197 -4.47849e-20 -0.000110587 0 2.10479e-15
1324 42 0.001 0.02 0 -0.045 0.00984676 -2.55578e-24 0.00185864 0 2.1268e-15
1795 49 0.001 0.0390196 7.16312e-25 -0.045098 -0.0100197 -2.57582e-20 -0.00011059 0 2.10479e-15
1564 46 0.001 0.04 0 -0.045 0.00984676 -3.68073e-24 0.00185864 0 2.1268e-15
1804 50 0.001 0.06 0 -0.045 0.00984676 -3.68073e-24 0.00185864 0 2.1268e-15
2035 53 0.001 0.0590196 7.16312e-25 -0.045098 -0.0100197 -2.57582e-20 -0.00011059 0 2.10479e-15
2275 57 0.001 0.0790196 5.35905e-25 -0.045098 -0.0100193 -1.85283e-20 -0.000110726 0 2.10479e-15
2044 54 0.001 0.0800001 0 -0.045 0.009352 6.20499e-15 0.00195433 0 7.46715e-23
26 21 0.001 -0.1 0 -0.044 0 0 -1.9545e-08 0 3.61112e-32
27 21 0.001 -0.1 0 -0.043 0 0 -1.95451e-08 0 1.44445e-33
353 25 0.001 -0.0813726 0 -0.0431373 -0.00455997 -2.50562e-21 6.43161e-05 0 2.37784e-15
125 22 0.001 -0.08 0 -0.044 0.00711377 3.90788e-15 0.00141027 0 2.46338e-15
126 22 0.001 -0.08 0 -0.043 0.00445728 -3.60572e-15 0.000955874 0 2.3878e-15
354 25 0.001 -0.0811765 -2.67952e-25 -0.0441176 -0.00725297 1.15655e-20 -1.24482e-05 0 2.44465e-15
593 29 0.001 -0.0613726 0 -0.0431373 -0.00455997 -3.7423e-21 6.43161e-05 0 2.37784e-15
594 29 0.001 -0.0611765 -2.67952e-25 -0.0441176 -0.00725297 1.32852e-20 -1.24481e-05 0 2.44465e-15
365 26 0.001 -0.06 0 -0.044 0.00711377 7.90801e-24 0.00141027 0 2.46338e-15
366 26 0.001 -0.06 0 -0.043 0.00445728 -4.71771e-24 0.000955874 0 2.3878e-15
833 33 0.001 -0.0413726 0 -0.0431373 -0.00455997 -3.7423e-21 6.43161e-05 0 2.37784e-15
834 33 0.001 -0.0411765 -2.67952e-25 -0.0441176 -0.00725297 1.32852e-20 -1.24481e-05 0 2.44465e-15
605 30 0.001 -0.04 0 -0.044 0.00711377 7.90801e-24 0.00141027 0 2.46338e-15
606 30 0.001 -0.04 0 -0.043 0.00445728 -4.71771e-24 0.000955874 0 2.3878e-15
1073 37 0.001 -0.0213726 2.16535e-25 -0.0431373 -0.00456046 -1.30628e-20 6.42181e-05 0 2.37784e-15
1074 37 0.001 -0.0211765 1.57167e-33 -0.0441176 -0.00725273 1.22955e-20 -1.23997e-05 0 2.44465e-15
845 34 0.001 -0.02 0 -0.044 0.00711377 6.07555e-24 0.00141027 0 2.46338e-15
846 34 0.001 -0.02 0 -0.043 0.00445728 -5.32297e-24 0.000955874 0 2.3878e-15
1313 41 0.001 -0.00137256 2.16535e-25 -0.0431373 -0.00456047 2.47957e-15 6.42179e-05 0 2.37784e-15
1314 41 0.001 -0.00117649 1.57167e-33 -0.0441176 -0.00725273 -2.47445e-15 -1.23992e-05 0 2.44465e-15
1085 38 0.001 1.78354e-08 0 -0.044 0.00711377 2.41052e-15 0.00141027 0 2.46338e-15
1086 38 0.001 1.11766e-08 0 -0.043 0.00445728 -6.08069e-16 0.000955874 0 2.3878e-15
1553 45 0.001 0.0186274 2.16535e-25 -0.0431373 -0.00456046 -1.30628e-20 6.42181e-05 0 2.37784e-15
1554 45 0.001 0.0188235 1.57167e-33 -0.0441176 -0.00725273 1.22955e-20 -1.23997e-05 0 2.44465e-15
1325 42 0.001 0.02 0 -0.044 0.00711377 6.07555e-24 0.00141027 0 2.46338e-15
1326 42 0.001 0.02 0 -0.043 0.00445728 -5.32297e-24 0.000955874 0 2.3878e-15
1793 49 0.001 0.0386274 0 -0.0431373 -0.00455997 -3.7423e-21 6.43161e-05 0 2.37784e-15
1794 49 0.001 0.0388235 -2.67952e-25 -0.0441176 -0.00725297 1.32852e-20 -1.24481e-05 0 2.44465e-15
1565 46 0.001 0.04 0 -0.044 0.00711377 7.90801e-24 0.00141027 0 2.46338e-15
1566 46 0.001 0.04 0 -0.043 0.00445728 -4.71771e-24 0.000955874 0 2.3878e-15
2033 53 0.001 0.0586274 0 -0.0431373 -0.00455997 -3.7423e-21 6.43161e-05 0 2.37784e-15
1805 50 0.001 0.06 0 -0.044 0.00711377 7.90801e-24 0.00141027 0 2.46338e-15
1806 50 0.001 0.06 0 -0.043 0.00445728 -4.71771e-24 0.000955874 0 2.3878e-15
2034 53 0.001 0.0588235 -2.67952e-25 -0.0441176 -0.00725297 1.32852e-20 -1.24481e-05 0 2.44465e-15
2273 57 0.001 0.0786274 0 -0.0431373 -0.00455964 -2.50562e-21 6.42547e-05 0 2.37784e-15
2274 57 0.001 0.0788235 -2.67952e-25 -0.0441176 -0.00725242 1.15655e-20 -1.25297e-05 0 2.44465e-15
2045 54 0.001 0.0800001 0 -0.044 0.0067568 2.40934e-23 0.00148296 0 8.10898e-23
2046 54 0.001 0.08 0 -0.043 0.0042324 7.45898e-15 0.00100556 0 5.90988e-23
28 21 0.001 -0.1 0 -0.042 0 0 -1.95451e-08 0 1.44445e-33
352 25 0.001 -0.0815686 0 -0.0421569 -0.00223906 1.12844e-23 8.55617e-05 0 2.18898e-15
127 22 0.001 -0.08 0 -0.042 0.00217588 -2.6852e-15 0.000521156 0 2.1847e-15
592 29 0.001 -0.0615686 -1.08267e-25 -0.0421569 -0.0022388 4.73526e-21 8.56134e-05 0 2.18898e-15
367 26 0.001 -0.06 0 -0.042 0.00217588 1.10555e-25 0.000521156 0 2.1847e-15
832 33 0.001 -0.0415686 -1.08267e-25 -0.0421569 -0.0022388 4.73526e-21 8.56134e-05 0 2.18898e-15
607 30 0.001 -0.04 0 -0.042 0.00217588 1.10555e-25 0.000521156 0 2.1847e-15
1072 37 0.001 -0.0215686 -4.3307e-25 -0.0421569 -0.002239 2.17665e-20 8.55727e-05 0 2.18898e-15
847 34 0.001 -0.02 0 -0.042 0.00217588 3.483e-25 0.000521156 0 2.1847e-15
1312 41 0.001 -0.00156863 -4.3307e-25 -0.0421569 -0.002239 -2.37957e-16 8.55726e-05 0 2.18898e-15
1087 38 0.001 5.45183e-09 0 -0.042 0.00217588 1.95531e-15 0.000521156 0 2.1847e-15
1552 45 0.001 0.0184314 -4.3307e-25 -0.0421569 -0.002239 2.17665e-20 8.55727e-05 0 2.18898e-15
1327 42 0.001 0.02 0 -0.042 0.00217588 3.483e-25 0.000521156 0 2.1847e-15
1792 49 0.001 0.0384314 -1.08267e-25 -0.0421569 -0.0022388 4.73526e-21 8.56134e-05 0 2.18898e-15
1567 46 0.001 0.04 0 -0.042 0.00217588 1.10555e-25 0.000521156 0 2.1847e-15
2032 53 0.001 0.0584314 -1.08267e-25 -0.0421569 -0.0022388 4.73526e-21 8.56134e-05 0 2.18898e-15
1807 50 0.001 0.06 0 -0.042 0.00217588 1.10555e-25 0.000521156 0 2.1847e-15
2272 57 0.001 0.0784314 0 -0.0421569 -0.00223891 1.12844e-23 8.5528e-05 0 2.18898e-15
2047 54 0.001 0.08 0 -0.042 0.00206949 -1.64742e-14 0.000549077 0 2.45379e-23
29 21 0.001 -0.1 0 -0.041 0 0 -1.95451e-08 0 1.44445e-33
30 21 0.001 -0.1 0 -0.04 0 0 -1.95451e-08 0 1.44445e-33
350 25 0.001 -0.0819608 4.49973e-26 -0.0401961 -3.1427e-05 -4.97151e-18 -2.31704e-06 0 6.37862e-17
351 25 0.001 -0.0817647 -4.49973e-26 -0.0411765 -0.000708464 1.52318e-21 -3.08251e-05 0 1.11412e-15
128 22 0.001 -0.08 0 -0.041 0.000697842 6.29075e-15 0.000108006 0 1.10708e-15
129 22 0.001 -0.08 0 -0.04 3.14699e-05 -2.46896e-15 3.94124e-06 0 6.28344e-17
590 29 0.001 -0.0619608 -1.08267e-25 -0.0401961 -3.18209e-05 2.46782e-21 -2.39582e-06 0 6.37862e-17
591 29 0.001 -0.0617647 2.16535e-25 -0.0411765 -0.000708655 -7.17135e-21 -3.08633e-05 0 1.11412e-15
368 26 0.001 -0.06 0 -0.041 0.000697842 -7.87067e-26 0.000108006 0 1.10708e-15
369 26 0.001 -0.06 0 -0.04 3.14699e-05 5.06901e-18 3.94124e-06 0 6.28344e-17
830 33 0.001 -0.0419608 -1.08267e-25 -0.0401961 -3.18209e-05 2.46782e-21 -2.39582e-06 0 6.37862e-17
831 33 0.001 -0.0417647 2.16535e-25 -0.0411765 -0.000708655 -7.17135e-21 -3.08633e-05 0 1.11412e-15
608 30 0.001 -0.04 0 -0.041 0.000697842 -7.87067e-26 0.000108006 0 1.10708e-15
609 30 0.001 -0.04 0 -0.04 3.14699e-05 5.06901e-18 3.94124e-06 0 6.28344e-17
1070 37 0.001 -0.0219608 -1.07265e-24 -0.0401961 -3.14271e-05 -4.94892e-18 -2.31706e-06 0 6.37862e-17
1071 37 0.001 -0.0217647 1.28918e-24 -0.0411765 -0.000708313 -4.26031e-20 -3.07949e-05 0 1.11412e-15
848 34 0.001 -0.02 0 -0.041 0.000697842 -4.76431e-25 0.000108006 0 1.10708e-15
849 34 0.001 -0.02 0 -0.04 3.14699e-05 5.06901e-18 3.94124e-06 0 6.28344e-17
1310 41 0.001 -0.00196078 -1.07265e-24 -0.0401961 -3.14271e-05 -4.94892e-18 -2.31706e-06 0 6.37862e-17
1311 41 0.001 -0.00176471 1.28918e-24 -0.0411765 -0.000708313 -4.26024e-20 -3.07949e-05 0 1.11412e-15
1088 38 0.001 1.74815e-09 0 -0.041 0.000697842 -6.26517e-15 0.000108006 0 1.10708e-15
1089 38 0.001 7.54058e-11 0 -0.04 3.14699e-05 3.88298e-15 3.94124e-06 0 6.28344e-17
1550 45 0.001 0.0180392 -1.07265e-24 -0.0401961 -3.14271e-05 -4.94892e-18 -2.31706e-06 0 6.37862e-17
1551 45 0.001 0.0182353 1.28918e-24 -0.0411765 -0.000708313 -4.26031e-20 -3.07949e-05 0 1.11412e-15