ITEM: TIMESTEP
10
ITEM: NUMBER OF ATOMS
2279
ITEM: BOX BOUNDS ff ff ff
-1.1000000000000000e-01 1.1000000000000000e-01
-6.0000000000000001e-03 6.0000000000000001e-03
-5.5000000000000000e-02 5.5000000000000000e-02
ITEM: ATOMS id type radius x y z fx fy fz c_bendingE c_stretchingE
1 1 0.001 -0.1 0 -0.05 0.000561965 8.10884e-15 0.000677605 0 1.73464e-10
21 21 0.001 -0.1 6.51083e-19 -0.0489997 4.24763e-05 5.82633e-15 -0.000676016 0 1.52244e-10
219 23 0.001 -0.0990473 1.21298e-19 -0.0500003 -0.00063703 -2.44642e-13 0.000117883 0 1.32329e-10
220 23 0.001 -0.0980952 -1.12661e-17 -0.0500001 0.000471741 4.31667e-13 -0.000766851 0 5.19707e-11
221 23 0.001 -0.0971428 2.19673e-17 -0.05 0.000183514 1.39648e-11 5.37176e-06 0 4.27542e-12
222 23 0.001 -0.0961905 2.95542e-17 -0.05 2.2471e-05 -6.0321e-11 0.000159896 0 4.67122e-14
223 23 0.001 -0.0952381 -4.23446e-15 -0.05 1.28505e-06 -5.69508e-10 -8.75094e-06 0 1.35388e-16
224 23 0.001 -0.0942857 2.19605e-14 -0.05 4.53776e-08 3.52382e-09 -9.34218e-06 0 1.82883e-19
225 23 0.001 -0.0933333 2.44241e-13 -0.05 3.57255e-09 -2.7574e-10 9.12796e-07 0 1.3841e-21
226 23 0.001 -0.092381 -9.59781e-13 -0.05 2.59804e-09 -6.63014e-08 2.22509e-07 0 2.49949e-22
227 23 0.001 -0.0914286 -4.86762e-12 -0.05 3.43378e-11 2.07866e-07 -2.60717e-08 0 4.7103e-22
228 23 0.001 -0.0904762 3.46333e-11 -0.05 -3.47796e-09 1.8873e-09 -1.18007e-08 0 4.49239e-22
229 23 0.001 -0.0895238 4.81678e-11 -0.05 3.28764e-11 -1.15356e-06 -8.19785e-09 0 4.46966e-22
230 23 0.001 -0.0885714 -1.54377e-10 -0.05 3.4634e-09 2.0416e-06 -8.86774e-08 0 3.0323e-22
231 23 0.001 -0.087619 4.77139e-11 -0.05 1.59379e-09 -1.22557e-06 6.37795e-07 0 8.24407e-22
232 23 0.001 -0.0866667 3.47449e-11 -0.05 -5.96291e-09 8.85504e-09 2.16346e-06 0 1.45703e-21
233 23 0.001 -0.0857143 -4.23293e-12 -0.05 -5.52601e-08 3.03399e-07 -2.30753e-05 0 2.36778e-19
234 23 0.001 -0.0847619 -1.22882e-12 -0.05 -1.92196e-06 -1.21955e-07 -2.04499e-05 0 2.89571e-16
235 23 0.001 -0.0838095 1.3803e-13 -0.05 -3.79751e-05 -3.0105e-09 0.000391326 0 1.28395e-13
236 23 0.001 -0.0828572 8.04254e-15 -0.05 -0.000368853 4.45671e-09 1.55448e-05 0 1.58075e-11
237 23 0.001 -0.0819049 -1.78433e-15 -0.0500002 -0.00114672 -2.95902e-10 -0.00182628 0 2.94215e-10
3 3 0.001 -0.08 3.80941e-17 -0.0500002 -4.4398e-05 9.97533e-12 0.000148219 0 8.55607e-10
120 22 0.001 -0.0799969 -3.22795e-17 -0.0489999 0.00420339 5.24979e-12 0.000280165 0 1.68244e-10
238 23 0.001 -0.080953 7.62054e-17 -0.0500009 0.00142779 -1.57615e-11 0.000122616 0 6.80026e-10
359 25 0.001 -0.0801988 3.36276e-17 -0.04902 -0.00432143 -8.28677e-13 -0.000546985 0 1.61734e-10
459 27 0.001 -0.0790471 6.75294e-16 -0.0500006 -0.00131866 -3.08381e-11 2.47971e-05 0 5.01749e-10
460 27 0.001 -0.0780951 -8.30377e-15 -0.0500001 0.000912394 -2.02865e-10 -0.00116802 0 1.89766e-10
461 27 0.001 -0.0771428 -3.78622e-15 -0.05 0.000301657 1.1355e-09 1.58037e-05 0 1.06492e-11
462 27 0.001 -0.0761905 1.68142e-13 -0.05 3.14945e-05 -2.06755e-09 0.000254273 0 8.86631e-14
463 27 0.001 -0.0752381 1.04324e-13 -0.05 1.60629e-06 2.90687e-09 -1.38118e-05 0 2.10096e-16
464 27 0.001 -0.0742857 -6.51553e-14 -0.05 5.59773e-08 -6.82444e-09 -1.50278e-05 0 2.77189e-19
465 27 0.001 -0.0733333 -8.33846e-13 -0.05 7.29639e-09 2.62193e-09 1.48323e-06 0 2.23688e-21
466 27 0.001 -0.072381 -5.53867e-13 -0.05 -3.09726e-09 1.14388e-08 3.50807e-07 0 4.14419e-22
467 27 0.001 -0.0714286 2.15373e-12 -0.05 -2.17923e-11 -9.19085e-09 -4.16581e-08 0 2.92688e-23
468 27 0.001 -0.0704762 4.47404e-14 -0.05 1.16833e-09 -1.88372e-08 1.17725e-08 0 6.97832e-23
469 27 0.001 -0.0695238 -1.52096e-12 -0.05 -2.99858e-10 3.36903e-08 -4.90419e-08 0 1.54334e-22
470 27 0.001 -0.0685714 6.52116e-13 -0.05 -1.78043e-09 -1.67776e-08 -9.58022e-08 0 1.01885e-22
471 27 0.001 -0.067619 -4.3528e-13 -0.05 -2.13975e-09 7.01922e-09 7.4531e-07 0 5.77268e-22
472 27 0.001 -0.0666667 2.47485e-13 -0.05 1.0633e-09 -5.62012e-09 2.03006e-06 0 7.24642e-22
473 27 0.001 -0.0657143 1.02881e-13 -0.05 -5.31769e-08 8.63387e-11 -2.30095e-05 0 2.11312e-19
474 27 0.001 -0.0647619 -5.37555e-14 -0.05 -1.92473e-06 1.12158e-09 -2.04625e-05 0 2.89651e-16
475 27 0.001 -0.0638095 -8.44431e-16 -0.05 -3.79742e-05 -6.10269e-10 0.000391376 0 1.2839e-13
476 27 0.001 -0.0628572 1.78567e-15 -0.05 -0.000368787 1.22679e-10 1.55706e-05 0 1.5803e-11
477 27 0.001 -0.0619049 -4.72837e-16 -0.0500002 -0.00114495 5.91438e-12 -0.00182748 0 2.93684e-10
478 27 0.001 -0.060953 7.4018e-16 -0.0500009 0.00145001 1.41047e-11 0.00012481 0 6.88581e-10
5 5 0.001 -0.06 1.84266e-14 -0.0500002 -2.24057e-05 -7.59446e-13 0.000154506 0 8.55675e-10
360 26 0.001 -0.0599969 6.7172e-16 -0.0489999 0.00421093 1.45038e-11 0.00028529 0 1.67318e-10
599 29 0.001 -0.0601988 6.52118e-16 -0.04902 -0.00424053 1.50358e-11 -0.000530145 0 1.61619e-10
699 31 0.001 -0.0590471 4.82422e-16 -0.0500006 -0.00129644 -2.36106e-09 2.70135e-05 0 4.94127e-10
700 31 0.001 -0.0580951 1.11897e-14 -0.0500001 0.000914077 1.66247e-08 -0.00117514 0 1.90188e-10
701 31 0.001 -0.0571428 9.78132e-13 -0.05 0.000301725 1.44476e-07 7.76758e-05 0 1.06561e-11
702 31 0.001 -0.0561905 -5.83566e-12 -0.05 3.15752e-05 -5.31275e-07 0.000380421 0 8.89234e-14
703 31 0.001 -0.0552381 -2.07455e-11 -0.05 1.51268e-06 9.01722e-07 -0.00150631 0 2.01476e-16
704 31 0.001 -0.0542857 5.27875e-11 -0.0500001 -6.69655e-07 -1.10918e-06 0.00149073 0 9.15763e-17
705 31 0.001 -0.0533333 -1.74768e-11 -0.0499994 -1.34938e-05 7.81587e-07 0.00966163 0 1.36389e-15
706 31 0.001 -0.052381 -1.59682e-11 -0.0499984 -7.46252e-05 -1.11079e-07 -0.0435271 0 4.06914e-13
707 31 0.001 -0.0514286 6.40927e-12 -0.0500042 -2.5956e-08 -1.46665e-07 0.0673461 0 8.11059e-13
708 31 0.001 -0.0504762 -1.78557e-12 -0.0499984 7.46227e-05 3.531e-08 -0.0435405 0 4.06687e-13
709 31 0.001 -0.0495238 -2.38464e-12 -0.0499994 1.35212e-05 1.0371e-07 0.00970354 0 1.36325e-15
710 31 0.001 -0.0485714 7.59362e-12 -0.0500001 7.25125e-07 -1.53984e-07 0.00144038 0 9.41434e-17
711 31 0.001 -0.047619 -2.23799e-12 -0.05 8.36742e-08 9.45356e-08 -0.00148081 0 7.22003e-20
712 31 0.001 -0.0466667 -6.18786e-13 -0.05 -8.9141e-09 -2.58098e-08 0.000178394 0 4.7646e-21
713 31 0.001 -0.0457143 -4.50711e-13 -0.05 -4.69415e-08 5.29187e-09 1.18479e-05 0 1.93341e-19
714 31 0.001 -0.0447619 -1.13456e-12 -0.05 -1.92522e-06 -7.47488e-09 -2.79147e-05 0 2.89975e-16
715 31 0.001 -0.0438095 -2.7946e-13 -0.05 -3.79741e-05 1.54419e-08 0.000391406 0 1.28382e-13
716 31 0.001 -0.0428572 1.24788e-12 -0.05 -0.000368787 -1.78292e-08 1.55838e-05 0 1.5803e-11
717 31 0.001 -0.0419049 -4.23438e-14 -0.0500002 -0.00114495 8.80022e-09 -0.00182749 0 2.93684e-10
718 31 0.001 -0.040953 -8.11988e-14 -0.0500009 0.00145001 -1.82495e-09 0.000124811 0 6.88582e-10
7 7 0.001 -0.04 3.93624e-14 -0.0500002 -2.24056e-05 -1.41227e-10 0.000154504 0 8.55675e-10
600 30 0.001 -0.0399969 9.018e-16 -0.0489999 0.00421093 4.2235e-11 0.000285291 0 1.67318e-10
839 33 0.001 -0.0401988 9.28818e-16 -0.04902 -0.00424053 4.34096e-11 -0.000530145 0 1.61618e-10
939 35 0.001 -0.0390471 1.02505e-14 -0.0500006 -0.00129644 -8.35996e-12 2.69299e-05 0 4.94127e-10
940 35 0.001 -0.0380951 -1.96788e-14 -0.0500001 0.000914076 -1.33369e-11 -0.00116924 0 1.90188e-10
941 35 0.001 -0.0371428 -1.46442e-14 -0.05 0.000301724 2.34419e-10 1.58259e-05 0 1.06561e-11
942 35 0.001 -0.0361905 1.52091e-14 -0.05 3.15729e-05 -2.79547e-10 0.000254331 0 8.89224e-14
943 35 0.001 -0.0352381 -2.9872e-16 -0.05 1.60709e-06 -6.81506e-10 -1.38076e-05 0 2.01459e-16
944 35 0.001 -0.0342857 -1.19412e-14 -0.05 4.46225e-08 2.49256e-09 -1.50374e-05 0 1.55828e-19
945 35 0.001 -0.0333333 2.38144e-13 -0.05 1.95053e-09 9.16314e-10 1.48334e-06 0 1.9273e-22
946 35 0.001 -0.032381 -2.84949e-15 -0.05 -1.34539e-11 -7.91558e-09 3.53028e-07 0 7.66124e-23
947 35 0.001 -0.0314286 -2.21224e-12 -0.05 1.77782e-09 1.0921e-08 -7.61601e-08 0 4.66475e-23
948 35 0.001 -0.0304762 1.06735e-11 -0.05 -4.03366e-09 4.01834e-07 7.51126e-08 0 1.72599e-22
949 35 0.001 -0.0295238 2.3687e-11 -0.05 8.53657e-09 -1.55643e-06 -9.73448e-08 0 5.60029e-22
950 35 0.001 -0.0285714 -2.42483e-10 -0.05 -4.76537e-09 1.38422e-06 -2.58962e-08 0 1.10691e-21
951 35 0.001 -0.027619 -1.52537e-10 -0.05 -4.8205e-09 3.23719e-06 6.3332e-07 0 3.69378e-21
952 35 0.001 -0.0266667 7.16971e-10 -0.05 4.27745e-09 -7.46364e-06 2.02104e-06 0 3.337e-21
953 35 0.001 -0.0257143 -1.3001e-10 -0.05 -5.67982e-08 4.22209e-06 -2.28679e-05 0 2.16607e-19
954 35 0.001 -0.0247619 -2.59094e-10 -0.05 -1.92619e-06 1.27591e-06 -2.0496e-05 0 2.90931e-16
955 35 0.001 -0.0238095 2.25249e-11 -0.05 -3.7971e-05 -2.22515e-06 0.000391286 0 1.28368e-13
956 35 0.001 -0.0228572 1.38427e-11 -0.05 -0.000368856 6.91033e-07 1.55459e-05 0 1.58076e-11
957 35 0.001 -0.0219049 -1.45055e-12 -0.0500002 -0.00114671 5.82776e-08 -0.00182629 0 2.94214e-10
9 9 0.001 -0.02 6.6145e-14 -0.0500002 -4.36712e-05 1.8589e-09 0.000148386 0 8.55607e-10
840 34 0.001 -0.0199969 4.23037e-16 -0.0489999 0.00420346 8.42222e-11 0.000280199 0 1.68237e-10
958 35 0.001 -0.020953 -1.5203e-13 -0.0500009 0.00142799 -3.31682e-08 0.000122637 0 6.80095e-10
1079 37 0.001 -0.0201988 3.89674e-16 -0.04902 -0.0042947 7.30758e-11 -0.000541624 0 1.61732e-10
1179 39 0.001 -0.0190471 5.83264e-16 -0.0500006 -0.00131846 1.77829e-11 2.48111e-05 0 5.01687e-10
1180 39 0.001 -0.0180951 -1.4368e-14 -0.0500001 0.000912402 1.34544e-10 -0.00116803 0 1.89768e-10
1181 39 0.001 -0.0171428 5.54205e-15 -0.05 0.000301656 -1.29478e-10 1.58037e-05 0 1.06491e-11
1182 39 0.001 -0.0161905 1.69763e-14 -0.05 3.14945e-05 2.37389e-11 0.000254269 0 8.86695e-14
1183 39 0.001 -0.0152381 5.18918e-15 -0.05 1.60162e-06 3.28548e-11 -1.37985e-05 0 2.09629e-16
1184 39 0.001 -0.0142857 -1.48132e-14 -0.05 5.87699e-08 -1.033e-09 -1.50425e-05 0 3.14019e-19
1185 39 0.001 -0.0133333 -5.56179e-14 -0.05 8.70433e-09 -7.54227e-09 1.48312e-06 0 2.96131e-21
1186 39 0.001 -0.012381 4.32958e-13 -0.05 -2.60877e-09 4.02433e-08 3.29296e-07 0 8.28916e-22
1187 39 0.001 -0.0114286 2.12051e-12 -0.05 5.62214e-09 -8.61959e-08 4.01421e-08 0 8.1454e-22
1188 39 0.001 -0.0104762 -1.5969e-11 -0.05 4.91088e-09 -2.35988e-08 -7.64883e-08 0 4.83479e-21
1189 39 0.001 -0.00952381 -2.236e-11 -0.05 -1.1918e-08 5.47025e-07 -4.27552e-09 0 5.48337e-21
1190 39 0.001 -0.00857143 7.15578e-11 -0.05 -6.18035e-10 -9.57901e-07 -6.27301e-08 0 1.4089e-21
1191 39 0.001 -0.00761905 -2.1983e-11 -0.05 -1.2369e-09 5.87606e-07 6.06982e-07 0 1.0586e-21
1192 39 0.001 -0.00666667 -1.62071e-11 -0.05 6.04915e-09 -1.33043e-08 2.19363e-06 0 1.28457e-21
1193 39 0.001 -0.00571429 1.95618e-12 -0.05 -5.94137e-08 -1.41583e-07 -2.30908e-05 0 2.30059e-19
1194 39 0.001 -0.0047619 5.7512e-13 -0.05 -1.92346e-06 5.67365e-08 -2.04492e-05 0 2.89761e-16
1195 39 0.001 -0.00380952 -6.38486e-14 -0.05 -3.79757e-05 1.43699e-09 0.000391327 0 1.28394e-13
1196 39 0.001 -0.00285715 -4.00561e-15 -0.05 -0.000368853 -2.07547e-09 1.55454e-05 0 1.58076e-11
1197 39 0.001 -0.0019049 8.98465e-16 -0.0500002 -0.00114671 1.34574e-10 -0.00182629 0 2.94213e-10
1198 39 0.001 -0.000953043 -3.71858e-17 -0.0500009 0.00142799 8.21919e-12 0.000122638 0 6.80096e-10
1319 41 0.001 -0.000198813 3.15159e-17 -0.04902 -0.0042947 -7.7488e-13 -0.000541625 0 1.61732e-10
11 11 0.001 -3.15667e-08 -3.37518e-17 -0.0500002 -4.36636e-05 8.2598e-12 0.000148386 0 8.55612e-10
1080 38 0.001 3.05348e-06 1.70539e-17 -0.0489999 0.00420346 -3.12901e-13 0.000280199 0 1.68237e-10
1419 43 0.001 0.000952915 -3.0241e-17 -0.0500006 -0.00131846 -1.94376e-10 2.48115e-05 0 5.01683e-10
1420 43 0.001 0.00190487 -2.80853e-15 -0.0500001 0.000912325 4.02987e-10 -0.00116803 0 1.89763e-10
1421 43 0.001 0.00285715 7.31295e-14 -0.05 0.000301656 2.11754e-08 1.58298e-05 0 1.06523e-11
1422 43 0.001 0.00380952 -2.30273e-13 -0.05 3.15699e-05 -1.14256e-07 0.000254698 0 8.89154e-14
1423 43 0.001 0.0047619 -7.39643e-12 -0.05 1.6087e-06 1.70536e-07 -1.95032e-05 0 2.02073e-16
1424 43 0.001 0.00571429 3.09275e-11 -0.05 4.67875e-08 7.46225e-07 -4.04792e-05 0 1.5039e-19
1425 43 0.001 0.00666667 8.7286e-11 -0.05 -1.16913e-09 -3.08468e-06 0.000235062 0 9.60598e-22
1426 43 0.001 0.00761905 -2.22554e-10 -0.05 -2.56715e-08 5.03251e-06 -0.000228146 0 8.42717e-20
1427 43 0.001 0.00857143 9.46357e-11 -0.0500001 -3.42101e-07 -4.19427e-06 -0.00154374 0 9.42846e-19
1428 43 0.001 0.00952381 2.00922e-11 -0.0500003 -1.87906e-06 1.44365e-06 0.00692539 0 2.61193e-16
1429 43 0.001 0.0104762 -5.15983e-12 -0.0499993 -2.10584e-09 -7.176e-09 -0.0107121 0 5.19661e-16
1430 43 0.001 0.0114286 1.26959e-11 -0.0500003 1.89098e-06 8.85693e-07 0.00692511 0 2.60095e-16
1431 43 0.001 0.012381 6.03038e-11 -0.0500001 3.36029e-07 -2.65879e-06 -0.00154253 0 8.3588e-19
1432 43 0.001 0.0133333 -1.39532e-10 -0.05 2.0665e-08 3.25083e-06 -0.000229301 0 6.75916e-20
1433 43 0.001 0.0142857 5.66568e-11 -0.05 -5.46977e-08 -2.11762e-06 0.00021705 0 2.22359e-19
1434 43 0.001 0.0152381 1.41721e-11 -0.05 -1.92533e-06 6.19779e-07 -5.15681e-05 0 2.90324e-16
1435 43 0.001 0.0161905 -2.06116e-12 -0.05 -3.79738e-05 5.91269e-08 0.000387359 0 1.2839e-13
1436 43 0.001 0.0171428 9.15635e-14 -0.05 -0.000368853 -5.83033e-08 1.60092e-05 0 1.58076e-11
1437 43 0.001 0.0180951 1.95465e-14 -0.0500002 -0.00114671 5.45899e-09 -0.00182633 0 2.94213e-10
1438 43 0.001 0.019047 -1.94355e-14 -0.0500009 0.00142798 -5.66081e-11 0.000122636 0 6.80094e-10
13 13 0.001 0.02 3.90337e-15 -0.0500002 -4.36756e-05 -5.59466e-11 0.000148386 0 8.55602e-10
1320 42 0.001 0.0200031 1.94438e-16 -0.0489999 0.00420346 2.1155e-12 0.000280199 0 1.68237e-10
1559 45 0.001 0.0198012 1.36581e-16 -0.04902 -0.0042947 3.26828e-12 -0.000541624 0 1.61732e-10
1659 47 0.001 0.0209529 1.82286e-16 -0.0500006 -0.00131842 3.57341e-12 2.48113e-05 0 5.01681e-10
1660 47 0.001 0.0219049 -9.57807e-17 -0.0500001 0.00091244 -8.42813e-13 -0.00116803 0 1.89759e-10
1661 47 0.001 0.0228572 -2.18294e-17 -0.05 0.000301462 -3.00101e-13 1.58038e-05 0 1.06439e-11
1662 47 0.001 0.0238095 1.96037e-17 -0.05 3.16143e-05 -5.59337e-13 0.000254273 0 8.94886e-14
1663 47 0.001 0.0247619 1.68203e-19 -0.05 1.64247e-06 2.68632e-13 -1.38116e-05 0 2.03503e-16
1664 47 0.001 0.0257143 -8.00453e-19 -0.05 2.97747e-08 -3.72893e-15 -1.50157e-05 0 7.13416e-20
1665 47 0.001 0.0266667 5.31884e-20 -0.05 6.64521e-09 -1.08202e-14 1.42963e-06 0 4.37274e-21
1666 47 0.001 0.027619 1.00781e-20 -0.05 5.53846e-10 1.42848e-15 4.26261e-07 0 2.31593e-21
1667 47 0.001 0.0285714 -3.22779e-21 -0.05 -1.10893e-08 -8.6564e-17 -7.6172e-08 0 9.04475e-21
1668 47 0.001 0.0295238 6.35968e-22 -0.05 1.39465e-08 -3.53037e-17 -3.79793e-09 0 1.12933e-20
1669 47 0.001 0.0304762 -6.71056e-22 -0.05 -7.11301e-09 1.9808e-16 -3.15932e-08 0 3.86109e-21
1670 47 0.001 0.0314286 -6.20642e-22 -0.05 1.7083e-09 -4.42733e-17 -7.36142e-08 0 2.0233e-22
1671 47 0.001 0.032381 4.87557e-22 -0.05 -1.96781e-10 3.35568e-16 6.53824e-07 0 8.01558e-24
1672 47 0.001 0.0333333 8.34323e-20 -0.05 -3.14957e-10 -1.77646e-15 2.17423e-06 0 1.43777e-22
1673 47 0.001 0.0342857 -2.72404e-19 -0.05 -5.51484e-08 -1.62087e-14 -2.3099e-05 0 2.08796e-19
1674 47 0.001 0.0352381 -7.07597e-19 -0.05 -1.92526e-06 2.26132e-13 -2.04563e-05 0 2.90344e-16
1675 47 0.001 0.0361905 1.26275e-17 -0.05 -3.79732e-05 -3.63161e-14 0.000391388 0 1.28383e-13
1676 47 0.001 0.0371428 -2.49328e-17 -0.05 -0.000368787 -1.3299e-12 1.55676e-05 0 1.5803e-11
1677 47 0.001 0.0380951 -3.61796e-16 -0.0500002 -0.00114495 -6.81483e-12 -0.00182748 0 2.93684e-10
1678 47 0.001 0.039047 7.52687e-16 -0.0500009 0.00145001 1.67614e-11 0.000124811 0 6.88582e-10
15 15 0.001 0.04 1.71539e-14 -0.0500002 -2.24056e-05 -3.64054e-11 0.000154504 0 8.55675e-10
1560 46 0.001 0.0400031 5.91023e-16 -0.0489999 0.00421093 1.41706e-11 0.000285291 0 1.67318e-10
1799 49 0.001 0.0398012 5.9079e-16 -0.04902 -0.00424053 1.85957e-11 -0.000530145 0 1.61618e-10
1899 51 0.001 0.0409529 9.85378e-15 -0.0500006 -0.00129644 -3.72439e-11 2.69298e-05 0 4.94127e-10
1900 51 0.001 0.0419049 -1.94546e-14 -0.0500001 0.000914076 1.96637e-12 -0.00116924 0 1.90188e-10
1901 51 0.001 0.0428572 -1.46672e-14 -0.05 0.000301724 2.17997e-10 1.5826e-05 0 1.06561e-11
1902 51 0.001 0.0438095 1.48877e-14 -0.05 3.15729e-05 -2.58435e-10 0.000254331 0 8.89225e-14
1903 51 0.001 0.0447619 4.64614e-15 -0.05 1.60674e-06 5.89196e-12 -1.3807e-05 0 2.01488e-16
1904 51 0.001 0.0457143 -6.27569e-15 -0.05 4.41068e-08 -1.12364e-10 -1.50334e-05 0 1.59829e-19
1905 51 0.001 0.0466667 1.11099e-14 -0.05 7.89192e-09 1.54583e-09 1.44293e-06 0 1.73118e-21
1906 51 0.001 0.047619 1.818e-13 -0.05 -1.68349e-09 -3.32429e-09 4.18603e-07 0 2.04231e-21
1907 51 0.001 0.0485714 -6.4318e-14 -0.05 -7.29465e-09 2.34881e-09 -6.82161e-08 0 3.13808e-21
1908 51 0.001 0.0495238 -3.78297e-13 -0.05 2.97265e-09 1.24343e-09 -1.0059e-08 0 2.11596e-21
1909 51 0.001 0.0504762 2.21476e-13 -0.05 -1.81669e-10 -3.66103e-09 -3.09248e-08 0 2.32512e-22
1910 51 0.001 0.0514286 3.25463e-14 -0.05 2.17706e-09 2.80162e-09 -6.87156e-08 0 5.44682e-22
1911 51 0.001 0.052381 7.52854e-16 -0.05 -2.79824e-09 -7.32696e-10 6.42116e-07 0 4.12099e-22
1912 51 0.001 0.0533333 -3.95287e-16 -0.05 -2.76999e-09 -3.40554e-11 2.19059e-06 0 1.725e-21
1913 51 0.001 0.0542857 -5.54847e-18 -0.05 -5.08915e-08 -1.51286e-12 -2.3111e-05 0 1.9922e-19
1914 51 0.001 0.0552381 -4.36256e-19 -0.05 -1.92515e-06 1.73004e-12 -2.04473e-05 0 2.90123e-16
1915 51 0.001 0.0561905 -2.86531e-18 -0.05 -3.79751e-05 -2.05348e-12 0.00039134 0 1.2839e-13
1916 51 0.001 0.0571428 -4.72511e-18 -0.05 -0.000368852 -2.09521e-12 1.58129e-05 0 1.58075e-11
1917 51 0.001 0.0580951 1.68259e-16 -0.0500002 -0.00114672 5.75817e-11 -0.00182804 0 2.94213e-10
17 17 0.001 0.06 -6.74934e-14 -0.0500002 -4.27658e-05 -2.4126e-10 0.000126093 0 8.53974e-10
1800 50 0.001 0.0600031 -2.8453e-16 -0.0489999 0.00420353 -8.8827e-11 0.000286281 0 1.67379e-10
1918 51 0.001 0.059047 -2.99153e-16 -0.0500009 0.00142802 -1.03136e-10 0.000125294 0 6.80107e-10
2039 53 0.001 0.0598012 -2.93588e-16 -0.04902 -0.00429548 -7.78883e-11 -0.000535706 0 1.60925e-10
2139 55 0.001 0.0609529 4.26664e-13 -0.0500006 -0.00131722 2.4286e-08 -0.00237903 0 5.01669e-10
2140 55 0.001 0.0619049 9.35217e-13 -0.05 0.000904245 -6.20729e-08 0.0133554 0 1.89497e-10
2141 55 0.001 0.0628572 -6.99557e-12 -0.0499991 0.000595649 -2.10881e-08 0.038763 0 1.13074e-11
2142 55 0.001 0.0638095 -1.009e-11 -0.0500053 -0.0062695 2.45156e-07 -0.386508 0 1.15388e-09
2143 55 0.001 0.0647626 2.91814e-11 -0.0500322 0.0289695 -4.77745e-07 0.301254 0 3.15337e-08
2144 55 0.001 0.0656916 2.43949e-11 -0.0498493 0.0554172 3.76195e-06 1.11171 0 3.98462e-05
2145 55 0.001 0.0667089 6.26061e-11 -0.0493106 1.1434 -1.9642e-05 -8.05533 0 0.00236143
2146 55 0.001 0.067619 -4.61461e-09 -0.0516069 2.02089e-05 7.41657e-05 13.9566 0 0.0046433
2147 55 0.001 0.0685292 4.90205e-08 -0.0493106 -1.14319 0.000946415 -8.05467 0 0.00236146
2148 55 0.001 0.0695465 2.00382e-07 -0.049849 -0.0557134 -0.00484741 1.10673 0 3.97977e-05
2149 55 0.001 0.0704755 -4.75869e-07 -0.0500328 -0.0291329 0.00778606 0.309729 0 3.00802e-08
2150 55 0.001 0.0714286 1.50602e-07 -0.0500051 0.00652122 -0.00497921 -0.391974 0 1.24311e-09
2151 55 0.001 0.072381 1.01006e-07 -0.0499991 -0.000285007 0.00052403 0.0396245 0 6.55238e-13
2152 55 0.001 0.0733333 -1.82927e-08 -0.05 7.57358e-06 0.000837026 0.0144742 0 1.06102e-15
2153 55 0.001 0.0742857 -2.94958e-09 -0.05 -1.82689e-07 -0.000353135 -0.002117 0 7.35735e-19
2154 55 0.001 0.0752381 6.08151e-10 -0.05 -3.62842e-06 1.89002e-05 -0.000163043 0 1.00682e-15
2155 55 0.001 0.0761905 1.12495e-11 -0.05 -8.04986e-05 1.15962e-05 3.10662e-05 0 5.6022e-13
2156 55 0.001 0.0771428 -4.10633e-12 -0.05 -0.000776746 -2.27579e-06 -7.34152e-06 0 7.05675e-11
2157 55 0.001 0.0780949 1.01987e-13 -0.05 -0.00114978 3.34897e-10 2.28592e-06 0 7.60741e-10
2158 55 0.001 0.0790465 1.23374e-14 -0.05 0.000184515 9.39327e-09 -0.00550773 0 7.39777e-10
2279 57 0.001 0.0797985 -4.82297e-17 -0.0490196 0.00210945 -1.94818e-12 -0.00717635 0 9.99991e-10
19 19 0.001 0.0799991 -2.0487e-15 -0.05 0.00121894 -4.64064e-10 0.00275126 0 8.40325e-10
2040 54 0.001 0.0800093 -1.70268e-16 -0.049 -0.00142239 -2.62669e-12 -0.00199863 0 2.57099e-12
22 21 0.001 -0.1 2.88548e-18 -0.048 -0.000706345 -1.70303e-14 0.000543859 0 6.52502e-11
121 22 0.001 -0.0799969 5.70112e-17 -0.0479996 0.00708048 -8.865e-12 0.000238765 0 1.01327e-10
358 25 0.001 -0.0803952 -5.67922e-17 -0.0480394 -0.00612221 1.58604e-12 -0.000979718 0 1.00342e-10
598 29 0.001 -0.0603953 -3.41824e-16 -0.0480394 -0.00642088 -4.6989e-12 -0.00103951 0 1.00344e-10
361 26 0.001 -0.0599969 -4.07004e-16 -0.0479996 0.00707719 -3.62312e-12 0.000239146 0 1.01261e-10
601 30 0.001 -0.0399969 -4.16748e-16 -0.0479996 0.00707719 -2.31665e-11 0.000239146 0 1.01261e-10
838 33 0.001 -0.0403953 -4.50843e-16 -0.0480394 -0.00642088 -2.39358e-11 -0.00103951 0 1.00344e-10
841 34 0.001 -0.0199969 -2.27416e-16 -0.0479996 0.00708046 -4.76281e-11 0.000238785 0 1.01327e-10
1078 37 0.001 -0.0203952 -1.48597e-16 -0.0480394 -0.00611846 -2.33272e-11 -0.000978981 0 1.00341e-10
1318 41 0.001 -0.000395238 -4.27372e-17 -0.0480394 -0.00611846 1.94147e-12 -0.000978981 0 1.00341e-10
1081 38 0.001 3.12318e-06 -3.01568e-17 -0.0479996 0.00708046 5.79763e-13 0.000238786 0 1.01327e-10
1321 42 0.001 0.0200031 -1.41288e-16 -0.0479996 0.00708046 7.30479e-13 0.000238785 0 1.01327e-10
1558 45 0.001 0.0196048 -4.93469e-17 -0.0480394 -0.00611846 -8.40237e-13 -0.000978981 0 1.00341e-10
1561 46 0.001 0.0400031 -2.67914e-16 -0.0479996 0.00707719 -4.95633e-12 0.000239146 0 1.01261e-10
1798 49 0.001 0.0396047 -2.61759e-16 -0.0480394 -0.00642088 -1.16871e-11 -0.00103951 0 1.00344e-10
1801 50 0.001 0.0600031 2.07712e-16 -0.0479996 0.00708046 5.07224e-11 0.000238835 0 1.01319e-10
2038 53 0.001 0.0596048 1.84325e-16 -0.0480394 -0.00611851 2.86389e-11 -0.000978943 0 1.00334e-10
2278 57 0.001 0.0796042 1.14293e-16 -0.0480393 -0.00938257 -5.44486e-13 -8.45928e-05 0 2.24716e-10
2041 54 0.001 0.0800102 1.02289e-16 -0.048 0.00143885 4.00544e-12 0.00259434 0 8.76638e-16
23 21 0.001 -0.1 7.62988e-19 -0.047 4.64311e-05 -1.82226e-14 0.000133328 0 1.89103e-12
24 21 0.001 -0.1 -2.44248e-18 -0.046 0.000125144 4.89297e-14 9.62401e-06 0 7.94198e-15
122 22 0.001 -0.0799972 -2.96172e-17 -0.0469995 0.00615112 4.40837e-12 0.000751305 0 3.30506e-12
123 22 0.001 -0.0799976 2.44557e-18 -0.0459996 0.00493657 -2.51889e-13 0.000811185 0 6.76113e-12
356 25 0.001 -0.0807867 1.37373e-18 -0.0460785 -0.00514509 1.61875e-13 -0.000204053 0 6.63736e-12
357 25 0.001 -0.0805911 2.63966e-17 -0.0470589 -0.00625564 -1.101e-12 -0.000488647 0 3.31005e-12
596 29 0.001 -0.0607867 1.6662e-17 -0.0460785 -0.00507534 1.57587e-13 -0.000190127 0 6.63761e-12
597 29 0.001 -0.0605911 -1.65227e-17 -0.0470589 -0.00621152 -2.17136e-12 -0.000479828 0 3.31086e-12
362 26 0.001 -0.0599972 2.60356e-17 -0.0469995 0.00615068 -2.93546e-12 0.000751207 0 3.30431e-12
363 26 0.001 -0.0599976 1.76732e-17 -0.0459996 0.00493666 3.3402e-13 0.000811208 0 6.76095e-12
836 33 0.001 -0.0407867 9.30595e-18 -0.0460785 -0.00507534 2.69768e-13 -0.000190127 0 6.63761e-12
602 30 0.001 -0.0399972 -2.82085e-17 -0.0469995 0.00615068 9.17538e-13 0.000751207 0 3.30431e-12
603 30 0.001 -0.0399976 3.1884e-18 -0.0459996 0.00493666 3.31253e-13 0.000811208 0 6.76095e-12
837 33 0.001 -0.0405911 -1.99851e-17 -0.0470589 -0.00621152 1.08347e-12 -0.000479828 0 3.31086e-12
842 34 0.001 -0.0199972 7.95727e-19 -0.0469995 0.00615108 3.52808e-12 0.000751307 0 3.30508e-12
843 34 0.001 -0.0199976 7.79085e-18 -0.0459996 0.00493657 1.80208e-13 0.00081116 0 6.76109e-12
1076 37 0.001 -0.0207867 -1.4719e-18 -0.0460785 -0.00514008 1.39321e-12 -0.000203055 0 6.63724e-12
1077 37 0.001 -0.0205911 -3.22293e-17 -0.0470589 -0.00631933 -1.02026e-11 -0.000501361 0 3.30987e-12
1316 41 0.001 -0.000786746 5.59788e-18 -0.0460785 -0.00514007 9.15469e-13 -0.000203055 0 6.63724e-12
1317 41 0.001 -0.000591095 6.57107e-18 -0.0470589 -0.00631933 -2.15269e-12 -0.000501361 0 3.30987e-12
1082 38 0.001 2.79942e-06 1.12338e-17 -0.0469995 0.00615108 -5.02079e-13 0.000751307 0 3.30508e-12
1083 38 0.001 2.39122e-06 4.45047e-18 -0.0459996 0.00493657 9.30354e-14 0.00081116 0 6.76109e-12
1556 45 0.001 0.0192133 -1.42264e-17 -0.0460785 -0.00514008 1.64311e-13 -0.000203055 0 6.63724e-12
1557 45 0.001 0.0194089 3.54827e-18 -0.0470589 -0.00631933 -7.30349e-13 -0.000501361 0 3.30987e-12
1322 42 0.001 0.0200028 1.90744e-17 -0.0469995 0.00615108 -1.55055e-12 0.000751307 0 3.30508e-12
1323 42 0.001 0.0200024 8.86246e-18 -0.0459996 0.00493657 2.09451e-13 0.00081116 0 6.76109e-12
1562 46 0.001 0.0400028 -2.32747e-17 -0.0469995 0.00615068 -1.71635e-12 0.000751207 0 3.30431e-12
1563 46 0.001 0.0400024 2.42208e-18 -0.0459996 0.00493666 1.82535e-13 0.000811208 0 6.76095e-12
1796 49 0.001 0.0392133 8.16678e-18 -0.0460785 -0.00507534 -1.02844e-14 -0.000190127 0 6.63761e-12
1797 49 0.001 0.0394089 -3.26722e-17 -0.0470589 -0.00621152 1.4531e-12 -0.000479828 0 3.31086e-12
1802 50 0.001 0.0600028 -4.92991e-17 -0.0469995 0.00615108 -3.67107e-12 0.000751308 0 3.30508e-12
1803 50 0.001 0.0600024 2.12074e-18 -0.0459996 0.00493657 -9.85651e-13 0.000811161 0 6.76109e-12
2036 53 0.001 0.0592133 -1.62915e-17 -0.0460785 -0.00514119 -8.06761e-14 -0.000203277 0 6.63724e-12
2037 53 0.001 0.0594089 -5.62787e-18 -0.0470589 -0.00631951 6.829e-12 -0.000501398 0 3.30987e-12
2276 57 0.001 0.0792133 5.74457e-18 -0.0460785 -0.00426772 -8.28586e-13 -4.06404e-06 0 7.72003e-12
2277 57 0.001 0.079409 -7.79918e-17 -0.0470589 -0.00681205 1.72394e-12 -0.000122171 0 1.61009e-11
2042 54 0.001 0.0800089 4.05493e-16 -0.047 0.00324198 -6.5367e-12 0.00260006 0 2.00011e-15
2043 54 0.001 0.0800073 -2.80699e-16 -0.046 0.00239325 5.51668e-12 0.00233925 0 2.44196e-15
25 21 0.001 -0.1 -8.30992e-20 -0.045 -9.84613e-06 -2.19852e-14 3.20727e-07 0 8.35399e-18
124 22 0.001 -0.0799981 -1.38569e-18 -0.0449996 0.00393249 7.32451e-14 0.000706985 0 1.19966e-11
355 25 0.001 -0.0809823 -1.03102e-17 -0.0450981 -0.00401459 -1.56277e-13 -8.30374e-05 0 1.18674e-11
595 29 0.001 -0.0609823 3.18808e-18 -0.0450981 -0.00399314 6.27232e-14 -7.8756e-05 0 1.18676e-11
364 26 0.001 -0.0599981 -1.51538e-18 -0.0449996 0.00393251 7.24138e-14 0.000706999 0 1.19967e-11
835 33 0.001 -0.0409823 -1.39552e-18 -0.0450981 -0.00399314 1.24815e-13 -7.8756e-05 0 1.18676e-11
604 30 0.001 -0.0399981 8.71421e-19 -0.0449996 0.00393251 5.02984e-14 0.000706999 0 1.19967e-11
844 34 0.001 -0.0199981 8.29992e-19 -0.0449996 0.0039325 2.03182e-14 0.000706987 0 1.19965e-11
1075 37 0.001 -0.0209823 1.35103e-18 -0.0450981 -0.00398381 3.28312e-13 -7.68961e-05 0 1.18675e-11
1315 41 0.001 -0.000982327 3.41491e-18 -0.0450981 -0.00398381 4.91914e-13 -7.68961e-05 0 1.18675e-11
1084 38 0.001 1.90188e-06 -1.93329e-18 -0.0449996 0.0039325 2.08531e-13 0.000706987 0 1.19965e-11
1555 45 0.001 0.0190177 -1.7884e-19 -0.0450981 -0.00398381 5.16964e-13 -7.68961e-05 0 1.18675e-11
1324 42 0.001 0.0200019 -1.06637e-18 -0.0449996 0.0039325 2.72082e-13 0.000706987 0 1.19965e-11
1795 49 0.001 0.0390177 -1.35734e-18 -0.0450981 -0.00399314 1.33949e-13 -7.8756e-05 0 1.18676e-11
1564 46 0.001 0.0400019 8.49915e-19 -0.0449996 0.00393251 4.05204e-14 0.000706999 0 1.19967e-11
1804 50 0.001 0.0600019 2.96986e-18 -0.0449996 0.0039325 2.42088e-13 0.000706988 0 1.19965e-11
2035 53 0.001 0.0590177 3.30904e-19 -0.0450981 -0.00398884 9.29572e-15 -7.79006e-05 0 1.18675e-11
2275 57 0.001 0.0790177 -9.36193e-18 -0.0450981 -0.0038819 -3.83685e-14 -6.78174e-05 0 1.19143e-11
2044 54 0.001 0.0800059 -3.92555e-17 -0.045 0.000979983 -1.2336e-12 0.00193162 0 2.76246e-15
26 21 0.001 -0.1 2.1439e-19 -0.044 -6.20434e-06 -2.70789e-15 -1.66745e-09 0 2.84742e-21
27 21 0.001 -0.1 3.23536e-20 -0.043 6.68035e-07 2.44724e-15 -7.84914e-09 0 3.56318e-25
353 25 0.001 -0.0813734 2.0006e-16 -0.0431372 -0.00181748 -1.6142e-11 3.65281e-05 0 1.38745e-11
125 22 0.001 -0.0799986 9.14104e-19 -0.0439997 0.00284987 -3.48897e-14 0.000557753 0 1.41897e-11
126 22 0.001 -0.0799991 -4.59808e-19 -0.0429998 0.00177987 4.51609e-14 0.000392255 0 1.39287e-11
354 25 0.001 -0.0811779 5.59959e-17 -0.0441176 -0.0029026 5.15326e-12 -1.20469e-05 0 1.40832e-11
593 29 0.001 -0.0613734 -2.35893e-18 -0.0431372 -0.0018208 3.94608e-14 3.58651e-05 0 1.38745e-11
594 29 0.001 -0.0611779 -5.17797e-19 -0.0441176 -0.00290132 -1.29158e-14 -1.17908e-05 0 1.40833e-11
365 26 0.001 -0.0599986 -9.35403e-19 -0.0439997 0.00284987 -1.53935e-14 0.000557757 0 1.41898e-11
366 26 0.001 -0.0599991 -1.55061e-18 -0.0429998 0.00177986 1.40681e-14 0.000392257 0 1.39287e-11
833 33 0.001 -0.0413734 -3.24244e-18 -0.0431372 -0.0018208 5.40144e-14 3.58651e-05 0 1.38745e-11
834 33 0.001 -0.0411779 1.62368e-18 -0.0441176 -0.00290132 -6.85712e-14 -1.17908e-05 0 1.40833e-11
605 30 0.001 -0.0399986 7.77218e-19 -0.0439997 0.00284987 -3.13791e-14 0.000557757 0 1.41898e-11
606 30 0.001 -0.0399991 -3.88884e-18 -0.0429998 0.00177986 5.11783e-14 0.000392257 0 1.39287e-11
1073 37 0.001 -0.0213734 1.44435e-16 -0.0431372 -0.00183993 -3.84636e-11 3.20485e-05 0 1.38746e-11
1074 37 0.001 -0.0211779 6.01745e-17 -0.0441176 -0.0028947 4.46389e-12 -1.04713e-05 0 1.40834e-11
845 34 0.001 -0.0199986 -1.54181e-18 -0.0439997 0.00284987 1.87805e-14 0.000557761 0 1.41897e-11
846 34 0.001 -0.0199991 1.50652e-18 -0.0429998 0.00177986 -2.39987e-14 0.000392258 0 1.39288e-11
1313 41 0.001 -0.00137343 1.40369e-16 -0.0431372 -0.00183993 -3.83735e-11 3.20485e-05 0 1.38746e-11
1314 41 0.001 -0.00117787 6.00661e-17 -0.0441176 -0.0028947 4.42081e-12 -1.04713e-05 0 1.40834e-11
1085 38 0.001 1.37442e-06 9.09666e-19 -0.0439997 0.00284987 -3.24182e-13 0.000557761 0 1.41897e-11
1086 38 0.001 8.60148e-07 -1.07026e-18 -0.0429998 0.00177986 6.771e-13 0.000392258 0 1.39288e-11
1553 45 0.001 0.0186266 1.40128e-16 -0.0431372 -0.00183993 -3.83798e-11 3.20485e-05 0 1.38746e-11
1554 45 0.001 0.0188221 6.30863e-17 -0.0441176 -0.0028947 4.36833e-12 -1.04713e-05 0 1.40834e-11
1325 42 0.001 0.0200014 5.55389e-19 -0.0439997 0.00284987 -2.82108e-13 0.000557761 0 1.41897e-11
1326 42 0.001 0.0200009 -2.46225e-18 -0.0429998 0.00177986 3.53936e-13 0.000392258 0 1.39288e-11
1793 49 0.001 0.0386266 -3.24239e-18 -0.0431372 -0.0018208 5.39592e-14 3.58651e-05 0 1.38745e-11