ITEM: TIMESTEP
2
ITEM: NUMBER OF ATOMS
2279
ITEM: BOX BOUNDS ff ff ff
-1.1000000000000000e-01 1.1000000000000000e-01
-6.0000000000000001e-03 6.0000000000000001e-03
-5.5000000000000000e-02 5.5000000000000000e-02
ITEM: ATOMS id type radius x y z fx fy fz c_bendingE c_stretchingE
1 1 0.001 -0.1 0 -0.05 -0.000134282 -2.36379e-14 4.4414e-05 0 7.85321e-13
21 21 0.001 -0.1 -2.40195e-23 -0.049 -0.00173296 -2.72334e-16 0.00175617 0 8.00685e-13
219 23 0.001 -0.0990476 2.64814e-23 -0.05 0.001672 -1.00301e-18 -0.00180571 0 6.98582e-13
220 23 0.001 -0.0980952 -5.29618e-23 -0.05 0.000221604 1.90386e-18 -0.000106577 0 3.18761e-13
221 23 0.001 -0.0971429 2.64807e-23 -0.05 7.10514e-06 -6.76285e-18 3.59593e-05 0 3.25131e-15
222 23 0.001 -0.0961905 0 -0.05 -3.83552e-08 1.13856e-17 5.61779e-07 0 1.87659e-20
223 23 0.001 -0.0952381 0 -0.05 2.68001e-09 -5.6117e-18 -1.31448e-07 0 5.41101e-21
224 23 0.001 -0.0942857 0 -0.05 -3.00302e-09 0 -1.76787e-08 0 4.59592e-23
225 23 0.001 -0.0933333 0 -0.05 3.00302e-09 0 -1.76787e-08 0 4.59592e-23
226 23 0.001 -0.092381 0 -0.05 2.53346e-09 0 -1.76787e-08 0 7.51884e-24
227 23 0.001 -0.0914286 0 -0.05 -9.64733e-11 0 -1.76787e-08 0 8.92604e-24
228 23 0.001 -0.0904762 0 -0.05 2.43943e-08 0 -1.76787e-08 0 9.39953e-24
229 23 0.001 -0.0895238 0 -0.05 -2.73262e-08 0 -1.76787e-08 0 1.97064e-23
230 23 0.001 -0.0885714 0 -0.05 -4.79415e-12 0 -1.76787e-08 0 2.37895e-23
231 23 0.001 -0.087619 0 -0.05 3.51481e-09 0 -1.76787e-08 0 6.04389e-23
232 23 0.001 -0.0866667 0 -0.05 -3.51481e-09 0 -1.76787e-08 0 6.04389e-23
233 23 0.001 -0.0857143 0 -0.05 4.79415e-12 4.52782e-16 -1.95874e-08 0 2.37895e-23
234 23 0.001 -0.0847619 0 -0.05 3.03924e-09 -4.31e-16 -3.22103e-07 0 1.97064e-23
235 23 0.001 -0.0838095 -2.36839e-23 -0.05 -3.95724e-08 -1.43972e-15 1.6843e-06 0 9.58413e-20
236 23 0.001 -0.0828571 -1.78216e-19 -0.05 -8.55548e-06 7.26031e-15 8.86531e-05 0 4.79134e-15
237 23 0.001 -0.0819048 2.67764e-19 -0.05 -0.000342521 -8.82702e-15 -0.000277858 0 1.83128e-12
3 3 0.001 -0.08 -4.36456e-19 -0.05 -1.63416e-05 6.77919e-15 -0.000114708 0 3.39337e-12
120 22 0.001 -0.0799998 -4.49003e-27 -0.049 0.0147676 -6.30419e-16 0.000448626 0 4.06573e-13
238 23 0.001 -0.0809524 -7.861e-22 -0.0500001 -0.00383214 1.06941e-15 -0.0045027 0 3.83921e-12
359 25 0.001 -0.0801962 2.83182e-19 -0.0490196 -0.0130824 -2.94966e-15 -0.00216699 0 4.0402e-13
459 27 0.001 -0.0790476 2.64817e-23 -0.05 0.00311055 -7.30851e-16 -0.00294698 0 2.53206e-12
460 27 0.001 -0.0780952 -5.29617e-23 -0.05 0.000287133 3.66648e-16 -0.000173246 0 1.19953e-12
461 27 0.001 -0.0771429 2.64805e-23 -0.05 7.49191e-06 -6.63853e-18 5.85795e-05 0 3.56772e-15
462 27 0.001 -0.0761905 0 -0.05 -1.00016e-07 1.11388e-17 9.1935e-07 0 1.51681e-20
463 27 0.001 -0.0752381 0 -0.05 2.32171e-10 -5.48851e-18 -2.00473e-07 0 1.48109e-20
464 27 0.001 -0.0742857 0 -0.05 4.24938e-08 0 -1.76787e-08 0 1.1717e-23
465 27 0.001 -0.0733333 0 -0.05 -1.5798e-25 0 -1.76787e-08 0 1.46405e-29
466 27 0.001 -0.072381 0 -0.05 -4.24938e-08 0 -1.76787e-08 0 1.1717e-23
467 27 0.001 -0.0714286 0 -0.05 2.54175e-08 0 -1.76787e-08 0 1.97064e-23
468 27 0.001 -0.0704762 0 -0.05 -1.45698e-09 0 -1.76787e-08 0 9.39953e-24
469 27 0.001 -0.0695238 0 -0.05 9.64733e-11 0 -1.76787e-08 0 8.92604e-24
470 27 0.001 -0.0685714 0 -0.05 -2.53346e-09 0 -1.76787e-08 0 7.51884e-24
471 27 0.001 -0.067619 0 -0.05 -3.00302e-09 0 -1.76787e-08 0 4.59592e-23
472 27 0.001 -0.0666667 0 -0.05 3.00302e-09 0 -1.76787e-08 0 4.59592e-23
473 27 0.001 -0.0657143 0 -0.05 2.53346e-09 -8.49432e-22 -1.76787e-08 0 7.51884e-24
474 27 0.001 -0.0647619 0 -0.05 -7.04538e-11 3.7269e-16 -3.2721e-07 0 9.45461e-24
475 27 0.001 -0.0638095 7.93413e-20 -0.05 -4.00324e-08 6.8874e-14 1.68895e-06 0 9.73599e-20
476 27 0.001 -0.0628571 1.9345e-20 -0.05 -8.5547e-06 -5.94266e-16 8.86521e-05 0 4.79116e-15
477 27 0.001 -0.0619048 -1.87975e-19 -0.05 -0.000342521 -1.37792e-13 -0.000277861 0 1.83128e-12
478 27 0.001 -0.0609524 5.50875e-22 -0.0500001 -0.00383207 -6.16305e-16 -0.00450269 0 3.84072e-12
5 5 0.001 -0.06 2.75048e-19 -0.05 -1.27492e-05 2.40357e-11 -0.000113977 0 3.39361e-12
360 26 0.001 -0.0599998 2.73166e-19 -0.049 0.0147676 -3.06509e-14 0.000448639 0 4.06542e-13
599 29 0.001 -0.0601962 3.31364e-25 -0.0490196 -0.0130681 2.03096e-13 -0.00216414 0 4.0402e-13
699 31 0.001 -0.0590476 6.44444e-15 -0.05 0.00311064 -2.46485e-10 -0.00294697 0 2.53051e-12
700 31 0.001 -0.0580952 -1.28888e-14 -0.05 0.000287015 6.78985e-10 -0.00017325 0 1.19923e-12
701 31 0.001 -0.0571429 6.44438e-15 -0.05 7.49459e-06 -7.29237e-10 5.858e-05 0 3.58431e-15
702 31 0.001 -0.0561905 0 -0.05 2.46375e-08 2.87569e-10 9.1935e-07 0 2.34081e-20
703 31 0.001 -0.0552381 0 -0.05 -7.19223e-09 -1.48056e-11 -2.00473e-07 0 5.87396e-22
704 31 0.001 -0.0542857 0 -0.05 3.46045e-09 0 -1.76787e-08 0 2.24473e-22
705 31 0.001 -0.0533333 0 -0.05 -2.63841e-08 0 -1.76787e-08 0 2.21491e-22
706 31 0.001 -0.052381 0 -0.05 3.04977e-08 0 -1.76787e-08 0 7.30988e-22
707 31 0.001 -0.0514286 0 -0.05 2.11915e-08 0 -1.76787e-08 0 1.10669e-21
708 31 0.001 -0.0504762 0 -0.05 -2.37593e-08 0 -1.76787e-08 0 9.58662e-22
709 31 0.001 -0.0495238 0 -0.05 -7.56493e-09 0 -1.76787e-08 0 6.86195e-22
710 31 0.001 -0.0485714 0 -0.05 6.0585e-09 0 -1.76787e-08 0 3.26516e-22
711 31 0.001 -0.047619 0 -0.05 2.29373e-08 0 -1.76787e-08 0 9.03692e-23
712 31 0.001 -0.0466667 0 -0.05 2.6534e-08 0 -1.76787e-08 0 4.43615e-22
713 31 0.001 -0.0457143 0 -0.05 -4.50951e-08 1.2718e-07 -4.93262e-08 0 1.12237e-21
714 31 0.001 -0.0447619 0 -0.05 -1.08876e-08 -2.54361e-07 -2.63861e-07 0 1.44891e-21
715 31 0.001 -0.0438095 -2.90068e-23 -0.05 -2.93961e-08 1.2718e-07 1.65568e-06 0 8.38228e-20
716 31 0.001 -0.0428571 5.8015e-23 -0.05 -8.56194e-06 -3.46106e-13 8.86555e-05 0 4.79295e-15
717 31 0.001 -0.0419048 -2.9009e-23 -0.05 -0.000342518 3.78836e-13 -0.000277863 0 1.83127e-12
718 31 0.001 -0.0409524 3.55328e-30 -0.0500001 -0.00383207 -4.02439e-15 -0.00450269 0 3.84071e-12
7 7 0.001 -0.04 -3.55359e-20 -0.05 -1.27492e-05 2.39378e-11 -0.000113977 0 3.39361e-12
600 30 0.001 -0.0399998 2.73166e-19 -0.049 0.0147676 -2.54958e-13 0.000448639 0 4.06542e-13
839 33 0.001 -0.0401962 3.31364e-25 -0.0490196 -0.0130681 -2.44074e-13 -0.00216414 0 4.0402e-13
939 35 0.001 -0.0390476 6.44444e-15 -0.05 0.00311064 -2.46485e-10 -0.00294697 0 2.53051e-12
940 35 0.001 -0.0380952 -1.28888e-14 -0.05 0.000287015 6.78982e-10 -0.00017325 0 1.19923e-12
941 35 0.001 -0.0371429 6.44438e-15 -0.05 7.49459e-06 -7.29235e-10 5.858e-05 0 3.58431e-15
942 35 0.001 -0.0361905 0 -0.05 2.46375e-08 2.87569e-10 9.1935e-07 0 2.34081e-20
943 35 0.001 -0.0352381 0 -0.05 -5.84253e-09 -1.48056e-11 -2.00473e-07 0 5.87396e-22
944 35 0.001 -0.0342857 0 -0.05 3.46034e-09 0 -1.76787e-08 0 2.24461e-22
945 35 0.001 -0.0333333 0 -0.05 -4.80395e-09 0 -1.76787e-08 0 2.23171e-22
946 35 0.001 -0.032381 0 -0.05 7.7454e-09 0 -1.76787e-08 0 7.94828e-22
947 35 0.001 -0.0314286 0 -0.05 -3.24192e-08 0 -1.76787e-08 0 1.62949e-21
948 35 0.001 -0.0304762 0 -0.05 3.45067e-08 0 -1.76787e-08 0 2.2885e-21
949 35 0.001 -0.0295238 0 -0.05 -1.4511e-08 0 -1.76787e-08 0 2.63691e-21
950 35 0.001 -0.0285714 0 -0.05 -1.74676e-08 0 -1.76787e-08 0 2.98029e-21
951 35 0.001 -0.027619 0 -0.05 1.59472e-08 0 -1.76787e-08 0 3.41954e-21
952 35 0.001 -0.0266667 0 -0.05 1.38629e-08 0 -1.76787e-08 0 2.35532e-21
953 35 0.001 -0.0257143 0 -0.05 -1.97442e-09 1.8507e-13 -1.76844e-08 0 6.90633e-22
954 35 0.001 -0.0247619 0 -0.05 -1.07997e-08 -8.38218e-11 -3.25856e-07 0 1.63054e-21
955 35 0.001 -0.0238095 -9.41181e-15 -0.05 -1.98307e-08 8.19568e-10 1.68474e-06 0 7.09124e-20
956 35 0.001 -0.0228571 1.88238e-14 -0.05 -8.57409e-06 -1.45776e-09 8.86561e-05 0 4.79624e-15
957 35 0.001 -0.0219048 -9.41208e-15 -0.05 -0.00034251 8.02176e-10 -0.000277859 0 1.83124e-12
9 9 0.001 -0.02 3.10585e-19 -0.05 -1.63354e-05 1.0993e-11 -0.000114708 0 3.39338e-12
840 34 0.001 -0.0199998 -3.36729e-28 -0.049 0.0147676 3.97547e-16 0.000448626 0 4.06573e-13
958 35 0.001 -0.0209524 5.14487e-22 -0.0500001 -0.00383214 -9.13412e-11 -0.0045027 0 3.83914e-12
1079 37 0.001 -0.0201962 1.93904e-24 -0.0490196 -0.0130813 5.73447e-16 -0.00216678 0 4.0402e-13
1179 39 0.001 -0.0190476 2.64817e-23 -0.05 0.00311055 5.18075e-16 -0.00294698 0 2.53215e-12
1180 39 0.001 -0.0180952 -5.29617e-23 -0.05 0.000287146 -2.57651e-16 -0.000173245 0 1.19958e-12
1181 39 0.001 -0.0171429 2.64805e-23 -0.05 7.47767e-06 -1.36665e-09 5.85716e-05 0 3.56345e-15
1182 39 0.001 -0.0161905 0 -0.05 -8.15928e-08 2.7333e-09 9.31359e-07 0 1.41636e-20
1183 39 0.001 -0.0152381 0 -0.05 6.43382e-08 -1.36665e-09 -2.0583e-07 0 1.14411e-20
1184 39 0.001 -0.0142857 0 -0.05 -3.23366e-08 0 -1.76787e-08 0 3.97554e-23
1185 39 0.001 -0.0133333 0 -0.05 -1.77796e-08 0 -1.76787e-08 0 5.08537e-23
1186 39 0.001 -0.012381 0 -0.05 -2.5733e-09 0 -1.76787e-08 0 2.88883e-23
1187 39 0.001 -0.0114286 0 -0.05 -2.05345e-08 0 -1.76787e-08 0 2.31819e-23
1188 39 0.001 -0.0104762 0 -0.05 -2.07059e-08 0 -1.76787e-08 0 1.64969e-22
1189 39 0.001 -0.00952381 0 -0.05 1.39835e-08 0 -1.76787e-08 0 4.22596e-22
1190 39 0.001 -0.00857143 0 -0.05 2.87967e-08 0 -1.76787e-08 0 2.68462e-22
1191 39 0.001 -0.00761905 0 -0.05 -6.73705e-10 0 -1.76787e-08 0 9.26546e-24
1192 39 0.001 -0.00666667 0 -0.05 -2.18118e-11 0 -1.76787e-08 0 6.08059e-24
1193 39 0.001 -0.00571429 0 -0.05 -3.07551e-10 1.13945e-24 -1.76787e-08 0 5.06093e-25
1194 39 0.001 -0.0047619 0 -0.05 -2.91161e-10 -2.91719e-19 -3.25867e-07 0 1.37681e-23
1195 39 0.001 -0.00380952 -2.73478e-23 -0.05 -3.61135e-08 1.37851e-18 1.68493e-06 0 8.69241e-20
1196 39 0.001 -0.00285714 5.46972e-23 -0.05 -8.56359e-06 -2.08491e-18 8.86557e-05 0 4.7947e-15
1197 39 0.001 -0.00190476 -2.73501e-23 -0.05 -0.000342512 1.06322e-16 -0.000277859 0 1.83124e-12
1198 39 0.001 -0.000952426 -1.08258e-29 -0.0500001 -0.00383214 -2.11333e-16 -0.0045027 0 3.83916e-12
1319 41 0.001 -0.000196221 2.63443e-19 -0.0490196 -0.0130813 -1.73569e-14 -0.00216678 0 4.0402e-13
11 11 0.001 -7.51397e-11 -1.2587e-19 -0.05 -1.63399e-05 2.42338e-15 -0.000114708 0 3.39335e-12
1080 38 0.001 1.61772e-07 -3.36729e-28 -0.049 0.0147676 7.74525e-15 0.000448626 0 4.06573e-13
1419 43 0.001 0.000952417 2.64816e-23 -0.05 0.00311057 -2.11745e-16 -0.00294698 0 2.53177e-12
1420 43 0.001 0.00190476 -5.29616e-23 -0.05 0.000287022 1.07093e-16 -0.000173245 0 1.19926e-12
1421 43 0.001 0.00285714 2.64804e-23 -0.05 7.49174e-06 -6.9247e-18 5.85706e-05 0 3.58288e-15
1422 43 0.001 0.00380952 0 -0.05 1.84289e-08 1.17098e-17 9.32711e-07 0 2.10579e-20
1423 43 0.001 0.0047619 0 -0.05 1.50611e-15 -5.77381e-18 -2.06384e-07 0 9.47919e-35
1424 43 0.001 0.00571429 0 -0.05 -1.10925e-17 0 -1.76787e-08 0 9.47919e-35
1425 43 0.001 0.00666667 0 -0.05 1.04067e-09 0 -1.76787e-08 0 6.71504e-23
1426 43 0.001 0.00761905 0 -0.05 -6.28522e-09 0 -1.76787e-08 0 3.12998e-22
1427 43 0.001 0.00857143 0 -0.05 5.28756e-09 0 -1.76787e-08 0 2.52783e-22
1428 43 0.001 0.00952381 0 -0.05 3.49965e-08 0 -1.76787e-08 0 2.83403e-22
1429 43 0.001 0.0104762 0 -0.05 -3.92752e-08 0 -1.76787e-08 0 5.26027e-22
1430 43 0.001 0.0114286 0 -0.05 5.93451e-10 0 -1.76787e-08 0 2.68522e-22
1431 43 0.001 0.012381 0 -0.05 8.31197e-09 0 -1.76787e-08 0 1.91631e-22
1432 43 0.001 0.0133333 0 -0.05 -5.23772e-09 0 -1.76787e-08 0 1.92666e-22
1433 43 0.001 0.0142857 0 -0.05 8.06928e-10 1.46717e-08 -3.83805e-08 0 3.10951e-23
1434 43 0.001 0.0152381 0 -0.05 -4.09352e-09 -2.94254e-08 -2.84517e-07 0 1.46749e-22
1435 43 0.001 0.0161905 -5.76359e-15 -0.05 -3.17716e-08 1.52353e-08 1.66538e-06 0 8.40763e-20
1436 43 0.001 0.0171429 1.15272e-14 -0.05 -8.56515e-06 -9.23488e-10 8.86534e-05 0 4.79524e-15
1437 43 0.001 0.0180952 -5.76359e-15 -0.05 -0.000342509 4.91165e-10 -0.000277858 0 1.83121e-12
1438 43 0.001 0.0190476 -1.08258e-29 -0.0500001 -0.00383215 -5.59348e-11 -0.0045027 0 3.83907e-12
13 13 0.001 0.02 4.78577e-26 -0.05 -1.63312e-05 6.73297e-12 -0.000114708 0 3.39336e-12
1320 42 0.001 0.0200002 -3.36729e-28 -0.049 0.0147676 1.44642e-23 0.000448626 0 4.06573e-13
1559 45 0.001 0.0198038 1.93904e-24 -0.0490196 -0.0130813 -8.1115e-15 -0.00216678 0 4.04019e-13
1659 47 0.001 0.0209524 2.64817e-23 -0.05 0.00311053 -1.00262e-18 -0.00294698 0 2.53244e-12
1660 47 0.001 0.0219048 -5.29617e-23 -0.05 0.000287304 1.90296e-18 -0.000173246 0 1.19979e-12
1661 47 0.001 0.0228571 2.64805e-23 -0.05 7.09586e-06 -6.73539e-18 5.85771e-05 0 3.50424e-15
1662 47 0.001 0.0238095 0 -0.05 1.92533e-07 1.13323e-17 9.23542e-07 0 4.92415e-19
1663 47 0.001 0.0247619 0 -0.05 -2.58621e-08 -5.58522e-18 -2.02442e-07 0 2.23021e-20
1664 47 0.001 0.0257143 0 -0.05 -8.62414e-09 0 -1.76787e-08 0 2.05606e-21
1665 47 0.001 0.0266667 0 -0.05 1.62973e-08 0 -1.76787e-08 0 2.17899e-21
1666 47 0.001 0.027619 0 -0.05 0 0 -1.76787e-08 0 8.71595e-22
1667 47 0.001 0.0285714 0 -0.05 -1.30129e-08 0 -1.76787e-08 0 2.16194e-21
1668 47 0.001 0.0295238 0 -0.05 1.28518e-08 0 -1.76787e-08 0 2.15141e-21
1669 47 0.001 0.0304762 0 -0.05 3.0213e-08 0 -1.76787e-08 0 5.07766e-22
1670 47 0.001 0.0314286 0 -0.05 -3.50857e-08 0 -1.76787e-08 0 2.63176e-22
1671 47 0.001 0.032381 0 -0.05 1.9753e-09 0 -1.76787e-08 0 2.42984e-22
1672 47 0.001 0.0333333 0 -0.05 -2.40758e-09 0 -1.76787e-08 0 2.45534e-22
1673 47 0.001 0.0342857 0 -0.05 6.26098e-09 2.63332e-16 -3.87072e-08 0 7.45789e-22
1674 47 0.001 0.0352381 0 -0.05 -1.04827e-08 -5.26975e-16 -2.851e-07 0 1.28754e-21
1675 47 0.001 0.0361905 -2.90068e-23 -0.05 -2.93961e-08 7.12536e-14 1.6663e-06 0 8.38228e-20
1676 47 0.001 0.0371429 5.8015e-23 -0.05 -8.56194e-06 -3.46078e-13 8.86555e-05 0 4.79295e-15
1677 47 0.001 0.0380952 -2.9009e-23 -0.05 -0.000342518 3.78836e-13 -0.000277863 0 1.83127e-12
1678 47 0.001 0.0390476 3.55328e-30 -0.0500001 -0.00383207 -4.02439e-15 -0.00450269 0 3.84071e-12
15 15 0.001 0.04 -3.55359e-20 -0.05 -1.27492e-05 2.39378e-11 -0.000113977 0 3.39361e-12
1560 46 0.001 0.0400002 2.73166e-19 -0.049 0.0147676 -2.54958e-13 0.000448639 0 4.06542e-13
1799 49 0.001 0.0398038 3.31364e-25 -0.0490196 -0.0130681 -2.44074e-13 -0.00216414 0 4.0402e-13
1899 51 0.001 0.0409524 6.44444e-15 -0.05 0.00311064 -2.46485e-10 -0.00294697 0 2.53051e-12
1900 51 0.001 0.0419048 -1.28888e-14 -0.05 0.000287015 6.78982e-10 -0.00017325 0 1.19923e-12
1901 51 0.001 0.0428571 6.44438e-15 -0.05 7.49459e-06 -7.29235e-10 5.858e-05 0 3.58431e-15
1902 51 0.001 0.0438095 0 -0.05 2.46375e-08 2.87569e-10 9.1935e-07 0 2.34081e-20
1903 51 0.001 0.0447619 0 -0.05 -7.19223e-09 -1.48056e-11 -2.00473e-07 0 5.87396e-22
1904 51 0.001 0.0457143 0 -0.05 3.46045e-09 0 -1.76787e-08 0 2.24473e-22
1905 51 0.001 0.0466667 0 -0.05 -2.63841e-08 0 -1.76787e-08 0 2.21491e-22
1906 51 0.001 0.047619 0 -0.05 3.04977e-08 0 -1.76787e-08 0 7.30988e-22
1907 51 0.001 0.0485714 0 -0.05 2.11915e-08 0 -1.76787e-08 0 1.10669e-21
1908 51 0.001 0.0495238 0 -0.05 -2.37593e-08 0 -1.76787e-08 0 9.58662e-22
1909 51 0.001 0.0504762 0 -0.05 -7.56493e-09 0 -1.76787e-08 0 6.86195e-22
1910 51 0.001 0.0514286 0 -0.05 6.0585e-09 0 -1.76787e-08 0 3.26516e-22
1911 51 0.001 0.052381 0 -0.05 2.10285e-08 0 -1.76787e-08 0 9.03692e-23
1912 51 0.001 0.0533333 0 -0.05 -5.11363e-09 0 -1.76787e-08 0 4.43615e-22
1913 51 0.001 0.0542857 0 -0.05 -1.15479e-08 -7.79839e-22 -1.76787e-08 0 1.11847e-21
1914 51 0.001 0.0552381 0 -0.05 -1.08235e-08 4.39142e-16 -3.25867e-07 0 1.44112e-21
1915 51 0.001 0.0561905 8.56985e-20 -0.05 -2.93958e-08 -2.4273e-15 1.68529e-06 0 8.37755e-20
1916 51 0.001 0.0571429 6.61203e-21 -0.05 -8.56197e-06 -7.14212e-16 8.86548e-05 0 4.79292e-15
1917 51 0.001 0.0580952 -1.81581e-19 -0.05 -0.000342518 5.07213e-15 -0.000277859 0 1.83127e-12
17 17 0.001 0.06 3.10585e-19 -0.05 -1.6343e-05 4.24086e-14 -0.000114708 0 3.39336e-12
1800 50 0.001 0.0600002 -5.66338e-29 -0.049 0.0147676 8.31834e-15 0.000448626 0 4.06573e-13
1918 51 0.001 0.0590476 5.32029e-22 -0.0500001 -0.00383214 -4.88188e-16 -0.0045027 0 3.83922e-12
2039 53 0.001 0.0598038 3.27857e-25 -0.0490196 -0.0130813 4.16138e-16 -0.00216678 0 4.0402e-13
2139 55 0.001 0.0609524 2.64817e-23 -0.05 0.00311058 3.68707e-16 -0.00294698 0 2.53174e-12
2140 55 0.001 0.0619048 -5.29617e-23 -0.05 0.00028702 -9.33843e-14 -0.000173246 0 1.19925e-12
2141 55 0.001 0.0628571 2.64805e-23 -0.05 7.49242e-06 -2.30616e-16 5.85762e-05 0 3.58317e-15
2142 55 0.001 0.0638095 0 -0.05 1.09068e-08 4.67799e-14 9.24041e-07 0 2.06148e-20
2143 55 0.001 0.0647619 0 -0.05 4.93271e-09 -5.58523e-18 -2.02493e-07 0 4.86054e-24
2144 55 0.001 0.0657143 0 -0.05 -2.84828e-09 0 -1.76787e-08 0 4.32292e-23
2145 55 0.001 0.0666667 0 -0.05 2.97706e-09 0 -1.76787e-08 0 4.32291e-23
2146 55 0.001 0.067619 0 -0.05 2.53346e-09 0 -1.76787e-08 0 7.51884e-24
2147 55 0.001 0.0685714 0 -0.05 -9.64733e-11 0 -1.76787e-08 0 8.92604e-24
2148 55 0.001 0.0695238 0 -0.05 2.43943e-08 0 -1.76787e-08 0 9.39953e-24
2149 55 0.001 0.0704762 0 -0.05 -2.73262e-08 0 -1.76787e-08 0 1.97064e-23
2150 55 0.001 0.0714286 0 -0.05 -4.79415e-12 0 -1.76787e-08 0 2.37895e-23
2151 55 0.001 0.072381 0 -0.05 3.51481e-09 0 -1.76787e-08 0 6.04389e-23
2152 55 0.001 0.0733333 0 -0.05 -3.51481e-09 0 -1.76787e-08 0 6.04389e-23
2153 55 0.001 0.0742857 0 -0.05 4.79415e-12 3.89051e-16 -2.3405e-08 0 2.37895e-23
2154 55 0.001 0.0752381 0 -0.05 3.03924e-09 -7.35036e-16 2.35128e-08 0 1.97064e-23
2155 55 0.001 0.0761905 1.4442e-22 -0.05 -3.957e-08 2.94124e-16 1.55797e-07 0 9.58305e-20
2156 55 0.001 0.0771429 -1.02741e-21 -0.05 -1.02509e-05 3.25008e-16 -6.5319e-07 0 6.81757e-15
2157 55 0.001 0.0780952 1.46226e-21 -0.05 -0.000730313 -2.85336e-15 -1.37575e-05 0 2.0097e-11
2158 55 0.001 0.0790475 -1.46981e-21 -0.05 -0.00228841 4.90095e-15 -0.00552191 0 4.29254e-11
2279 57 0.001 0.0798035 1.04385e-18 -0.0490196 -0.00875932 -1.79397e-14 -0.00430484 0 1.04991e-11
19 19 0.001 0.08 2.31724e-18 -0.05 -0.000501573 1.85318e-14 0.000238208 0 2.99121e-11
2040 54 0.001 0.0800006 1.03695e-19 -0.049 0.0132442 7.90216e-13 -0.00176953 0 3.31511e-17
22 21 0.001 -0.1 4.80382e-23 -0.048 -8.79154e-05 4.76684e-14 7.59005e-05 0 3.98445e-13
121 22 0.001 -0.0799998 -6.84421e-21 -0.048 0.0144294 6.0096e-16 0.00218026 0 3.83743e-13
358 25 0.001 -0.0803923 -4.94438e-19 -0.0480392 -0.0144754 -3.14281e-14 -0.000683894 0 3.8232e-13
598 29 0.001 -0.0603923 -6.58214e-25 -0.0480392 -0.0145108 -2.8744e-13 -0.000690987 0 3.8232e-13
361 26 0.001 -0.0599998 -5.15875e-19 -0.048 0.0144294 4.64525e-14 0.00218026 0 3.83743e-13
601 30 0.001 -0.0399998 -5.15875e-19 -0.048 0.0144294 4.67721e-13 0.00218026 0 3.83743e-13
838 33 0.001 -0.0403923 -6.58214e-25 -0.0480392 -0.0145108 4.28149e-13 -0.000690987 0 3.8232e-13
841 34 0.001 -0.0199998 2.54399e-28 -0.048 0.0144294 -1.9877e-16 0.00218026 0 3.83743e-13
1078 37 0.001 -0.0203923 -3.86482e-24 -0.0480392 -0.014473 -2.07948e-16 -0.000683426 0 3.8232e-13
1318 41 0.001 -0.000392314 -3.83038e-19 -0.0480392 -0.014473 6.55625e-14 -0.000683426 0 3.8232e-13
1081 38 0.001 1.55268e-07 2.54399e-28 -0.048 0.0144294 -3.02963e-14 0.00218026 0 3.83743e-13
1321 42 0.001 0.0200002 2.54399e-28 -0.048 0.0144294 -3.50419e-22 0.00218026 0 3.83743e-13
1558 45 0.001 0.0196077 -3.86482e-24 -0.0480392 -0.014473 5.14681e-14 -0.000683426 0 3.8232e-13
1561 46 0.001 0.0400002 -5.15875e-19 -0.048 0.0144294 4.67721e-13 0.00218026 0 3.83743e-13
1798 49 0.001 0.0396077 -6.58214e-25 -0.0480392 -0.0145108 4.28149e-13 -0.000690987 0 3.8232e-13
1801 50 0.001 0.0600002 4.27869e-29 -0.048 0.0144294 -3.05566e-14 0.00218026 0 3.83743e-13
2038 53 0.001 0.0596077 -6.50617e-25 -0.0480392 -0.014473 -2.08046e-16 -0.000683426 0 3.8232e-13
2278 57 0.001 0.0796077 -1.21474e-18 -0.0480392 -0.0155881 3.67138e-14 -0.000601221 0 3.42236e-12
2041 54 0.001 0.0800005 -7.65078e-20 -0.048 0.0129356 -1.65816e-12 0.00261851 0 1.32029e-20
23 21 0.001 -0.1 -2.40189e-23 -0.047 2.97758e-05 3.68439e-17 3.54928e-07 0 9.03899e-18
24 21 0.001 -0.1 0 -0.046 4.06409e-07 -2.37997e-14 -1.76786e-08 0 3.61112e-33
122 22 0.001 -0.0799999 2.06812e-20 -0.047 0.0130699 -6.72541e-16 0.00224447 0 5.46835e-15
123 22 0.001 -0.0799999 -1.39844e-20 -0.046 0.011198 4.41515e-16 0.00202731 0 1.93186e-14
356 25 0.001 -0.0807844 -3.59624e-20 -0.0460784 -0.0113794 -4.74166e-14 -0.000212631 0 1.8988e-14
357 25 0.001 -0.0805884 2.83181e-19 -0.0470588 -0.0132877 7.2493e-14 -0.000376114 0 5.32261e-15
596 29 0.001 -0.0607844 -1.14276e-24 -0.0460784 -0.0113769 6.37223e-14 -0.000212123 0 1.8988e-14
597 29 0.001 -0.0605884 6.42897e-25 -0.0470588 -0.0132739 4.93696e-14 -0.000373359 0 5.32261e-15
362 26 0.001 -0.0599999 2.52862e-19 -0.047 0.0130699 -5.48576e-14 0.00224447 0 5.46835e-15
363 26 0.001 -0.0599999 7.47129e-30 -0.046 0.011198 3.2313e-14 0.00202731 0 1.93186e-14
836 33 0.001 -0.0407844 -1.14276e-24 -0.0460784 -0.0113769 6.37223e-14 -0.000212123 0 1.8988e-14
602 30 0.001 -0.0399999 2.52862e-19 -0.047 0.0130699 -2.60936e-13 0.00224447 0 5.46835e-15
603 30 0.001 -0.0399999 7.47129e-30 -0.046 0.011198 3.2313e-14 0.00202731 0 1.93186e-14
837 33 0.001 -0.0405884 6.42897e-25 -0.0470588 -0.0132739 -2.78635e-13 -0.000373359 0 5.32261e-15
842 34 0.001 -0.0199999 -9.61308e-29 -0.047 0.0130699 4.30824e-22 0.00224447 0 5.46835e-15
843 34 0.001 -0.0199999 4.91312e-29 -0.046 0.011198 -3.03275e-22 0.00202731 0 1.93186e-14
1076 37 0.001 -0.0207844 -3.91455e-24 -0.0460784 -0.0113769 9.28648e-16 -0.00021214 0 1.8988e-14
1077 37 0.001 -0.0205884 3.85647e-24 -0.0470588 -0.0132945 -1.23421e-19 -0.000377477 0 5.32261e-15
1316 41 0.001 -0.000784437 5.01848e-20 -0.0460784 -0.0113769 5.1131e-14 -0.00021214 0 1.8988e-14
1317 41 0.001 -0.000588379 1.16713e-19 -0.0470588 -0.0132945 -9.28255e-14 -0.000377477 0 5.32261e-15
1082 38 0.001 1.4148e-07 -2.88357e-21 -0.047 0.0130699 4.50341e-14 0.00224447 0 5.46835e-15
1083 38 0.001 1.21222e-07 1.14699e-20 -0.046 0.011198 -3.07975e-14 0.00202731 0 1.93186e-14
1556 45 0.001 0.0192156 -3.91455e-24 -0.0460784 -0.0113769 5.2397e-14 -0.00021214 0 1.8988e-14
1557 45 0.001 0.0194116 3.85647e-24 -0.0470588 -0.0132945 -8.65206e-14 -0.000377477 0 5.32261e-15
1322 42 0.001 0.0200001 -9.61308e-29 -0.047 0.0130699 4.30824e-22 0.00224447 0 5.46835e-15
1323 42 0.001 0.0200001 4.91312e-29 -0.046 0.011198 -3.03275e-22 0.00202731 0 1.93186e-14
1562 46 0.001 0.0400001 2.52862e-19 -0.047 0.0130699 -2.60936e-13 0.00224447 0 5.46835e-15
1563 46 0.001 0.0400001 7.47129e-30 -0.046 0.011198 3.2313e-14 0.00202731 0 1.93186e-14
1796 49 0.001 0.0392156 -1.14276e-24 -0.0460784 -0.0113769 6.37223e-14 -0.000212123 0 1.8988e-14
1797 49 0.001 0.0394116 6.42897e-25 -0.0470588 -0.0132739 -2.78635e-13 -0.000373359 0 5.32261e-15
1802 50 0.001 0.0600001 -1.15039e-29 -0.047 0.0130699 4.48741e-14 0.00224447 0 5.46835e-15
1803 50 0.001 0.0600001 7.47129e-30 -0.046 0.011198 -3.03581e-14 0.00202731 0 1.93186e-14
2036 53 0.001 0.0592156 -1.14276e-24 -0.0460784 -0.0113771 3.13973e-20 -0.000212163 0 1.8988e-14
2037 53 0.001 0.0594116 6.39001e-25 -0.0470588 -0.0132945 -2.63074e-20 -0.000377477 0 5.32261e-15
2276 57 0.001 0.0792156 3.09118e-19 -0.0460784 -0.0113694 -5.33775e-15 -0.000211545 0 1.89923e-14
2277 57 0.001 0.0794116 2.98255e-19 -0.0470588 -0.0129369 -1.46787e-14 -0.000304948 0 5.34937e-15
2042 54 0.001 0.0800005 -5.4377e-20 -0.047 0.0109181 7.89051e-13 0.00261795 0 6.80752e-21
2043 54 0.001 0.0800004 -7.65038e-20 -0.046 0.00950473 4.19139e-14 0.00236131 0 1.76398e-20
25 21 0.001 -0.1 0 -0.045 -7.80757e-08 4.79149e-18 -1.76787e-08 0 3.61112e-32
124 22 0.001 -0.0799999 -6.69784e-21 -0.045 0.008904 2.3295e-16 0.00167895 0 3.23688e-14
355 25 0.001 -0.0809805 9.83344e-25 -0.045098 -0.00906105 7.54106e-15 -0.000101916 0 3.20334e-14
595 29 0.001 -0.0609805 1.30964e-24 -0.045098 -0.00906002 -8.08141e-15 -0.000101709 0 3.20334e-14
364 26 0.001 -0.0599999 -1.75742e-29 -0.045 0.008904 -8.24466e-15 0.00167895 0 3.23688e-14
835 33 0.001 -0.0409805 1.30964e-24 -0.045098 -0.00906002 -8.08141e-15 -0.000101709 0 3.20334e-14
604 30 0.001 -0.0399999 -1.75742e-29 -0.045 0.008904 -8.24466e-15 0.00167895 0 3.23688e-14
844 34 0.001 -0.0199999 -1.2203e-29 -0.045 0.008904 2.16864e-22 0.00167895 0 3.23688e-14
1075 37 0.001 -0.0209805 1.93146e-24 -0.045098 -0.00905994 4.98417e-15 -0.000101693 0 3.20334e-14
1315 41 0.001 -0.00098049 -1.02278e-20 -0.045098 -0.00905994 -7.913e-15 -0.000101693 0 3.20334e-14
1084 38 0.001 9.63913e-08 -1.71924e-20 -0.045 0.008904 8.5472e-15 0.00167895 0 3.23688e-14
1555 45 0.001 0.0190195 1.93146e-24 -0.045098 -0.00905994 -3.22384e-15 -0.000101693 0 3.20334e-14
1324 42 0.001 0.0200001 -1.2203e-29 -0.045 0.008904 2.16864e-22 0.00167895 0 3.23688e-14
1795 49 0.001 0.0390195 1.30964e-24 -0.045098 -0.00906002 -8.08141e-15 -0.000101709 0 3.20334e-14
1564 46 0.001 0.0400001 -1.75742e-29 -0.045 0.008904 -8.24466e-15 0.00167895 0 3.23688e-14
1804 50 0.001 0.0600001 -1.75742e-29 -0.045 0.008904 7.92099e-15 0.00167895 0 3.23688e-14
2035 53 0.001 0.0590195 1.30964e-24 -0.045098 -0.00905998 -3.26878e-20 -0.000101702 0 3.20334e-14
2275 57 0.001 0.0790195 9.83344e-25 -0.045098 -0.00905783 1.29222e-15 -0.00010233 0 3.2033e-14
2044 54 0.001 0.0800003 1.03693e-19 -0.045 0.00756103 -2.59546e-15 0.00195337 0 2.91202e-20
26 21 0.001 -0.1 0 -0.044 0 0 -1.76786e-08 0 3.61112e-32
27 21 0.001 -0.1 0 -0.043 0 0 -1.76787e-08 0 1.44445e-33
353 25 0.001 -0.0813726 -1.19635e-26 -0.0431373 -0.00412229 2.16017e-20 5.88906e-05 0 3.62339e-14
125 22 0.001 -0.0799999 1.86587e-20 -0.044 0.00643328 -6.57062e-16 0.00127503 0 3.75155e-14
126 22 0.001 -0.08 -1.7216e-20 -0.043 0.00402928 5.02204e-16 0.00086489 0 3.63853e-14
354 25 0.001 -0.0811765 -4.80684e-25 -0.0441176 -0.0065591 4.8344e-17 -1.15994e-05 0 3.72303e-14
593 29 0.001 -0.0613726 -1.78682e-26 -0.0431373 -0.00412229 -6.41795e-21 5.88918e-05 0 3.62339e-14
594 29 0.001 -0.0611765 -4.72473e-25 -0.0441176 -0.0065591 1.84178e-20 -1.15993e-05 0 3.72303e-14
365 26 0.001 -0.0599999 3.7758e-29 -0.044 0.00643328 -1.29018e-22 0.00127503 0 3.75155e-14
366 26 0.001 -0.06 -2.25254e-29 -0.043 0.00402928 3.72742e-22 0.00086489 0 3.63853e-14
833 33 0.001 -0.0413726 -1.78682e-26 -0.0431373 -0.00412229 -6.41795e-21 5.88918e-05 0 3.62339e-14
834 33 0.001 -0.0411765 -4.72473e-25 -0.0441176 -0.0065591 1.84178e-20 -1.15993e-05 0 3.72303e-14
605 30 0.001 -0.0399999 3.7758e-29 -0.044 0.00643328 -1.29018e-22 0.00127503 0 3.75155e-14
606 30 0.001 -0.04 -2.25254e-29 -0.043 0.00402928 3.72742e-22 0.00086489 0 3.63853e-14
1073 37 0.001 -0.0213726 3.707e-25 -0.0431373 -0.00412413 8.69845e-15 5.85223e-05 0 3.62339e-14
1074 37 0.001 -0.0211765 5.87069e-26 -0.0441176 -0.00655819 -1.36827e-14 -1.14173e-05 0 3.72303e-14
845 34 0.001 -0.0199999 2.90086e-29 -0.044 0.00643328 -2.24282e-22 0.00127503 0 3.75155e-14
846 34 0.001 -0.02 -2.54153e-29 -0.043 0.00402928 3.71633e-22 0.00086489 0 3.63853e-14
1313 41 0.001 -0.00137259 1.18395e-20 -0.0431373 -0.00412413 -4.30487e-16 5.85223e-05 0 3.62339e-14
1314 41 0.001 -0.00117654 -1.18146e-20 -0.0441176 -0.00655819 3.26691e-16 -1.14174e-05 0 3.72303e-14
1085 38 0.001 6.96365e-08 1.15094e-20 -0.044 0.00643328 -4.87874e-16 0.00127503 0 3.75155e-14
1086 38 0.001 4.36351e-08 -2.90332e-21 -0.043 0.00402928 2.65465e-16 0.00086489 0 3.63853e-14
1553 45 0.001 0.0186274 3.707e-25 -0.0431373 -0.00412413 8.69845e-15 5.85223e-05 0 3.62339e-14
1554 45 0.001 0.0188235 5.87069e-26 -0.0441176 -0.00655819 -1.36827e-14 -1.14173e-05 0 3.72303e-14
1325 42 0.001 0.0200001 2.90086e-29 -0.044 0.00643328 -2.24282e-22 0.00127503 0 3.75155e-14
1326 42 0.001 0.02 -2.54153e-29 -0.043 0.00402928 3.71633e-22 0.00086489 0 3.63853e-14
1793 49 0.001 0.0386274 -1.78682e-26 -0.0431373 -0.00412229 -6.41795e-21 5.88918e-05 0 3.62339e-14
1794 49 0.001 0.0388235 -4.72473e-25 -0.0441176 -0.0065591 1.84178e-20 -1.15993e-05 0 3.72303e-14
1565 46 0.001 0.0400001 3.7758e-29 -0.044 0.00643328 -1.29018e-22 0.00127503 0 3.75155e-14
1566 46 0.001 0.04 -2.25254e-29 -0.043 0.00402928 3.72742e-22 0.00086489 0 3.63853e-14
2033 53 0.001 0.0586274 -1.78682e-26 -0.0431373 -0.00412229 -6.41795e-21 5.88918e-05 0 3.62339e-14
1805 50 0.001 0.0600001 3.7758e-29 -0.044 0.00643328 -2.21041e-22 0.00127503 0 3.75155e-14
1806 50 0.001 0.06 -2.25254e-29 -0.043 0.00402928 3.72742e-22 0.00086489 0 3.63853e-14
2034 53 0.001 0.0588235 -4.72473e-25 -0.0441176 -0.0065591 1.84172e-20 -1.15993e-05 0 3.72303e-14
2273 57 0.001 0.0786274 -1.19635e-26 -0.0431373 -0.00412075 -1.83569e-19 5.86076e-05 0 3.62289e-14
2274 57 0.001 0.0788235 -4.80684e-25 -0.0441176 -0.00655656 -4.16043e-16 -1.1978e-05 0 3.72264e-14
2045 54 0.001 0.0800002 4.02632e-28 -0.044 0.0054639 3.46456e-14 0.00148224 0 3.16261e-20
2046 54 0.001 0.0800001 1.24649e-19 -0.043 0.00341724 -1.32137e-13 0.00100511 0 2.30208e-20
28 21 0.001 -0.1 0 -0.042 0 0 -1.76787e-08 0 1.44445e-33
352 25 0.001 -0.0815686 5.38792e-29 -0.0421569 -0.00202884 2.4035e-12 7.7089e-05 0 3.32599e-14
127 22 0.001 -0.08 -1.28209e-20 -0.042 0.00197168 4.1171e-16 0.000471842 0 3.31955e-14
592 29 0.001 -0.0615686 -1.93926e-25 -0.0421569 -0.00202787 -7.65046e-15 7.7283e-05 0 3.32599e-14
367 26 0.001 -0.06 5.2786e-31 -0.042 0.00197168 -7.61152e-15 0.000471842 0 3.31955e-14
832 33 0.001 -0.0415686 -1.93926e-25 -0.0421569 -0.00202787 -7.65046e-15 7.7283e-05 0 3.32599e-14
607 30 0.001 -0.04 5.2786e-31 -0.042 0.00197168 -7.61152e-15 0.000471842 0 3.31955e-14
1072 37 0.001 -0.0215686 -7.62212e-25 -0.0421569 -0.00202865 2.40251e-12 7.71277e-05 0 3.32599e-14
847 34 0.001 -0.02 1.66301e-30 -0.042 0.00197168 -3.14104e-20 0.000471842 0 3.31955e-14
1312 41 0.001 -0.00156865 -1.13703e-21 -0.0421569 -0.00202865 2.40355e-12 7.71277e-05 0 3.32599e-14
1087 38 0.001 2.12927e-08 9.33592e-21 -0.042 0.00197168 -4.64898e-16 0.000471842 0 3.31955e-14
1552 45 0.001 0.0184314 -7.62212e-25 -0.0421569 -0.00202865 2.40251e-12 7.71277e-05 0 3.32599e-14
1327 42 0.001 0.02 1.66301e-30 -0.042 0.00197168 -3.14104e-20 0.000471842 0 3.31955e-14
1792 49 0.001 0.0384314 -1.93926e-25 -0.0421569 -0.00202787 -7.65046e-15 7.7283e-05 0 3.32599e-14
1567 46 0.001 0.04 5.2786e-31 -0.042 0.00197168 -7.61152e-15 0.000471842 0 3.31955e-14
2032 53 0.001 0.0584314 -1.93926e-25 -0.0421569 -0.00202787 -7.65046e-15 7.7283e-05 0 3.32599e-14
1807 50 0.001 0.06 5.2786e-31 -0.042 0.00197168 -7.61152e-15 0.000471842 0 3.31955e-14