ITEM: TIMESTEP
5
ITEM: NUMBER OF ATOMS
2279
ITEM: BOX BOUNDS ff ff ff
-1.1000000000000000e-01 1.1000000000000000e-01
-6.0000000000000001e-03 6.0000000000000001e-03
-5.5000000000000000e-02 5.5000000000000000e-02
ITEM: ATOMS id type radius x y z fx fy fz c_bendingE c_stretchingE
1 1 0.001 -0.1 0 -0.05 8.53826e-05 3.23072e-16 0.000239834 0 2.25131e-11
21 21 0.001 -0.1 1.24381e-20 -0.0489999 -0.000939379 6.68837e-15 0.00068367 0 2.22097e-11
219 23 0.001 -0.0990475 7.86671e-21 -0.0500001 0.00064977 -2.43608e-14 -0.000927267 0 1.93474e-11
220 23 0.001 -0.0980952 -1.65736e-18 -0.05 0.000394337 2.09383e-13 -0.000476112 0 8.53389e-12
221 23 0.001 -0.0971429 1.07491e-18 -0.05 4.50711e-05 -3.13636e-13 0.000133756 0 1.65992e-13
222 23 0.001 -0.0961905 2.94669e-20 -0.05 1.4608e-06 1.18442e-13 2.15817e-05 0 1.61867e-16
223 23 0.001 -0.0952381 -5.87853e-21 -0.05 4.04291e-08 1.16933e-14 -3.74408e-06 0 1.44005e-19
224 23 0.001 -0.0942857 -2.55998e-21 -0.05 -2.34629e-09 2.39274e-15 -2.15988e-07 0 6.09166e-22
225 23 0.001 -0.0933333 1.28748e-21 -0.05 3.76981e-09 -1.26771e-17 6.22192e-09 0 4.53939e-22
226 23 0.001 -0.092381 2.85016e-29 -0.05 2.83933e-09 -5.4976e-14 -7.39245e-09 0 1.06983e-22
227 23 0.001 -0.0914286 -1.41203e-29 -0.05 2.57843e-10 -7.31031e-08 -2.40252e-08 0 2.42031e-22
228 23 0.001 -0.0904762 0 -0.05 -4.33434e-09 3.53434e-07 -9.74017e-09 0 2.12693e-22
229 23 0.001 -0.0895238 2.84056e-11 -0.05 3.63598e-10 -1.35136e-06 -3.51212e-09 0 1.47354e-22
230 23 0.001 -0.0885714 -5.68111e-11 -0.05 2.60893e-09 2.1421e-06 -3.36449e-08 0 8.13514e-23
231 23 0.001 -0.087619 2.84055e-11 -0.05 4.62239e-09 -1.34541e-06 1.1876e-08 0 6.94509e-22
232 23 0.001 -0.0866667 1.98104e-16 -0.05 -8.10523e-09 3.44091e-07 8.02327e-08 0 9.45191e-22
233 23 0.001 -0.0857143 -1.0844e-16 -0.05 4.60501e-10 -7.24567e-08 -6.75047e-07 0 4.12748e-22
234 23 0.001 -0.0847619 -2.22927e-19 -0.05 -2.21565e-08 2.69946e-09 -9.14448e-06 0 4.08586e-20
235 23 0.001 -0.0838095 -1.40866e-18 -0.05 -2.06926e-06 3.7385e-13 5.44262e-05 0 2.9974e-16
236 23 0.001 -0.0828571 -1.55909e-18 -0.05 -6.93997e-05 4.07107e-14 0.000326732 0 3.81898e-13
237 23 0.001 -0.0819048 5.17688e-18 -0.05 -0.000843034 -9.33626e-14 -0.00117117 0 4.88273e-11
3 3 0.001 -0.08 -1.10798e-17 -0.05 -6.24223e-05 -4.61336e-13 -0.000326135 0 9.98771e-11
120 22 0.001 -0.0799991 -5.53989e-20 -0.049 0.0100661 -1.23705e-14 0.0004882 0 1.35104e-11
238 23 0.001 -0.0809526 2.08002e-20 -0.0500003 -0.00146837 1.20191e-14 -0.00234719 0 1.04645e-10
359 25 0.001 -0.0801969 7.8754e-19 -0.0490197 -0.00918661 1.22861e-12 -0.00133842 0 1.33108e-11
459 27 0.001 -0.0790474 -3.99265e-20 -0.0500002 0.00117296 3.87353e-12 -0.00154609 0 7.09671e-11
460 27 0.001 -0.0780952 4.93568e-17 -0.05 0.000686752 -2.56838e-11 -0.000756004 0 3.19706e-11
461 27 0.001 -0.0771429 -1.27433e-15 -0.05 5.83626e-05 -3.16675e-10 0.000215374 0 2.69719e-13
462 27 0.001 -0.0761905 1.04789e-14 -0.05 1.59212e-06 2.78951e-09 3.49617e-05 0 1.97258e-16
463 27 0.001 -0.0752381 1.77561e-13 -0.05 5.55864e-08 -1.02931e-08 -6.00043e-06 0 2.72085e-19
464 27 0.001 -0.0742857 -3.81701e-13 -0.05 -1.27633e-09 4.32034e-08 -4.16883e-07 0 6.91636e-22
465 27 0.001 -0.0733333 1.90643e-13 -0.05 6.22059e-09 -6.08283e-08 -1.56217e-08 0 4.49939e-22
466 27 0.001 -0.072381 8.48805e-15 -0.05 -3.04109e-09 -5.20937e-08 1.08181e-07 0 7.68869e-23
467 27 0.001 -0.0714286 -4.24403e-15 -0.05 2.92135e-11 1.64975e-07 -9.23953e-08 0 3.61248e-24
468 27 0.001 -0.0704762 0 -0.05 6.95306e-10 -1.0365e-07 -1.89479e-08 0 1.31265e-23
469 27 0.001 -0.0695238 -6.2961e-18 -0.05 2.59725e-10 1.93156e-08 9.90738e-09 0 9.82307e-23
470 27 0.001 -0.0685714 1.13299e-13 -0.05 -2.39508e-09 -8.85888e-09 -5.2821e-08 0 8.56357e-23
471 27 0.001 -0.067619 -2.37747e-13 -0.05 -3.80771e-09 1.21456e-08 1.21064e-07 0 4.48739e-22
472 27 0.001 -0.0666667 1.48505e-13 -0.05 3.75545e-09 -8.56669e-09 -8.80432e-08 0 4.49229e-22
473 27 0.001 -0.0657143 -2.40507e-14 -0.05 2.66728e-09 2.79893e-09 -5.65611e-07 0 8.0534e-23
474 27 0.001 -0.0647619 5.82294e-20 -0.05 -2.68077e-08 -6.83074e-10 -9.17699e-06 0 4.36971e-20
475 27 0.001 -0.0638095 1.12879e-18 -0.05 -2.06919e-06 8.69998e-11 5.44322e-05 0 2.99896e-16
476 27 0.001 -0.0628571 2.36487e-18 -0.05 -6.93985e-05 -2.47949e-12 0.000326753 0 3.81892e-13
477 27 0.001 -0.0619048 -1.47881e-17 -0.05 -0.000842993 -2.25052e-12 -0.00117132 0 4.88229e-11
478 27 0.001 -0.0609526 1.76863e-17 -0.0500003 -0.00146576 5.00452e-12 -0.00234696 0 1.04972e-10
5 5 0.001 -0.06 3.29675e-15 -0.05 -4.81474e-05 3.33964e-11 -0.000322894 0 9.99184e-11
360 26 0.001 -0.0599991 2.21723e-17 -0.049 0.010067 3.65586e-12 0.000488724 0 1.34964e-11
599 29 0.001 -0.0601969 1.57112e-17 -0.0490197 -0.0091245 3.82485e-12 -0.00132598 0 1.33104e-11
699 31 0.001 -0.0590474 1.77057e-14 -0.0500002 0.00117562 -3.25358e-10 -0.00154587 0 7.06901e-11
700 31 0.001 -0.0580952 -3.24785e-14 -0.05 0.000686644 5.65209e-10 -0.00075615 0 3.197e-11
701 31 0.001 -0.0571429 7.64697e-15 -0.05 5.83671e-05 -3.37865e-10 0.000215397 0 2.7017e-13
702 31 0.001 -0.0561905 6.47333e-15 -0.05 1.73575e-06 1.96188e-11 3.49573e-05 0 2.08259e-16
703 31 0.001 -0.0552381 -2.16713e-16 -0.05 1.21603e-08 4.8956e-11 -5.99656e-06 0 1.66479e-20
704 31 0.001 -0.0542857 -8.48141e-17 -0.05 2.10217e-09 -1.94856e-11 -4.32735e-07 0 5.38448e-22
705 31 0.001 -0.0533333 1.45201e-18 -0.05 4.40594e-09 4.28973e-07 3.07719e-08 0 3.98678e-23
706 31 0.001 -0.052381 7.94455e-23 -0.05 -1.75644e-08 -8.57963e-07 0.155414 0 2.34088e-21
707 31 0.001 -0.0514286 -4.71626e-30 -0.05 2.66808e-08 5.30247e-07 -0.310827 0 5.75887e-21
708 31 0.001 -0.0504762 0 -0.05 -1.24059e-08 -1.99887e-07 0.155413 0 4.5896e-21
709 31 0.001 -0.0495238 8.84496e-15 -0.05 -9.28468e-09 9.58326e-08 4.84243e-07 0 2.46121e-21
710 31 0.001 -0.0485714 -1.76899e-14 -0.05 1.22729e-08 2.97366e-09 -1.38207e-08 0 2.14799e-21
711 31 0.001 -0.047619 -1.76825e-14 -0.05 -3.12706e-09 8.33139e-11 -1.297e-08 0 1.17976e-21
712 31 0.001 -0.0466667 2.85491e-13 -0.05 -1.48266e-08 7.02578e-09 8.6794e-08 0 5.91607e-21
713 31 0.001 -0.0457143 1.02321e-12 -0.05 2.31684e-08 -4.46015e-08 -6.5228e-07 0 1.01959e-20
714 31 0.001 -0.0447619 -2.70692e-12 -0.05 -4.0651e-08 7.70451e-08 -9.16964e-06 0 6.95367e-20
715 31 0.001 -0.0438095 1.29301e-12 -0.05 -2.05782e-06 -5.18067e-08 5.44347e-05 0 2.98606e-16
716 31 0.001 -0.0428571 1.73963e-13 -0.05 -6.94062e-05 1.38363e-08 0.000326755 0 3.81916e-13
717 31 0.001 -0.0419048 -4.24486e-14 -0.05 -0.00084299 -1.34778e-09 -0.00117132 0 4.88228e-11
718 31 0.001 -0.0409526 1.53256e-16 -0.0500003 -0.00146576 -4.65089e-10 -0.00234696 0 1.04972e-10
7 7 0.001 -0.04 3.60902e-15 -0.05 -4.81475e-05 8.71611e-11 -0.000322894 0 9.99184e-11
600 30 0.001 -0.0399991 1.10436e-17 -0.049 0.010067 4.32529e-12 0.000488724 0 1.34964e-11
839 33 0.001 -0.0401969 1.05518e-17 -0.0490197 -0.0091245 4.34281e-12 -0.00132598 0 1.33104e-11
939 35 0.001 -0.0390474 1.77056e-14 -0.0500002 0.00117562 -3.24835e-10 -0.00154587 0 7.06901e-11
940 35 0.001 -0.0380952 -3.24784e-14 -0.05 0.000686644 5.64903e-10 -0.00075615 0 3.197e-11
941 35 0.001 -0.0371429 7.64696e-15 -0.05 5.83671e-05 -3.37832e-10 0.000215397 0 2.7017e-13
942 35 0.001 -0.0361905 6.47333e-15 -0.05 1.7358e-06 1.95587e-11 3.49565e-05 0 2.08259e-16
943 35 0.001 -0.0352381 -2.16714e-16 -0.05 1.19747e-08 4.90714e-11 -5.99488e-06 0 1.65275e-20
944 35 0.001 -0.0342857 -8.48141e-17 -0.05 3.73194e-09 -1.9546e-11 -4.33721e-07 0 5.79804e-22
945 35 0.001 -0.0333333 1.45201e-18 -0.05 -3.36134e-09 1.22861e-11 2.9532e-08 0 4.82609e-22
946 35 0.001 -0.032381 1.5889e-22 -0.05 7.31008e-09 6.07518e-10 6.08105e-08 0 1.4643e-21
947 35 0.001 -0.0314286 -7.94443e-23 -0.05 -7.90738e-09 -5.34749e-09 -8.44215e-08 0 2.28319e-21
948 35 0.001 -0.0304762 0 -0.05 9.21231e-09 2.98368e-08 1.17652e-08 0 3.01708e-21
949 35 0.001 -0.0295238 1.61838e-12 -0.05 -8.99818e-09 4.90099e-07 1.41463e-09 0 5.04085e-21
950 35 0.001 -0.0285714 -8.41589e-12 -0.05 1.65436e-08 -2.88163e-06 -1.01957e-07 0 1.07327e-20
951 35 0.001 -0.027619 -2.65138e-10 -0.05 -2.68571e-08 9.55215e-06 2.82011e-07 0 1.65781e-20
952 35 0.001 -0.0266667 5.4387e-10 -0.05 2.14375e-08 -1.43799e-05 -3.67901e-07 0 1.18095e-20
953 35 0.001 -0.0257143 -2.64406e-10 -0.05 -5.38291e-09 9.75659e-06 -3.3871e-07 0 2.9391e-21
954 35 0.001 -0.0247619 -9.94638e-12 -0.05 -3.82195e-08 -3.27719e-06 -9.26511e-06 0 8.02133e-20
955 35 0.001 -0.0238095 2.46774e-12 -0.05 -2.04551e-06 6.98045e-07 5.44505e-05 0 2.96725e-16
956 35 0.001 -0.0228571 -3.07323e-14 -0.05 -6.94213e-05 2.45253e-08 0.000326734 0 3.81974e-13
957 35 0.001 -0.0219048 -1.58592e-14 -0.05 -0.000843023 -8.10323e-09 -0.00117117 0 4.8827e-11
9 9 0.001 -0.02 1.27461e-15 -0.05 -6.23467e-05 -1.6809e-12 -0.00032612 0 9.98773e-11
840 34 0.001 -0.0199991 5.95483e-18 -0.049 0.0100661 1.50891e-12 0.0004882 0 1.35104e-11
958 35 0.001 -0.0209526 -3.27292e-15 -0.0500003 -0.00146837 2.65063e-10 -0.00234719 0 1.04645e-10
1079 37 0.001 -0.0201969 1.99348e-18 -0.0490197 -0.00918012 1.7299e-12 -0.00133712 0 1.33108e-11
1179 39 0.001 -0.0190474 2.37305e-16 -0.0500002 0.00117296 1.36707e-11 -0.00154609 0 7.09674e-11
1180 39 0.001 -0.0180952 -2.27296e-15 -0.05 0.000686766 -1.44655e-10 -0.000756005 0 3.1971e-11
1181 39 0.001 -0.0171429 -1.24672e-14 -0.05 5.83476e-05 5.1709e-10 0.000215379 0 2.69659e-13
1182 39 0.001 -0.0161905 2.99149e-14 -0.05 1.60347e-06 -8.12161e-10 3.49532e-05 0 1.98641e-16
1183 39 0.001 -0.0152381 -1.4296e-14 -0.05 4.35443e-08 6.05608e-10 -6.00301e-06 0 2.34984e-19
1184 39 0.001 -0.0142857 -1.27108e-15 -0.05 4.13046e-09 -1.97964e-10 -4.18649e-07 0 2.99343e-21
1185 39 0.001 -0.0133333 1.65341e-16 -0.05 1.01822e-08 -5.31623e-11 2.53734e-08 0 1.06064e-21
1186 39 0.001 -0.012381 1.54075e-24 -0.05 -5.52251e-10 1.34103e-10 2.68826e-07 0 8.42817e-22
1187 39 0.001 -0.0114286 -5.77718e-25 -0.05 3.05731e-09 3.51097e-08 -5.08667e-07 0 4.20597e-22
1188 39 0.001 -0.0104762 0 -0.05 6.69085e-09 -1.62948e-07 2.25384e-07 0 2.05151e-21
1189 39 0.001 -0.00952381 -1.31934e-11 -0.05 -1.69947e-08 6.27441e-07 -1.82634e-08 0 3.06635e-21
1190 39 0.001 -0.00857143 2.63867e-11 -0.05 2.26904e-09 -9.99328e-07 -5.01219e-09 0 1.13848e-21
1191 39 0.001 -0.00761905 -1.31934e-11 -0.05 -2.74542e-09 6.316e-07 -1.93257e-08 0 2.00736e-22
1192 39 0.001 -0.00666667 7.11928e-22 -0.05 8.05764e-09 -1.68802e-07 1.13025e-07 0 6.00551e-22
1193 39 0.001 -0.00571429 -8.1555e-22 -0.05 -5.38124e-09 3.84332e-08 -7.07967e-07 0 4.80036e-22
1194 39 0.001 -0.0047619 4.36735e-20 -0.05 -2.54205e-08 -1.56936e-09 -9.12602e-06 0 4.64077e-20
1195 39 0.001 -0.00380952 -7.95e-20 -0.05 -2.06514e-06 -2.32421e-14 5.44197e-05 0 2.98982e-16
1196 39 0.001 -0.00285714 -2.41048e-18 -0.05 -6.94082e-05 9.87031e-14 0.000326736 0 3.81947e-13
1197 39 0.001 -0.00190478 3.72166e-18 -0.05 -0.000843025 -1.23271e-13 -0.00117117 0 4.8827e-11
1198 39 0.001 -0.00095262 -1.13054e-19 -0.0500003 -0.00146837 1.79963e-14 -0.00234719 0 1.04645e-10
1319 41 0.001 -0.000196888 4.93248e-18 -0.0490197 -0.00918012 -1.70822e-13 -0.00133712 0 1.33108e-11
11 11 0.001 -3.18681e-09 -5.7573e-18 -0.05 -6.23459e-05 -1.61476e-13 -0.00032612 0 9.98773e-11
1080 38 0.001 9.14471e-07 -4.40228e-18 -0.049 0.0100661 8.62416e-14 0.0004882 0 1.35104e-11
1419 43 0.001 0.000952575 -1.39303e-20 -0.0500002 0.001173 -6.09843e-15 -0.00154609 0 7.09626e-11
1420 43 0.001 0.00190478 -7.61838e-21 -0.05 0.000686611 4.56183e-13 -0.000756005 0 3.19667e-11
1421 43 0.001 0.00285714 -4.27301e-20 -0.05 5.83628e-05 5.31078e-15 0.000215377 0 2.70137e-13
1422 43 0.001 0.00380952 1.08054e-19 -0.05 1.72951e-06 -1.45236e-10 3.49572e-05 0 2.08074e-16
1423 43 0.001 0.0047619 -2.9515e-20 -0.05 2.00316e-08 4.97936e-09 -5.99012e-06 0 2.61813e-20
1424 43 0.001 0.00571429 -2.3738e-20 -0.05 2.52234e-10 -3.66776e-08 -4.6448e-07 0 2.32722e-24
1425 43 0.001 0.00666667 -1.14164e-12 -0.05 2.81761e-09 1.0528e-07 9.7775e-08 0 7.51832e-22
1426 43 0.001 0.00761905 2.28328e-12 -0.05 -1.45099e-08 -1.25044e-07 -3.87958e-08 0 3.15001e-21
1427 43 0.001 0.00857143 -1.14164e-12 -0.05 8.42708e-09 7.74411e-08 6.32777e-10 0 2.64206e-21
1428 43 0.001 0.00952381 0 -0.05 -1.89025e-08 -4.6272e-08 -0.024719 0 3.00346e-22
1429 43 0.001 0.0104762 6.91662e-23 -0.05 2.10125e-08 1.89835e-09 0.049438 0 2.43005e-22
1430 43 0.001 0.0114286 -2.30451e-22 -0.05 4.18676e-09 -4.38224e-09 -0.024719 0 2.449e-22
1431 43 0.001 0.012381 -1.77946e-12 -0.05 -3.37269e-09 8.31798e-08 3.40409e-08 0 1.17507e-22
1432 43 0.001 0.0133333 3.53806e-12 -0.05 5.66501e-11 -1.15951e-07 3.8281e-08 0 6.37089e-23
1433 43 0.001 0.0142857 -1.57612e-12 -0.05 6.3894e-10 7.33596e-08 -6.43832e-07 0 4.97178e-23
1434 43 0.001 0.0152381 -3.36536e-13 -0.05 -3.13117e-08 -1.85326e-08 -9.16359e-06 0 5.6983e-20
1435 43 0.001 0.0161905 1.28877e-13 -0.05 -2.05922e-06 -1.22386e-10 5.44364e-05 0 2.98519e-16
1436 43 0.001 0.0171429 4.12733e-14 -0.05 -6.94106e-05 9.34834e-10 0.00032673 0 3.81954e-13
1437 43 0.001 0.0180952 -1.43429e-14 -0.05 -0.000843022 1.61266e-10 -0.00117117 0 4.88268e-11
1438 43 0.001 0.0190474 -1.99395e-15 -0.0500003 -0.00146838 -1.19023e-10 -0.00234719 0 1.04645e-10
13 13 0.001 0.02 8.35277e-16 -0.05 -6.23472e-05 7.68556e-12 -0.000326119 0 9.98769e-11
1320 42 0.001 0.0200009 3.54332e-18 -0.049 0.0100661 9.99099e-13 0.0004882 0 1.35104e-11
1559 45 0.001 0.0198031 -4.0821e-18 -0.0490197 -0.00918012 1.26002e-12 -0.00133712 0 1.33108e-11
1659 47 0.001 0.0209526 4.79547e-18 -0.0500002 0.00117293 1.25631e-12 -0.00154609 0 7.09706e-11
1660 47 0.001 0.0219048 -4.74248e-18 -0.05 0.000687009 -9.78139e-13 -0.000756005 0 3.19729e-11
1661 47 0.001 0.0228571 1.52516e-18 -0.05 5.78214e-05 -8.97439e-14 0.000215377 0 2.68218e-13
1662 47 0.001 0.0238095 9.44108e-20 -0.05 1.99137e-06 2.40493e-13 3.49537e-05 0 2.54124e-16
1663 47 0.001 0.0247619 -6.25087e-20 -0.05 -1.1449e-08 6.8579e-15 -5.98994e-06 0 4.20331e-20
1664 47 0.001 0.0257143 7.42677e-21 -0.05 -2.28003e-08 -4.4726e-15 -4.22878e-07 0 1.19678e-20
1665 47 0.001 0.0266667 7.56373e-22 -0.05 2.0335e-08 1.63505e-16 1.74171e-08 0 1.04065e-20
1666 47 0.001 0.027619 1.46548e-27 -0.05 5.514e-10 -9.96637e-17 1.3345e-08 0 4.35947e-21
1667 47 0.001 0.0285714 -2.45083e-28 -0.05 -2.42325e-08 -1.37052e-17 -1.84812e-08 0 1.24324e-20
1668 47 0.001 0.0295238 0 -0.05 2.81948e-08 7.84752e-18 1.60444e-08 0 1.42728e-20
1669 47 0.001 0.0304762 5.29628e-23 -0.05 -1.3095e-08 -2.09655e-17 -9.0897e-08 0 4.31812e-21
1670 47 0.001 0.0314286 -1.05926e-22 -0.05 8.89143e-10 2.63628e-17 6.86638e-08 0 2.22806e-22
1671 47 0.001 0.032381 5.29631e-23 -0.05 3.29219e-09 -1.75829e-17 -4.61406e-08 0 2.90714e-22
1672 47 0.001 0.0333333 -9.01167e-22 -0.05 -4.34063e-09 4.45948e-17 9.51014e-08 0 6.49074e-22
1673 47 0.001 0.0342857 -1.46821e-20 -0.05 8.31604e-09 5.31911e-16 -6.64874e-07 0 1.98109e-21
1674 47 0.001 0.0352381 -3.52989e-20 -0.05 -3.7531e-08 -4.72496e-15 -9.1609e-06 0 6.69831e-20
1675 47 0.001 0.0361905 -4.46636e-19 -0.05 -2.05768e-06 3.4639e-14 5.44329e-05 0 2.98607e-16
1676 47 0.001 0.0371429 9.8533e-19 -0.05 -6.94062e-05 -1.62849e-13 0.000326755 0 3.81916e-13
1677 47 0.001 0.0380952 -9.41819e-18 -0.05 -0.00084299 -2.3271e-12 -0.00117132 0 4.88228e-11
1678 47 0.001 0.0390474 1.79141e-17 -0.0500003 -0.00146576 5.02428e-12 -0.00234696 0 1.04972e-10
15 15 0.001 0.04 3.29217e-15 -0.05 -4.81475e-05 3.33689e-11 -0.000322894 0 9.99184e-11
1560 46 0.001 0.0400009 1.10466e-17 -0.049 0.010067 3.91994e-12 0.000488724 0 1.34964e-11
1799 49 0.001 0.0398031 1.05551e-17 -0.0490197 -0.0091245 3.93665e-12 -0.00132598 0 1.33104e-11
1899 51 0.001 0.0409526 1.77056e-14 -0.0500002 0.00117562 -3.25365e-10 -0.00154587 0 7.06901e-11
1900 51 0.001 0.0419048 -3.24784e-14 -0.05 0.000686644 5.65225e-10 -0.00075615 0 3.197e-11
1901 51 0.001 0.0428571 7.64696e-15 -0.05 5.83671e-05 -3.37873e-10 0.000215397 0 2.7017e-13
1902 51 0.001 0.0438095 6.47333e-15 -0.05 1.73575e-06 1.96185e-11 3.49573e-05 0 2.08259e-16
1903 51 0.001 0.0447619 -2.16713e-16 -0.05 1.21603e-08 4.89561e-11 -5.99656e-06 0 1.66479e-20
1904 51 0.001 0.0457143 -8.48141e-17 -0.05 2.10217e-09 -1.94856e-11 -4.32735e-07 0 5.38448e-22
1905 51 0.001 0.0466667 1.45201e-18 -0.05 4.40594e-09 -8.75246e-13 3.21355e-08 0 3.98678e-23
1906 51 0.001 0.047619 7.94455e-23 -0.05 3.5038e-09 8.24801e-13 3.24001e-08 0 2.34088e-21
1907 51 0.001 0.0485714 -4.71626e-30 -0.05 -1.743e-08 1.34997e-09 -3.55628e-08 0 6.35855e-21
1908 51 0.001 0.0495238 0 -0.05 1.4411e-08 -1.34966e-09 -1.23564e-08 0 5.58126e-21
1909 51 0.001 0.0504762 -3.7656e-27 -0.05 -9.70155e-09 7.25924e-18 -1.60395e-08 0 2.5763e-21
1910 51 0.001 0.0514286 3.54936e-22 -0.05 8.21819e-09 -1.04012e-15 1.58686e-08 0 1.57677e-21
1911 51 0.001 0.052381 -6.1062e-22 -0.05 -3.52021e-09 5.20853e-15 -3.26242e-08 0 6.08962e-22
1912 51 0.001 0.0533333 -1.24337e-22 -0.05 -8.2971e-09 -7.41729e-15 6.24018e-08 0 2.54861e-21
1913 51 0.001 0.0542857 -1.78928e-20 -0.05 1.62995e-08 -2.80394e-15 -6.48179e-07 0 5.55082e-21
1914 51 0.001 0.0552381 -1.7038e-20 -0.05 -3.92077e-08 -1.83824e-14 -9.15293e-06 0 6.80509e-20
1915 51 0.001 0.0561905 3.79774e-19 -0.05 -2.05777e-06 4.82075e-14 5.44318e-05 0 2.98597e-16
1916 51 0.001 0.0571429 -4.79683e-20 -0.05 -6.94065e-05 -2.14842e-14 0.000326732 0 3.81918e-13
1917 51 0.001 0.0580952 -5.97218e-19 -0.05 -0.000843032 -4.5887e-15 -0.00117117 0 4.88273e-11
17 17 0.001 0.06 7.59613e-18 -0.05 -6.23468e-05 9.76848e-14 -0.00032612 0 9.98773e-11
1800 50 0.001 0.0600009 1.27773e-19 -0.049 0.0100661 6.51102e-15 0.0004882 0 1.35104e-11
1918 51 0.001 0.0590474 1.4288e-20 -0.0500003 -0.00146837 9.09438e-15 -0.00234719 0 1.04646e-10
2039 53 0.001 0.0598031 -4.20662e-18 -0.0490197 -0.00918012 -1.07451e-12 -0.00133712 0 1.33108e-11
2139 55 0.001 0.0609526 -1.90532e-20 -0.0500002 0.00117301 1.86496e-15 -0.00154609 0 7.09624e-11
2140 55 0.001 0.0619048 -2.33874e-18 -0.05 0.00068661 3.91735e-14 -0.000756005 0 3.19666e-11
2141 55 0.001 0.0628571 -7.19382e-19 -0.05 5.83633e-05 1.2456e-12 0.000215378 0 2.70141e-13
2142 55 0.001 0.0638095 1.7422e-18 -0.05 1.73133e-06 -1.34977e-06 3.4959e-05 0 2.08054e-16
2143 55 0.001 0.0647619 -1.9256e-20 -0.05 2.77802e-08 2.69866e-06 -0.438686 0 2.19074e-20
2144 55 0.001 0.0657143 1.28887e-14 -0.05 -0.250952 -1.34997e-06 1.99085 0 5.73141e-07
2145 55 0.001 0.0666667 -2.57775e-14 -0.0497856 -0.286715 2.54163e-09 -8.05558 0 3.96658e-05
2146 55 0.001 0.067619 1.13293e-13 -0.0504289 -1.55951e-09 -1.13673e-09 13.0068 0 7.81853e-05
2147 55 0.001 0.0685714 -1.00404e-13 -0.0497856 0.286715 -6.17235e-08 -8.05558 0 3.96658e-05
2148 55 0.001 0.0695238 0 -0.05 0.250952 0.0198969 2.01059 0 5.73141e-07
2149 55 0.001 0.0704762 2.84055e-11 -0.05 -8.60911e-10 -0.0397945 -0.478171 0 1.47354e-22
2150 55 0.001 0.0714286 -5.68111e-11 -0.05 4.36195e-09 0.0198987 0.0197454 0 8.13514e-23
2151 55 0.001 0.072381 2.84056e-11 -0.05 4.6224e-09 -1.34227e-06 -3.26014e-09 0 6.94509e-22
2152 55 0.001 0.0733333 -3.60778e-17 -0.05 -8.10523e-09 3.34953e-07 -1.08757e-08 0 9.45191e-22
2153 55 0.001 0.0742857 9.19619e-18 -0.05 4.48436e-10 -6.3816e-08 -4.71993e-08 0 4.15097e-22
2154 55 0.001 0.0752381 -4.69304e-19 -0.05 -2.84428e-08 1.22595e-12 1.37407e-07 0 6.35598e-20
2155 55 0.001 0.0761905 -2.99673e-21 -0.05 -3.17005e-06 -2.76875e-14 9.56795e-07 0 6.89421e-16
2156 55 0.001 0.0771429 8.53218e-22 -0.05 -0.000142124 -1.44976e-16 -4.01396e-06 0 1.52178e-12
2157 55 0.001 0.0780952 -1.73454e-19 -0.05 -0.0020893 -4.69049e-15 -6.69835e-06 0 3.67012e-10
2158 55 0.001 0.079047 1.20738e-18 -0.05 0.00134743 1.13996e-14 -0.00551653 0 5.97491e-10
2279 57 0.001 0.0798017 2.69978e-18 -0.0490196 -0.000663723 -1.33677e-12 -0.00545539 0 2.41386e-10
19 19 0.001 0.0799998 1.24003e-17 -0.05 -0.00101264 -1.03482e-12 0.00114432 0 3.93745e-10
2040 54 0.001 0.0800034 4.65712e-18 -0.049 0.00412619 -7.05168e-12 -0.00182109 0 3.65687e-14
22 21 0.001 -0.1 1.50729e-18 -0.048 -0.000401131 -2.19211e-14 0.000341539 0 1.06919e-11
121 22 0.001 -0.0799991 1.15322e-19 -0.0479999 0.0110283 -2.85644e-14 0.00131483 0 1.12427e-11
358 25 0.001 -0.0803931 -1.83388e-18 -0.0480393 -0.0106138 -1.9523e-12 -0.000789661 0 1.11928e-11
598 29 0.001 -0.0603931 -9.3058e-18 -0.0480393 -0.0107763 -1.6389e-12 -0.00082216 0 1.11928e-11
361 26 0.001 -0.0599991 -2.35776e-17 -0.0479999 0.0110279 -1.4822e-12 0.00131484 0 1.12423e-11
601 30 0.001 -0.0399991 -2.87348e-18 -0.0479999 0.0110279 -2.17112e-12 0.00131484 0 1.12423e-11
838 33 0.001 -0.0403931 -2.72598e-18 -0.0480393 -0.0107763 -2.16132e-12 -0.00082216 0 1.11928e-11
841 34 0.001 -0.0199991 -2.83788e-18 -0.0479999 0.0110283 -7.28857e-13 0.00131483 0 1.12427e-11
1078 37 0.001 -0.0203931 3.70572e-18 -0.0480393 -0.0106044 -1.22232e-12 -0.000787795 0 1.11928e-11
1318 41 0.001 -0.000393052 -7.36005e-18 -0.0480393 -0.0106044 4.95318e-13 -0.000787795 0 1.11928e-11
1081 38 0.001 8.91658e-07 8.23867e-18 -0.0479999 0.0110283 -1.67402e-13 0.00131483 0 1.12427e-11
1321 42 0.001 0.0200009 -1.34549e-18 -0.0479999 0.0110283 -5.26088e-13 0.00131483 0 1.12427e-11
1558 45 0.001 0.0196069 9.62629e-18 -0.0480393 -0.0106044 -8.34346e-13 -0.000787795 0 1.11928e-11
1561 46 0.001 0.0400009 -2.87348e-18 -0.0479999 0.0110279 -1.96835e-12 0.00131484 0 1.12423e-11
1798 49 0.001 0.0396069 -2.72598e-18 -0.0480393 -0.0107763 -1.95843e-12 -0.00082216 0 1.11928e-11
1801 50 0.001 0.0600009 -3.71973e-19 -0.0479999 0.0110283 3.46102e-14 0.00131483 0 1.12427e-11
2038 53 0.001 0.0596069 6.74398e-18 -0.0480393 -0.0106044 1.40113e-12 -0.000787793 0 1.11928e-11
2278 57 0.001 0.0796069 -3.61375e-18 -0.0480393 -0.014896 6.77878e-12 -0.00033656 0 7.98198e-11
2041 54 0.001 0.0800031 -8.47278e-18 -0.048 0.00755695 1.34488e-11 0.00261269 0 7.08391e-18
23 21 0.001 -0.1 2.24295e-21 -0.047 0.000116423 9.6623e-15 1.4628e-05 0 1.60571e-14
24 21 0.001 -0.1 -7.33111e-19 -0.046 1.56248e-05 -3.03358e-15 1.93728e-07 0 2.96769e-18
122 22 0.001 -0.0799992 -2.57043e-19 -0.0469999 0.00968787 9.61537e-14 0.00160758 0 1.84554e-13
123 22 0.001 -0.0799993 1.63694e-19 -0.0459999 0.00826487 -5.66251e-14 0.00147346 0 6.18562e-13
356 25 0.001 -0.080785 -5.59896e-19 -0.0460784 -0.00841823 8.43013e-14 -0.000184265 0 6.07814e-13
357 25 0.001 -0.0805891 1.61872e-18 -0.0470588 -0.00995009 8.57624e-13 -0.000356403 0 1.81529e-13
596 29 0.001 -0.060785 1.78682e-18 -0.0460784 -0.00840132 2.346e-14 -0.000180884 0 6.07816e-13
597 29 0.001 -0.0605891 -1.15028e-18 -0.0470588 -0.00989406 -3.17985e-13 -0.000345201 0 1.81532e-13
362 26 0.001 -0.0599992 7.63554e-18 -0.0469999 0.00968787 -3.23344e-13 0.00160756 0 1.84552e-13
363 26 0.001 -0.0599993 5.36634e-19 -0.0459999 0.00826487 1.21945e-13 0.00147347 0 6.18561e-13
836 33 0.001 -0.040785 -9.32295e-19 -0.0460784 -0.00840132 2.55862e-14 -0.000180884 0 6.07816e-13
602 30 0.001 -0.0399992 -2.14791e-18 -0.0469999 0.00968787 -1.46239e-14 0.00160756 0 1.84552e-13
603 30 0.001 -0.0399993 -4.66343e-20 -0.0459999 0.00826487 6.38271e-14 0.00147347 0 6.18561e-13
837 33 0.001 -0.0405891 -1.18017e-18 -0.0470588 -0.00989406 -3.03132e-14 -0.000345201 0 1.81532e-13
842 34 0.001 -0.0199992 -3.81277e-19 -0.0469999 0.00968787 -4.3251e-16 0.00160758 0 1.84555e-13
843 34 0.001 -0.0199993 3.9926e-19 -0.0459999 0.00826487 -5.64767e-14 0.00147346 0 6.18562e-13
1076 37 0.001 -0.020785 -4.51151e-20 -0.0460784 -0.00840845 -3.24922e-13 -0.000182311 0 6.07814e-13
1077 37 0.001 -0.0205891 -3.05707e-18 -0.0470588 -0.0099819 5.8256e-13 -0.000362762 0 1.81527e-13
1316 41 0.001 -0.000785017 2.31905e-19 -0.0460784 -0.00840845 3.29167e-13 -0.000182311 0 6.07814e-13
1317 41 0.001 -0.000589057 2.67154e-18 -0.0470588 -0.0099819 -6.16466e-13 -0.000362762 0 1.81527e-13
1082 38 0.001 8.08369e-07 -3.87969e-18 -0.0469999 0.00968787 1.12992e-13 0.00160758 0 1.84555e-13
1083 38 0.001 6.92501e-07 -2.27946e-19 -0.0459999 0.00826487 -2.60231e-14 0.00147346 0 6.18562e-13
1556 45 0.001 0.019215 -1.20825e-18 -0.0460784 -0.00840845 5.56238e-15 -0.000182311 0 6.07814e-13
1557 45 0.001 0.0194109 -3.57448e-18 -0.0470588 -0.0099819 1.35647e-13 -0.000362762 0 1.81527e-13
1322 42 0.001 0.0200008 -6.20207e-19 -0.0469999 0.00968787 1.20719e-13 0.00160758 0 1.84555e-13
1323 42 0.001 0.0200007 4.37049e-19 -0.0459999 0.00826487 -1.77889e-13 0.00147346 0 6.18562e-13
1562 46 0.001 0.0400008 -2.14791e-18 -0.0469999 0.00968787 -1.46276e-14 0.00160756 0 1.84552e-13
1563 46 0.001 0.0400007 -4.66343e-20 -0.0459999 0.00826487 6.38271e-14 0.00147347 0 6.18561e-13
1796 49 0.001 0.039215 -9.32295e-19 -0.0460784 -0.00840132 2.55862e-14 -0.000180884 0 6.07816e-13
1797 49 0.001 0.0394109 -1.18017e-18 -0.0470588 -0.00989406 -3.03174e-14 -0.000345201 0 1.81532e-13
1802 50 0.001 0.0600008 4.83485e-19 -0.0469999 0.00968787 -9.82363e-14 0.00160758 0 1.84555e-13
1803 50 0.001 0.0600007 -1.86194e-19 -0.0459999 0.00826487 5.38771e-14 0.00147346 0 6.18562e-13
2036 53 0.001 0.059215 -6.42737e-20 -0.0460784 -0.00840896 -4.00297e-13 -0.000182412 0 6.07814e-13
2037 53 0.001 0.0594109 -3.02551e-18 -0.0470588 -0.00998192 -1.34798e-13 -0.000362767 0 1.81527e-13
2276 57 0.001 0.079215 9.10323e-19 -0.0460784 -0.00808501 9.75139e-14 -0.000121465 0 6.14467e-13
2277 57 0.001 0.079411 5.76782e-19 -0.0470588 -0.00906426 -4.103e-12 -0.000123219 0 3.16048e-13
2042 54 0.001 0.0800027 -1.00207e-17 -0.047 0.00645426 -6.96906e-12 0.00261287 0 1.17528e-17
2043 54 0.001 0.0800024 1.06471e-17 -0.046 0.00476484 -3.65453e-14 0.00235515 0 1.7733e-17
25 21 0.001 -0.1 -3.02128e-20 -0.045 -2.71183e-06 1.81427e-16 -1.19127e-08 0 9.12793e-23
124 22 0.001 -0.0799994 9.3157e-20 -0.0449999 0.00657472 -3.95317e-14 0.0012294 0 1.04479e-12
355 25 0.001 -0.080981 2.19184e-20 -0.045098 -0.00669219 -9.86126e-14 -8.61684e-05 0 1.03386e-12
595 29 0.001 -0.060981 -1.4048e-19 -0.045098 -0.00668679 6.07763e-14 -8.50896e-05 0 1.03386e-12
364 26 0.001 -0.0599994 -6.93577e-20 -0.0449999 0.00657472 -1.0449e-13 0.0012294 0 1.04479e-12
835 33 0.001 -0.040981 4.80947e-19 -0.045098 -0.00668679 -1.70679e-14 -8.50896e-05 0 1.03386e-12
604 30 0.001 -0.0399994 4.51793e-19 -0.0449999 0.00657472 -1.10905e-13 0.0012294 0 1.04479e-12
844 34 0.001 -0.0199994 -8.63098e-20 -0.0449999 0.00657472 7.82771e-14 0.0012294 0 1.04478e-12
1075 37 0.001 -0.020981 3.81364e-20 -0.045098 -0.00668499 3.17132e-14 -8.47288e-05 0 1.03386e-12
1315 41 0.001 -0.000980952 1.93376e-19 -0.045098 -0.00668499 -5.29132e-14 -8.47287e-05 0 1.03386e-12
1084 38 0.001 5.50651e-07 1.20391e-19 -0.0449999 0.00657472 2.54222e-16 0.0012294 0 1.04478e-12
1555 45 0.001 0.019019 2.23317e-20 -0.045098 -0.00668499 -2.55774e-14 -8.47288e-05 0 1.03386e-12
1324 42 0.001 0.0200006 -1.87645e-19 -0.0449999 0.00657472 1.1843e-13 0.0012294 0 1.04478e-12
1795 49 0.001 0.039019 4.80947e-19 -0.045098 -0.00668679 -1.70679e-14 -8.50896e-05 0 1.03386e-12
1564 46 0.001 0.0400006 4.51793e-19 -0.0449999 0.00657472 -1.10905e-13 0.0012294 0 1.04479e-12
1804 50 0.001 0.0600006 -2.93546e-19 -0.0449999 0.00657472 4.65903e-14 0.0012294 0 1.04479e-12
2035 53 0.001 0.059019 1.0431e-20 -0.045098 -0.00668564 5.5403e-14 -8.48588e-05 0 1.03386e-12
2275 57 0.001 0.079019 3.65899e-19 -0.045098 -0.00668161 -1.57208e-13 -8.94117e-05 0 1.03379e-12
2044 54 0.001 0.0800019 1.06612e-18 -0.045 0.00397171 3.82741e-13 0.00194755 0 3.03451e-17
26 21 0.001 -0.1 8.20574e-21 -0.044 -1.89474e-07 3.26454e-15 -1.308e-08 0 3.48602e-28
27 21 0.001 -0.1 2.29083e-22 -0.043 3.24547e-08 -3.07069e-17 -1.30823e-08 0 1.44445e-33
353 25 0.001 -0.0813728 1.18725e-17 -0.0431373 -0.00303969 2.93744e-12 4.7167e-05 0 1.17908e-12
125 22 0.001 -0.0799996 -2.37812e-19 -0.0439999 0.0047529 3.79998e-14 0.00094003 0 1.2163e-12
126 22 0.001 -0.0799998 2.18757e-19 -0.0429999 0.00296972 5.14441e-14 0.0006416 0 1.18392e-12
354 25 0.001 -0.0811769 -4.56109e-19 -0.0441176 -0.00484549 -2.25774e-14 -1.05718e-05 0 1.20708e-12
593 29 0.001 -0.0613728 -3.17662e-19 -0.0431373 -0.0030389 8.73017e-15 4.73233e-05 0 1.17908e-12
594 29 0.001 -0.0611769 -1.7598e-20 -0.0441176 -0.00484541 -4.83488e-15 -1.05556e-05 0 1.20708e-12
365 26 0.001 -0.0599996 -1.51899e-19 -0.0439999 0.0047529 1.23712e-13 0.00094003 0 1.2163e-12
366 26 0.001 -0.0599998 8.28017e-20 -0.0429999 0.00296972 -1.04332e-13 0.0006416 0 1.18392e-12
833 33 0.001 -0.0413728 -5.69041e-21 -0.0431373 -0.0030389 -3.34981e-15 4.73233e-05 0 1.17908e-12
834 33 0.001 -0.0411769 -1.01927e-19 -0.0441176 -0.00484541 7.38009e-15 -1.05556e-05 0 1.20708e-12
605 30 0.001 -0.0399996 -3.52655e-19 -0.0439999 0.0047529 1.33595e-13 0.00094003 0 1.2163e-12
606 30 0.001 -0.0399998 8.27526e-20 -0.0429999 0.00296972 -1.06426e-13 0.0006416 0 1.18392e-12
1073 37 0.001 -0.0213728 1.08231e-17 -0.0431373 -0.00304773 2.41073e-12 4.55596e-05 0 1.17908e-12
1074 37 0.001 -0.0211769 -2.03344e-19 -0.0441176 -0.00484149 1.56806e-13 -9.77193e-06 0 1.20708e-12
845 34 0.001 -0.0199996 -2.84204e-19 -0.0439999 0.0047529 -4.16234e-14 0.000940031 0 1.2163e-12
846 34 0.001 -0.0199998 5.01729e-19 -0.0429999 0.00296972 -4.18477e-15 0.0006416 0 1.18392e-12
1313 41 0.001 -0.0013728 1.05313e-17 -0.0431373 -0.00304773 2.41552e-12 4.55596e-05 0 1.17908e-12
1314 41 0.001 -0.00117688 4.50973e-20 -0.0441176 -0.00484149 1.08294e-13 -9.77202e-06 0 1.20708e-12
1085 38 0.001 3.97847e-07 -7.50546e-20 -0.0439999 0.0047529 5.87396e-14 0.000940031 0 1.2163e-12
1086 38 0.001 2.49197e-07 6.89214e-20 -0.0429999 0.00296972 -8.18913e-14 0.0006416 0 1.18392e-12
1553 45 0.001 0.0186272 1.0656e-17 -0.0431373 -0.00304773 2.41729e-12 4.55596e-05 0 1.17908e-12
1554 45 0.001 0.0188231 4.83065e-20 -0.0441176 -0.00484149 1.51827e-13 -9.77194e-06 0 1.20708e-12
1325 42 0.001 0.0200004 -2.51928e-19 -0.0439999 0.0047529 -2.12554e-14 0.000940031 0 1.2163e-12
1326 42 0.001 0.0200002 5.44008e-19 -0.0429999 0.00296972 -1.84182e-14 0.0006416 0 1.18392e-12
1793 49 0.001 0.0386272 -5.69041e-21 -0.0431373 -0.0030389 -3.34981e-15 4.73233e-05 0 1.17908e-12
1794 49 0.001 0.0388231 -1.01927e-19 -0.0441176 -0.00484541 7.38009e-15 -1.05556e-05 0 1.20708e-12
1565 46 0.001 0.0400004 -3.52655e-19 -0.0439999 0.0047529 1.33595e-13 0.00094003 0 1.2163e-12
1566 46 0.001 0.0400002 8.27526e-20 -0.0429999 0.00296972 -1.06426e-13 0.0006416 0 1.18392e-12
2033 53 0.001 0.0586272 -5.95745e-21 -0.0431373 -0.00303892 -1.92849e-15 4.7321e-05 0 1.17908e-12