ITEM: TIMESTEP
0
ITEM: NUMBER OF ATOMS
832
ITEM: BOX BOUNDS ff ff ff
-1.1000000000000000e-01 1.1000000000000000e-01
-6.0000000000000001e-03 6.0000000000000001e-03
-1.4999999999999999e-02 1.4999999999999999e-02
ITEM: ATOMS id type radius x y z fx fy fz c_bendingE c_stretchingE
1 1 0.001 -0.1 0 -0.01 -0.000233487 0 -0.000233463 0 1.72617e-32
21 21 0.001 -0.1 0 -0.00904762 -0.0131632 0 0.0047474 0 2.3698e-33
61 23 0.001 -0.0990476 0 -0.01 0.0047474 0 -0.0131632 0 7.67814e-33
62 23 0.001 -0.0980952 0 -0.01 0.00359191 0 -0.00367999 0 7.67814e-33
101 25 0.001 -0.0993103 0 -0.00931034 0.00404855 0 0.00404846 0 6.68764e-32
63 23 0.001 -0.0971429 0 -0.01 -5.72637e-09 0 0 0 1.47212e-31
64 23 0.001 -0.0961905 0 -0.01 5.72637e-09 0 0 0 1.47212e-31
65 23 0.001 -0.0952381 0 -0.01 -1.90877e-09 0 0 0 7.67814e-33
66 23 0.001 -0.0942857 0 -0.01 0 0 0 0 7.67814e-33
67 23 0.001 -0.0933333 0 -0.01 0 0 0 0 7.67814e-33
68 23 0.001 -0.092381 0 -0.01 1.90877e-09 0 0 0 7.67814e-33
69 23 0.001 -0.0914286 0 -0.01 -5.72637e-09 0 0 0 1.47212e-31
70 23 0.001 -0.0904762 0 -0.01 5.72637e-09 0 0 0 1.47212e-31
71 23 0.001 -0.0895238 0 -0.01 -1.90877e-09 0 0 0 7.67814e-33
72 23 0.001 -0.0885714 0 -0.01 0 0 0 0 7.67814e-33
73 23 0.001 -0.087619 0 -0.01 0 0 0 0 7.67814e-33
74 23 0.001 -0.0866667 0 -0.01 0 0 0 0 7.67814e-33
75 23 0.001 -0.0857143 0 -0.01 0 0 0 0 7.67814e-33
76 23 0.001 -0.0847619 0 -0.01 1.90877e-09 0 0 0 7.67814e-33
77 23 0.001 -0.0838095 0 -0.01 -5.72637e-09 0 0 0 1.47212e-31
78 23 0.001 -0.0828571 0 -0.01 5.72637e-09 0 0 0 1.47212e-31
79 23 0.001 -0.0819048 0 -0.01 -0.000184737 0 0 0 7.67814e-33
3 3 0.001 -0.08 0 -0.01 -4.87526e-05 0 -0.000233463 0 2.11008e-32
41 22 0.001 -0.08 0 -0.00904762 -0.0108173 0 0.00709334 0 2.3698e-33
80 23 0.001 -0.0809524 0 -0.01 -0.00312465 0 -0.00259541 0 7.67814e-33
149 27 0.001 -0.0790476 0 -0.01 0.00493213 0 -0.0131632 0 7.67814e-33
189 29 0.001 -0.0793103 0 -0.00931034 0.00464252 0 0.00429793 0 6.68764e-32
150 27 0.001 -0.0780952 0 -0.01 0.00359191 0 -0.00367999 0 7.67814e-33
151 27 0.001 -0.0771429 0 -0.01 -5.72637e-09 0 0 0 1.47212e-31
152 27 0.001 -0.0761905 0 -0.01 5.72637e-09 0 0 0 1.47212e-31
153 27 0.001 -0.0752381 0 -0.01 -1.90877e-09 0 0 0 7.67814e-33
154 27 0.001 -0.0742857 0 -0.01 0 0 0 0 7.67814e-33
155 27 0.001 -0.0733333 0 -0.01 0 0 0 0 7.67814e-33
156 27 0.001 -0.072381 0 -0.01 0 0 0 0 7.67814e-33
157 27 0.001 -0.0714286 0 -0.01 1.90877e-09 0 0 0 7.67814e-33
158 27 0.001 -0.0704762 0 -0.01 -5.72637e-09 0 0 0 1.47212e-31
159 27 0.001 -0.0695238 0 -0.01 5.72637e-09 0 0 0 1.47212e-31
160 27 0.001 -0.0685714 0 -0.01 -1.90877e-09 0 0 0 7.67814e-33
161 27 0.001 -0.067619 0 -0.01 0 0 0 0 7.67814e-33
162 27 0.001 -0.0666667 0 -0.01 0 0 0 0 7.67814e-33
163 27 0.001 -0.0657143 0 -0.01 1.90877e-09 0 0 0 7.67814e-33
164 27 0.001 -0.0647619 0 -0.01 -5.72637e-09 0 0 0 1.47212e-31
165 27 0.001 -0.0638095 0 -0.01 5.72637e-09 0 0 0 1.47212e-31
166 27 0.001 -0.0628571 0 -0.01 -1.90877e-09 0 0 0 7.67814e-33
167 27 0.001 -0.0619048 0 -0.01 -0.000184735 0 0 0 7.67814e-33
168 27 0.001 -0.0609524 0 -0.01 -0.00312465 0 -0.00259541 0 7.67814e-33
5 5 0.001 -0.06 0 -0.01 -4.87182e-05 0 -0.000233485 0 9.12554e-33
129 26 0.001 -0.06 0 -0.00904762 -0.0108173 0 0.00709334 0 2.3698e-33
237 31 0.001 -0.0590476 0 -0.01 0.00493209 0 -0.0131632 0 2.89115e-32
277 33 0.001 -0.0593103 0 -0.00931034 0.00464244 0 0.00429802 0 7.00003e-33
238 31 0.001 -0.0580952 0 -0.01 0.00359197 0 -0.00367999 0 2.89115e-32
239 31 0.001 -0.0571429 0 -0.01 0 0 0 0 7.67814e-33
240 31 0.001 -0.0561905 0 -0.01 -7.2861e-08 0 0 0 2.89115e-32
241 31 0.001 -0.0552381 0 -0.01 7.2861e-08 0 0 0 2.89115e-32
242 31 0.001 -0.0542857 0 -0.01 -2.4287e-08 0 0 0 7.67814e-33
243 31 0.001 -0.0533333 0 -0.01 2.4287e-08 0 0 0 7.67814e-33
244 31 0.001 -0.052381 0 -0.01 -7.2302e-08 0 0 0 2.89115e-32
245 31 0.001 -0.0514286 0 -0.01 9.54708e-08 0 0 0 2.89115e-32
246 31 0.001 -0.0504762 0 -0.01 -9.54708e-08 0 0 0 2.89115e-32
247 31 0.001 -0.0495238 0 -0.01 7.2302e-08 0 0 0 2.89115e-32
248 31 0.001 -0.0485714 0 -0.01 -2.4287e-08 0 0 0 7.67814e-33
249 31 0.001 -0.047619 0 -0.01 0 0 0 0 7.67814e-33
250 31 0.001 -0.0466667 0 -0.01 2.4287e-08 0 0 0 7.67814e-33
251 31 0.001 -0.0457143 0 -0.01 -7.2302e-08 0 0 0 2.89115e-32
252 31 0.001 -0.0447619 0 -0.01 9.54708e-08 0 0 0 2.89115e-32
253 31 0.001 -0.0438095 0 -0.01 -9.54708e-08 0 0 0 2.89115e-32
254 31 0.001 -0.0428571 0 -0.01 7.2302e-08 0 0 0 2.89115e-32
255 31 0.001 -0.0419048 0 -0.01 -0.000184759 0 0 0 7.67814e-33
256 31 0.001 -0.0409524 0 -0.01 -0.00312465 0 -0.00259541 0 7.67814e-33
7 7 0.001 -0.04 0 -0.01 -4.87182e-05 0 -0.000233485 0 9.12554e-33
217 30 0.001 -0.04 0 -0.00904762 -0.0108173 0 0.00709334 0 2.3698e-33
365 37 0.001 -0.0393103 0 -0.00931034 0.00464244 0 0.00429802 0 7.00003e-33
325 35 0.001 -0.0390476 0 -0.01 0.00493209 0 -0.0131632 0 2.89115e-32
326 35 0.001 -0.0380952 0 -0.01 0.00359197 0 -0.00367999 0 2.89115e-32
327 35 0.001 -0.0371429 0 -0.01 0 0 0 0 7.67814e-33
328 35 0.001 -0.0361905 0 -0.01 -7.2861e-08 0 0 0 2.89115e-32
329 35 0.001 -0.0352381 0 -0.01 7.2861e-08 0 0 0 2.89115e-32
330 35 0.001 -0.0342857 0 -0.01 -2.4287e-08 0 0 0 7.67814e-33
331 35 0.001 -0.0333333 0 -0.01 2.4287e-08 0 0 0 7.67814e-33
332 35 0.001 -0.032381 0 -0.01 -7.2861e-08 0 0 0 2.89115e-32
333 35 0.001 -0.0314286 0 -0.01 1.05858e-07 0 0 0 2.89115e-32
334 35 0.001 -0.0304762 0 -0.01 -1.23838e-07 0 0 0 6.16147e-33
335 35 0.001 -0.0295238 0 -0.01 1.33666e-07 0 0 0 6.16147e-33
336 35 0.001 -0.0285714 0 -0.01 -1.34225e-07 0 0 0 6.16147e-33
337 35 0.001 -0.027619 0 -0.01 1.34225e-07 0 0 0 6.16147e-33
338 35 0.001 -0.0266667 0 -0.01 -1.00669e-07 0 0 0 6.16147e-33
339 35 0.001 -0.0257143 0 -0.01 0 0 0 0 4.6448e-33
340 35 0.001 -0.0247619 0 -0.01 1.00669e-07 0 0 0 6.16147e-33
341 35 0.001 -0.0238095 0 -0.01 -1.34225e-07 0 0 0 6.16147e-33
342 35 0.001 -0.0228571 0 -0.01 1.32317e-07 0 0 0 6.16147e-33
343 35 0.001 -0.0219048 0 -0.01 -0.00018483 0 0 0 6.16147e-33
9 9 0.001 -0.02 0 -0.01 -4.87465e-05 0 -0.000233486 0 2.88423e-32
305 34 0.001 -0.02 0 -0.00904762 -0.0108173 0 0.00709334 0 2.3698e-33
344 35 0.001 -0.0209524 0 -0.01 -0.00312462 0 -0.00259541 0 2.73948e-32
413 39 0.001 -0.0190476 0 -0.01 0.0049322 0 -0.0131632 0 6.16147e-33
414 39 0.001 -0.0180952 0 -0.01 0.00359179 0 -0.00367999 0 6.16147e-33
453 41 0.001 -0.0193103 0 -0.00931034 0.00464245 0 0.00429801 0 1.40001e-33
415 39 0.001 -0.0171429 0 -0.01 1.32317e-07 0 0 0 6.16147e-33
416 39 0.001 -0.0161905 0 -0.01 -9.49428e-08 0 0 0 6.16147e-33
417 39 0.001 -0.0152381 0 -0.01 3.16476e-08 0 0 0 2.3698e-33
418 39 0.001 -0.0142857 0 -0.01 -1.90877e-09 0 0 0 9.47919e-35
419 39 0.001 -0.0133333 0 -0.01 -6.98331e-15 0 0 0 2.3698e-33
420 39 0.001 -0.012381 0 -0.01 6.98331e-15 0 0 0 2.3698e-33
421 39 0.001 -0.0114286 0 -0.01 1.90877e-09 0 0 0 9.47919e-35
422 39 0.001 -0.0104762 0 -0.01 -3.10885e-08 0 0 0 2.3698e-33
423 39 0.001 -0.00952381 0 -0.01 8.32056e-08 0 0 0 6.16147e-33
424 39 0.001 -0.00857143 0 -0.01 -3.10885e-08 0 0 0 3.88647e-33
425 39 0.001 -0.00761905 0 -0.01 -2.29373e-08 0 0 0 9.47919e-35
426 39 0.001 -0.00666667 0 -0.01 -6.98331e-15 0 0 0 2.3698e-33
427 39 0.001 -0.00571429 0 -0.01 6.98331e-15 0 0 0 2.3698e-33
428 39 0.001 -0.0047619 0 -0.01 1.90877e-09 0 0 0 9.47919e-35
429 39 0.001 -0.00380952 0 -0.01 -3.16476e-08 0 0 0 2.3698e-33
430 39 0.001 -0.00285714 0 -0.01 9.3034e-08 0 0 0 6.16147e-33
431 39 0.001 -0.00190476 0 -0.01 -0.000184828 0 0 0 6.16147e-33
432 39 0.001 -0.000952381 0 -0.01 -0.00312462 0 -0.00259541 0 2.73948e-32
11 11 0.001 0 0 -0.01 -4.87261e-05 0 -0.000233487 0 2.55482e-32
393 38 0.001 0 0 -0.00904762 -0.0108173 0 0.00709334 0 2.3698e-33
501 43 0.001 0.000952381 0 -0.01 0.00493211 0 -0.0131632 0 2.3698e-35
541 45 0.001 0.000689655 0 -0.00931034 0.00464243 0 0.00429803 0 8.33062e-34
502 43 0.001 0.00190476 0 -0.01 0.00359193 0 -0.00367999 0 1.1849e-35
503 43 0.001 0.00285714 0 -0.01 -8.74301e-16 0 0 0 4.73959e-35
504 43 0.001 0.00380952 0 -0.01 0 0 0 0 9.47919e-35
505 43 0.001 0.0047619 0 -0.01 1.7486e-15 0 0 0 9.47919e-35
506 43 0.001 0.00571429 0 -0.01 0 0 0 0 9.47919e-35
507 43 0.001 0.00666667 0 -0.01 -3.4972e-15 0 0 0 4.73959e-34
508 43 0.001 0.00761905 0 -0.01 0 0 0 0 8.53127e-34
509 43 0.001 0.00857143 0 -0.01 3.25848e-09 0 0 0 4.73959e-34
510 43 0.001 0.00952381 0 -0.01 -3.10885e-08 0 0 0 2.3698e-33
511 43 0.001 0.0104762 0 -0.01 8.18559e-08 0 0 0 6.16147e-33
512 43 0.001 0.0114286 0 -0.01 -3.10885e-08 0 0 0 3.88647e-33
513 43 0.001 0.012381 0 -0.01 -2.29373e-08 0 0 0 9.47919e-35
514 43 0.001 0.0133333 0 -0.01 -6.98331e-15 0 0 0 2.3698e-33
515 43 0.001 0.0142857 0 -0.01 6.98331e-15 0 0 0 2.3698e-33
516 43 0.001 0.0152381 0 -0.01 1.90877e-09 0 0 0 9.47919e-35
517 43 0.001 0.0161905 0 -0.01 -3.16476e-08 0 0 0 2.3698e-33
518 43 0.001 0.0171429 0 -0.01 9.49428e-08 0 0 0 6.16147e-33
519 43 0.001 0.0180952 0 -0.01 -0.00018485 0 0 0 6.16147e-33
520 43 0.001 0.0190476 0 -0.01 -0.00312458 0 -0.00259541 0 6.16147e-33
13 13 0.001 0.02 0 -0.01 -4.87651e-05 0 -0.000233486 0 7.60887e-33
481 42 0.001 0.02 0 -0.00904762 -0.0108173 0 0.00709334 0 2.3698e-33
589 47 0.001 0.0209524 0 -0.01 0.0049322 0 -0.0131632 0 6.16147e-33
629 49 0.001 0.0206897 0 -0.00931034 0.00464245 0 0.00429801 0 1.40001e-33
590 47 0.001 0.0219048 0 -0.01 0.00359179 0 -0.00367999 0 6.16147e-33
591 47 0.001 0.0228571 0 -0.01 1.34225e-07 0 0 0 6.16147e-33
592 47 0.001 0.0238095 0 -0.01 -1.00669e-07 0 0 0 6.16147e-33
593 47 0.001 0.0247619 0 -0.01 0 0 0 0 4.6448e-33
594 47 0.001 0.0257143 0 -0.01 1.00669e-07 0 0 0 6.16147e-33
595 47 0.001 0.0266667 0 -0.01 -1.00669e-07 0 0 0 6.16147e-33
596 47 0.001 0.027619 0 -0.01 0 0 0 0 4.6448e-33
597 47 0.001 0.0285714 0 -0.01 1.00669e-07 0 0 0 6.16147e-33
598 47 0.001 0.0295238 0 -0.01 -1.00669e-07 0 0 0 6.16147e-33
599 47 0.001 0.0304762 0 -0.01 0 0 0 0 4.6448e-33
600 47 0.001 0.0314286 0 -0.01 6.71127e-08 0 0 0 6.16147e-33
601 47 0.001 0.032381 0 -0.01 -3.35564e-08 0 0 0 7.67814e-33
602 47 0.001 0.0333333 0 -0.01 2.4287e-08 0 0 0 7.67814e-33
603 47 0.001 0.0342857 0 -0.01 -7.2302e-08 0 0 0 2.89115e-32
604 47 0.001 0.0352381 0 -0.01 9.54708e-08 0 0 0 2.89115e-32
605 47 0.001 0.0361905 0 -0.01 -9.54708e-08 0 0 0 2.89115e-32
606 47 0.001 0.0371429 0 -0.01 7.2302e-08 0 0 0 2.89115e-32
607 47 0.001 0.0380952 0 -0.01 -0.000184759 0 0 0 7.67814e-33
608 47 0.001 0.0390476 0 -0.01 -0.00312465 0 -0.00259541 0 7.67814e-33
15 15 0.001 0.04 0 -0.01 -4.87182e-05 0 -0.000233485 0 9.12554e-33
569 46 0.001 0.04 0 -0.00904762 -0.0108173 0 0.00709334 0 2.3698e-33
677 51 0.001 0.0409524 0 -0.01 0.00493209 0 -0.0131632 0 2.89115e-32
678 51 0.001 0.0419048 0 -0.01 0.00359197 0 -0.00367999 0 2.89115e-32
717 53 0.001 0.0406897 0 -0.00931034 0.00464244 0 0.00429802 0 7.00003e-33
679 51 0.001 0.0428571 0 -0.01 0 0 0 0 7.67814e-33
680 51 0.001 0.0438095 0 -0.01 -7.2861e-08 0 0 0 2.89115e-32
681 51 0.001 0.0447619 0 -0.01 7.2861e-08 0 0 0 2.89115e-32
682 51 0.001 0.0457143 0 -0.01 -2.4287e-08 0 0 0 7.67814e-33
683 51 0.001 0.0466667 0 -0.01 2.4287e-08 0 0 0 7.67814e-33
684 51 0.001 0.047619 0 -0.01 -7.2302e-08 0 0 0 2.89115e-32
685 51 0.001 0.0485714 0 -0.01 9.54708e-08 0 0 0 2.89115e-32
686 51 0.001 0.0495238 0 -0.01 -9.54708e-08 0 0 0 2.89115e-32
687 51 0.001 0.0504762 0 -0.01 7.2302e-08 0 0 0 2.89115e-32
688 51 0.001 0.0514286 0 -0.01 -2.4287e-08 0 0 0 7.67814e-33
689 51 0.001 0.052381 0 -0.01 0 0 0 0 7.67814e-33
690 51 0.001 0.0533333 0 -0.01 2.4287e-08 0 0 0 7.67814e-33
691 51 0.001 0.0542857 0 -0.01 -7.2302e-08 0 0 0 2.89115e-32
692 51 0.001 0.0552381 0 -0.01 9.54708e-08 0 0 0 2.89115e-32
693 51 0.001 0.0561905 0 -0.01 -9.54708e-08 0 0 0 2.89115e-32
694 51 0.001 0.0571429 0 -0.01 7.2302e-08 0 0 0 2.89115e-32
695 51 0.001 0.0580952 0 -0.01 -0.000184757 0 0 0 7.67814e-33
17 17 0.001 0.06 0 -0.01 -4.87163e-05 0 -0.000233485 0 1.48659e-31
657 50 0.001 0.06 0 -0.00904762 -0.0108173 0 0.00709334 0 2.3698e-33
696 51 0.001 0.0590476 0 -0.01 -0.00312465 0 -0.00259541 0 1.47212e-31
765 55 0.001 0.0609524 0 -0.01 0.00493209 0 -0.0131632 0 2.89115e-32
805 57 0.001 0.0606897 0 -0.00931034 0.00464244 0 0.00429802 0 7.00003e-33
766 55 0.001 0.0619048 0 -0.01 0.00359195 0 -0.00367999 0 1.04745e-31
767 55 0.001 0.0628571 0 -0.01 -4.60827e-09 0 0 0 2.23045e-31
768 55 0.001 0.0638095 0 -0.01 5.16731e-09 0 0 0 1.47212e-31
769 55 0.001 0.0647619 0 -0.01 -1.90877e-09 0 0 0 7.67814e-33
770 55 0.001 0.0657143 0 -0.01 0 0 0 0 7.67814e-33
771 55 0.001 0.0666667 0 -0.01 0 0 0 0 7.67814e-33
772 55 0.001 0.067619 0 -0.01 1.90877e-09 0 0 0 7.67814e-33
773 55 0.001 0.0685714 0 -0.01 -5.72637e-09 0 0 0 1.47212e-31
774 55 0.001 0.0695238 0 -0.01 5.72637e-09 0 0 0 1.47212e-31
775 55 0.001 0.0704762 0 -0.01 -1.90877e-09 0 0 0 7.67814e-33
776 55 0.001 0.0714286 0 -0.01 0 0 0 0 7.67814e-33
777 55 0.001 0.072381 0 -0.01 0 0 0 0 7.67814e-33
778 55 0.001 0.0733333 0 -0.01 0 0 0 0 7.67814e-33
779 55 0.001 0.0742857 0 -0.01 0 0 0 0 7.67814e-33
780 55 0.001 0.0752381 0 -0.01 1.90877e-09 0 0 0 7.67814e-33
781 55 0.001 0.0761905 0 -0.01 -5.72637e-09 0 0 0 1.47212e-31
782 55 0.001 0.0771429 0 -0.01 5.72637e-09 0 0 0 1.47212e-31
783 55 0.001 0.0780952 0 -0.01 -0.000184724 0 0 0 7.67814e-33
784 55 0.001 0.0790476 0 -0.01 -0.00234596 0 -0.00234594 0 2.56412e-31
19 19 0.001 0.08 0 -0.01 0.000184747 0 -0.000184735 0 2.5262e-31
745 54 0.001 0.08 0 -0.00904762 0.00234594 0 0.00234594 0 2.3698e-33
22 21 0.001 -0.1 0 -0.00809524 -0.00367999 0 0.00359191 0 2.3698e-33
23 21 0.001 -0.1 0 -0.00714286 0 0 -1.10925e-17 0 9.47919e-35
102 25 0.001 -0.0986207 0 -0.00862069 0.00468882 0 0.00468887 0 6.68764e-32
103 25 0.001 -0.097931 0 -0.00793103 -5.39597e-08 0 5.32777e-08 0 1.89753e-32
104 25 0.001 -0.0972414 0 -0.00724138 9.37648e-08 0 -9.36723e-08 0 4.31919e-32
42 22 0.001 -0.08 0 -0.00809524 -0.00367999 0 0.00359191 0 2.3698e-33
43 22 0.001 -0.08 0 -0.00714286 0 0 -1.10925e-17 0 9.47919e-35
190 29 0.001 -0.0786207 0 -0.00862069 0.00468882 0 0.00468887 0 6.68764e-32
191 29 0.001 -0.077931 0 -0.00793103 -5.39597e-08 0 5.32777e-08 0 1.89753e-32
192 29 0.001 -0.0772414 0 -0.00724138 9.37648e-08 0 -9.36723e-08 0 4.31919e-32
130 26 0.001 -0.06 0 -0.00809524 -0.00367999 0 0.00359191 0 2.3698e-33
131 26 0.001 -0.06 0 -0.00714286 0 0 -1.10925e-17 0 9.47919e-35
278 33 0.001 -0.0586207 0 -0.00862069 0.00468892 0 0.00468878 0 7.00003e-33
279 33 0.001 -0.057931 0 -0.00793103 -8.21834e-08 0 7.81744e-08 0 7.00003e-33
280 33 0.001 -0.0572414 0 -0.00724138 7.58157e-08 0 -7.2809e-08 0 7.00003e-33
218 30 0.001 -0.04 0 -0.00809524 -0.00367999 0 0.00359191 0 2.3698e-33
219 30 0.001 -0.04 0 -0.00714286 0 0 -1.10925e-17 0 9.47919e-35
366 37 0.001 -0.0386207 0 -0.00862069 0.00468892 0 0.00468878 0 7.00003e-33
367 37 0.001 -0.037931 0 -0.00793103 -8.21834e-08 0 7.81744e-08 0 7.00003e-33
368 37 0.001 -0.0372414 0 -0.00724138 7.58157e-08 0 -7.2809e-08 0 7.00003e-33
306 34 0.001 -0.02 0 -0.00809524 -0.00367999 0 0.00359191 0 2.3698e-33
307 34 0.001 -0.02 0 -0.00714286 0 0 -1.10925e-17 0 9.47919e-35
454 41 0.001 -0.0186207 0 -0.00862069 0.0046889 0 0.00468879 0 1.40001e-33
455 41 0.001 -0.017931 0 -0.00793103 -6.37415e-08 0 6.13805e-08 0 1.40001e-33
456 41 0.001 -0.0172414 0 -0.00724138 3.74601e-08 0 -4.24342e-08 0 1.40001e-33
394 38 0.001 0 0 -0.00809524 -0.00367999 0 0.00359191 0 2.3698e-33
395 38 0.001 0 0 -0.00714286 0 0 -1.10925e-17 0 9.47919e-35
542 45 0.001 0.00137931 0 -0.00862069 0.00468893 0 0.00468876 0 8.33062e-34
543 45 0.001 0.00206897 0 -0.00793103 -9.82294e-08 0 9.82294e-08 0 8.33062e-34
544 45 0.001 0.00275862 0 -0.00724138 9.95164e-08 -0.0747006 -9.95164e-08 0 8.33062e-34
482 42 0.001 0.02 0 -0.00809524 -0.00367999 0 0.00359191 0 2.3698e-33
483 42 0.001 0.02 0 -0.00714286 0 0 -1.10925e-17 0 9.47919e-35
630 49 0.001 0.0213793 0 -0.00862069 0.0046889 0 0.00468879 0 1.40001e-33
631 49 0.001 0.022069 0 -0.00793103 -6.37415e-08 0 6.13805e-08 0 1.40001e-33
632 49 0.001 0.0227586 0 -0.00724138 3.74601e-08 0 -4.24342e-08 0 1.40001e-33
570 46 0.001 0.04 0 -0.00809524 -0.00367999 0 0.00359191 0 2.3698e-33
571 46 0.001 0.04 0 -0.00714286 0 0 -1.10925e-17 0 9.47919e-35
718 53 0.001 0.0413793 0 -0.00862069 0.00468892 0 0.00468878 0 7.00003e-33
719 53 0.001 0.042069 0 -0.00793103 -8.21834e-08 0 7.81744e-08 0 7.00003e-33
720 53 0.001 0.0427586 0 -0.00724138 7.58157e-08 0 -7.2809e-08 0 7.00003e-33
658 50 0.001 0.06 0 -0.00809524 -0.00367999 0 0.00359191 0 2.3698e-33
659 50 0.001 0.06 0 -0.00714286 0 0 -1.10925e-17 0 9.47919e-35
806 57 0.001 0.0613793 0 -0.00862069 0.00468892 0 0.00468878 0 7.00003e-33
807 57 0.001 0.062069 0 -0.00793103 -8.65336e-08 0 8.28448e-08 0 7.00003e-33
808 57 0.001 0.0627586 0 -0.00724138 8.97532e-08 0 -8.86585e-08 0 4.31919e-32
746 54 0.001 0.08 0 -0.00809524 0 0 0.000184735 0 2.3698e-33
747 54 0.001 0.08 0 -0.00714286 0 0 -1.10925e-17 0 9.47919e-35
24 21 0.001 -0.1 0 -0.00619048 0 0 -3.4972e-15 0 4.73959e-34
105 25 0.001 -0.0965517 0 -0.00655172 -9.44352e-08 0 8.25231e-08 0 4.6663e-32
106 25 0.001 -0.0958621 0 -0.00586207 9.92385e-08 0 -8.67368e-08 0 2.24464e-32
44 22 0.001 -0.08 0 -0.00619048 0 0 -3.4972e-15 0 4.73959e-34
193 29 0.001 -0.0765517 0 -0.00655172 -9.44352e-08 0 8.25231e-08 0 4.6663e-32
194 29 0.001 -0.0758621 0 -0.00586207 5.01238e-08 0 -3.76221e-08 0 2.24464e-32
132 26 0.001 -0.06 0 -0.00619048 0 0 -3.4972e-15 0 4.73959e-34
281 33 0.001 -0.0565517 0 -0.00655172 -3.4227e-08 0 3.42369e-08 0 4.74382e-33
282 33 0.001 -0.0558621 0 -0.00586207 -3.42111e-08 0 3.42111e-08 0 1.67191e-32
220 30 0.001 -0.04 0 -0.00619048 0 0 -3.4972e-15 0 4.73959e-34
369 37 0.001 -0.0365517 0 -0.00655172 -3.4227e-08 0 3.42369e-08 0 4.74382e-33
370 37 0.001 -0.0358621 0 -0.00586207 -3.42111e-08 0 3.42111e-08 0 1.67191e-32
308 34 0.001 -0.02 0 -0.00619048 0 0 -3.4972e-15 0 4.73959e-34
457 41 0.001 -0.0165517 0 -0.00655172 3.55046e-08 0 -3.05306e-08 0 4.74382e-33
458 41 0.001 -0.0158621 0 -0.00586207 -8.68718e-08 0 7.94451e-08 0 8.94385e-33
396 38 0.001 0 0 -0.00619048 0 0 -3.4972e-15 0 4.73959e-34
545 45 0.001 0.00344828 0 -0.00655172 -7.6246e-08 0.149401 7.6246e-08 0 4.16531e-34
546 45 0.001 0.00413793 0 -0.00586207 3.30709e-09 -0.0747006 -4.83815e-08 0 1.40001e-33
484 42 0.001 0.02 0 -0.00619048 0 0 -3.4972e-15 0 4.73959e-34
633 49 0.001 0.0234483 0 -0.00655172 2.56225e-08 0 -1.96363e-08 0 4.74382e-33
634 49 0.001 0.0241379 0 -0.00586207 -6.25675e-08 0 6.25675e-08 0 1.67191e-32
572 46 0.001 0.04 0 -0.00619048 0 0 -3.4972e-15 0 4.73959e-34
721 53 0.001 0.0434483 0 -0.00655172 -3.4227e-08 0 3.42369e-08 0 4.74382e-33
722 53 0.001 0.0441379 0 -0.00586207 -3.42111e-08 0 3.42111e-08 0 1.67191e-32
660 50 0.001 0.06 0 -0.00619048 0 0 -3.4972e-15 0 4.73959e-34
809 57 0.001 0.0634483 0 -0.00655172 -9.44352e-08 0 8.25231e-08 0 4.6663e-32
810 57 0.001 0.0641379 0 -0.00586207 9.92385e-08 0 -8.67368e-08 0 2.24464e-32
748 54 0.001 0.08 0 -0.00619048 0 0 -3.4972e-15 0 4.73959e-34
25 21 0.001 -0.1 0 -0.0052381 0 0 3.4972e-15 0 4.73959e-34
26 21 0.001 -0.1 0 -0.00428571 0 0 -3.4972e-15 0 4.73959e-34
107 25 0.001 -0.0951724 0 -0.00517241 -9.85879e-08 0 9.78657e-08 0 1.89753e-32
108 25 0.001 -0.0944828 0 -0.00448276 9.444e-08 0 -9.29955e-08 0 5.00763e-32
45 22 0.001 -0.08 0 -0.0052381 0 0 3.4972e-15 0 4.73959e-34
46 22 0.001 -0.08 0 -0.00428571 0 0 -3.4972e-15 0 4.73959e-34
195 29 0.001 -0.0751724 0 -0.00517241 4.61846e-08 -0.00498004 -4.61845e-08 0 6.68764e-32
196 29 0.001 -0.0744828 0 -0.00448276 -6.78118e-08 0.00996008 6.78117e-08 0 6.25722e-32
133 26 0.001 -0.06 0 -0.0052381 0 0 3.4972e-15 0 4.73959e-34
134 26 0.001 -0.06 0 -0.00428571 0 0 -3.4972e-15 0 4.73959e-34
283 33 0.001 -0.0551724 0 -0.00517241 3.95869e-08 0 -4.0599e-08 0 1.9496e-32
284 33 0.001 -0.0544828 0 -0.00448276 2.83564e-08 0 -2.83564e-08 0 9.46451e-33
221 30 0.001 -0.04 0 -0.0052381 0 0 3.4972e-15 0 4.73959e-34
222 30 0.001 -0.04 0 -0.00428571 0 0 -3.4972e-15 0 4.73959e-34
371 37 0.001 -0.0351724 0 -0.00517241 3.95869e-08 0 -4.0599e-08 0 1.9496e-32
372 37 0.001 -0.0344828 0 -0.00448276 2.83564e-08 0 -2.83564e-08 0 9.46451e-33
309 34 0.001 -0.02 0 -0.0052381 0 0 3.4972e-15 0 4.73959e-34
310 34 0.001 -0.02 0 -0.00428571 0 0 -3.4972e-15 0 4.73959e-34
459 41 0.001 -0.0151724 0 -0.00517241 8.7713e-08 0 -6.84348e-08 0 7.00003e-33
460 41 0.001 -0.0144828 0 -0.00448276 -7.44503e-08 0 6.94762e-08 0 1.81654e-33
397 38 0.001 0 0 -0.0052381 0 0 3.4972e-15 0 4.73959e-34
398 38 0.001 0 0 -0.00428571 0 0 -3.4972e-15 0 4.73959e-34
547 45 0.001 0.00482759 0 -0.00517241 3.92016e-08 0 3.92016e-08 0 2.80001e-33
548 45 0.001 0.00551724 0 -0.00448276 -1.66644e-08 0 -1.66644e-08 0 1.40001e-33
485 42 0.001 0.02 0 -0.0052381 0 0 3.4972e-15 0 4.73959e-34
486 42 0.001 0.02 0 -0.00428571 0 0 -3.4972e-15 0 4.73959e-34
635 49 0.001 0.0248276 0 -0.00517241 6.92303e-08 -0.0143265 -7.02423e-08 0 1.9496e-32
636 49 0.001 0.0255172 0 -0.00448276 -4.96436e-08 0.028653 5.22122e-08 0 6.53722e-33
573 46 0.001 0.04 0 -0.0052381 0 0 3.4972e-15 0 4.73959e-34
574 46 0.001 0.04 0 -0.00428571 0 0 -3.4972e-15 0 4.73959e-34
723 53 0.001 0.0448276 0 -0.00517241 3.95869e-08 0 -4.0599e-08 0 1.9496e-32
724 53 0.001 0.0455172 0 -0.00448276 2.83564e-08 0 -2.83564e-08 0 9.46451e-33
661 50 0.001 0.06 0 -0.0052381 0 0 3.4972e-15 0 4.73959e-34
662 50 0.001 0.06 0 -0.00428571 0 0 -3.4972e-15 0 4.73959e-34
811 57 0.001 0.0648276 0 -0.00517241 -9.85879e-08 0 9.78657e-08 0 1.89753e-32
812 57 0.001 0.0655172 0 -0.00448276 9.444e-08 0 -9.29955e-08 0 5.00763e-32
749 54 0.001 0.08 0 -0.0052381 0 0 3.4972e-15 0 4.73959e-34
750 54 0.001 0.08 0 -0.00428571 0 0 -3.4972e-15 0 4.73959e-34
27 21 0.001 -0.1 0 -0.00333333 0 0 3.4972e-15 0 4.73959e-34
28 21 0.001 -0.1 0 -0.00238095 0 0 1.90877e-09 0 9.47919e-35
109 25 0.001 -0.0937931 0 -0.0037931 -9.4798e-08 0 8.21637e-08 0 5.35474e-32
110 25 0.001 -0.0931034 0 -0.00310345 4.98312e-08 0 -3.79191e-08 0 2.24464e-32
111 25 0.001 -0.0924138 0 -0.00241379 4.58953e-08 -0.00406619 -4.58953e-08 0 5.78515e-32
47 22 0.001 -0.08 0 -0.00333333 0 0 3.4972e-15 0 4.73959e-34
48 22 0.001 -0.08 0 -0.00238095 0 0 1.90877e-09 0 9.47919e-35
197 29 0.001 -0.0737931 0 -0.0037931 -1.00644e-08 -0.0937376 -2.61224e-09 0 1.81422e-32
198 29 0.001 -0.0731034 0 -0.00310345 3.32678e-08 0.177515 -2.05912e-08 0 2.24464e-32
199 29 0.001 -0.0724138 0 -0.00241379 4.43191e-08 -0.0928237 -4.43191e-08 0 5.78515e-32
135 26 0.001 -0.06 0 -0.00333333 0 0 3.4972e-15 0 4.73959e-34
136 26 0.001 -0.06 0 -0.00238095 0 0 1.90877e-09 0 9.47919e-35
285 33 0.001 -0.0537931 0 -0.0037931 -6.90749e-08 0 6.78223e-08 0 1.24149e-32
286 33 0.001 -0.0531034 0 -0.00310345 6.35903e-08 0 -6.15503e-08 0 1.04711e-32
287 33 0.001 -0.0524138 0 -0.00241379 -2.69155e-08 -0.00615728 2.72321e-08 0 4.74382e-33
223 30 0.001 -0.04 0 -0.00333333 0 0 3.4972e-15 0 4.73959e-34
224 30 0.001 -0.04 0 -0.00238095 0 0 1.90877e-09 0 9.47919e-35
373 37 0.001 -0.0337931 0 -0.0037931 -6.90749e-08 0 6.78223e-08 0 1.24149e-32
374 37 0.001 -0.0331034 0 -0.00310345 6.35903e-08 0 -6.15503e-08 0 1.04711e-32
375 37 0.001 -0.0324138 0 -0.00241379 -2.82476e-08 0 2.84723e-08 0 4.74382e-33
311 34 0.001 -0.02 0 -0.00333333 0 0 3.4972e-15 0 4.73959e-34
312 34 0.001 -0.02 0 -0.00238095 0 0 1.90877e-09 0 9.47919e-35
461 41 0.001 -0.0137931 0 -0.0037931 7.7299e-08 0 -9.60885e-08 0 8.33062e-34
462 41 0.001 -0.0131034 0 -0.00310345 -1.01986e-07 0 9.00737e-08 0 1.81654e-33
463 41 0.001 -0.0124138 0 -0.00241379 9.59587e-08 -0.0512442 -9.64001e-08 0 1.81654e-33
399 38 0.001 0 0 -0.00333333 0 0 3.4972e-15 0 4.73959e-34
400 38 0.001 0 0 -0.00238095 0 0 1.90877e-09 0 9.47919e-35
549 45 0.001 0.0062069 0 -0.0037931 0 0 0 0 0
550 45 0.001 0.00689655 0 -0.00310345 -5.45443e-08 -0.0724702 -4.3989e-09 0 1.40001e-33
551 45 0.001 0.00758621 0 -0.00241379 9.1879e-08 0.0936963 -5.78257e-08 0 1.81654e-33
487 42 0.001 0.02 0 -0.00333333 0 0 3.4972e-15 0 4.73959e-34
488 42 0.001 0.02 0 -0.00238095 0 0 1.90877e-09 0 9.47919e-35
637 49 0.001 0.0262069 0 -0.0037931 -5.46147e-10 -0.0229414 -4.77889e-10 0 8.33062e-34
638 49 0.001 0.0268966 0 -0.00310345 4.57603e-08 0.0172298 -4.43442e-08 0 1.81654e-33
639 49 0.001 0.0275862 0 -0.00241379 -5.55175e-08 0.0218815 6.12917e-08 0 1.81654e-33
575 46 0.001 0.04 0 -0.00333333 0 0 3.4972e-15 0 4.73959e-34
576 46 0.001 0.04 0 -0.00238095 0 0 1.90877e-09 0 9.47919e-35
725 53 0.001 0.0462069 0 -0.0037931 -6.90749e-08 0 6.78223e-08 0 1.24149e-32
726 53 0.001 0.0468966 0 -0.00310345 6.35903e-08 0 -6.15503e-08 0 1.04711e-32
727 53 0.001 0.0475862 0 -0.00241379 -2.69155e-08 -0.00615728 2.72321e-08 0 4.74382e-33
663 50 0.001 0.06 0 -0.00333333 0 0 3.4972e-15 0 4.73959e-34
664 50 0.001 0.06 0 -0.00238095 0 0 1.90877e-09 0 9.47919e-35
813 57 0.001 0.0662069 0 -0.0037931 -9.4798e-08 0 8.21637e-08 0 5.35474e-32
814 57 0.001 0.0668966 0 -0.00310345 4.98312e-08 0 -3.79191e-08 0 2.24464e-32
815 57 0.001 0.0675862 0 -0.00241379 4.58953e-08 -0.00406619 -4.58953e-08 0 5.78515e-32
751 54 0.001 0.08 0 -0.00333333 0 0 3.4972e-15 0 4.73959e-34
752 54 0.001 0.08 0 -0.00238095 0 0 1.90877e-09 0 9.47919e-35
29 21 0.001 -0.1 0 -0.00142857 0 0 -6.99441e-15 0 2.3698e-33
112 25 0.001 -0.0917241 0 -0.00172414 -6.72333e-08 0.00813237 6.72332e-08 0 5.78515e-32
113 25 0.001 -0.0910345 0 -0.00103448 6.19828e-09 -0.00765944 -5.55403e-09 0 2.67505e-32
49 22 0.001 -0.08 0 -0.00142857 0 0 -6.99441e-15 0 2.3698e-33
200 29 0.001 -0.0717241 0 -0.00172414 -6.72333e-08 0.00813237 6.72332e-08 0 5.78515e-32
201 29 0.001 -0.0710345 0 -0.00103448 6.19828e-09 -0.00765944 -5.55403e-09 0 2.67505e-32
137 26 0.001 -0.06 0 -0.00142857 0 0 -6.99441e-15 0 2.3698e-33
288 33 0.001 -0.0517241 0 -0.00172414 -1.67324e-08 0.0123146 1.67324e-08 0 1.67191e-32
289 33 0.001 -0.0510345 0 -0.00103448 -2.36353e-10 -0.00975053 -2.23356e-10 0 2.67505e-32
225 30 0.001 -0.04 0 -0.00142857 0 0 -6.99441e-15 0 2.3698e-33
376 37 0.001 -0.0317241 0 -0.00172414 -2.86305e-08 0.0107821 3.05598e-08 0 1.67191e-32
377 37 0.001 -0.0310345 0 -0.00103448 2.13506e-08 -0.0215642 -6.87881e-08 0 1.47753e-32
313 34 0.001 -0.02 0 -0.00142857 0 0 -6.99441e-15 0 2.3698e-33
464 41 0.001 -0.0117241 0 -0.00172414 -6.72821e-08 0.102488 7.91941e-08 0 1.81654e-33
465 41 0.001 -0.0110345 0 -0.00103448 8.63575e-09 -0.0512442 -4.07782e-08 0 2.80001e-33
401 38 0.001 0 0 -0.00142857 0 0 -6.99441e-15 0 2.3698e-33
552 45 0.001 0.00827586 0 -0.00172414 -6.82185e-08 0.0300182 8.07548e-08 0 1.81654e-33
553 45 0.001 0.00896552 0 -0.00103448 8.63575e-09 -0.0512442 -4.07782e-08 0 2.80001e-33
489 42 0.001 0.02 0 -0.00142857 0 0 -6.99441e-15 0 2.3698e-33
640 49 0.001 0.0282759 0 -0.00172414 3.9519e-08 -0.0609928 -4.82539e-08 0 1.81654e-33
641 49 0.001 0.0289655 0 -0.00103448 -3.73362e-08 0.0304964 -7.15977e-09 0 2.80001e-33
577 46 0.001 0.04 0 -0.00142857 0 0 -6.99441e-15 0 2.3698e-33
728 53 0.001 0.0482759 0 -0.00172414 -1.67324e-08 0.0123146 1.67324e-08 0 1.67191e-32
729 53 0.001 0.0489655 0 -0.00103448 -2.36353e-10 -0.00975053 -2.23356e-10 0 2.67505e-32
665 50 0.001 0.06 0 -0.00142857 0 0 -6.99441e-15 0 2.3698e-33
816 57 0.001 0.0682759 0 -0.00172414 -6.72333e-08 0.00813237 6.72332e-08 0 5.78515e-32
817 57 0.001 0.0689655 0 -0.00103448 6.19828e-09 -0.00765944 -5.55403e-09 0 2.67505e-32
753 54 0.001 0.08 0 -0.00142857 0 0 -6.99441e-15 0 2.3698e-33
30 21 0.001 -0.1 0 -0.00047619 0 0 -3.49061e-08 0 4.6448e-33
31 21 0.001 -0.1 0 0.00047619 0 0 8.89319e-08 0 6.16147e-33
114 25 0.001 -0.0903448 0 -0.000344828 3.09236e-08 0.00718651 -3.09236e-08 0 8.55855e-32
115 25 0.001 -0.0896552 0 0.000344828 -2.99621e-08 -0.00359325 2.93178e-08 0 8.55855e-32
50 22 0.001 -0.08 0 -0.00047619 0 0 -3.49061e-08 0 4.6448e-33
51 22 0.001 -0.08 0 0.00047619 0 0 8.89319e-08 0 6.16147e-33
202 29 0.001 -0.0703448 0 -0.000344828 3.09236e-08 0.00718651 -3.09236e-08 0 8.55855e-32
203 29 0.001 -0.0696552 0 0.000344828 -2.99621e-08 -0.00359325 2.93178e-08 0 8.55855e-32
138 26 0.001 -0.06 0 -0.00047619 0 0 -3.49061e-08 0 4.6448e-33
139 26 0.001 -0.06 0 0.00047619 0 0 8.89319e-08 0 6.16147e-33
290 33 0.001 -0.0503448 0 -0.000344828 3.09236e-08 0.00718651 -3.09236e-08 0 8.55855e-32
291 33 0.001 -0.0496552 0 0.000344828 -2.99621e-08 -0.00359325 2.93178e-08 0 8.55855e-32
226 30 0.001 -0.04 0 -0.00047619 0 0 -3.49061e-08 0 4.6448e-33
227 30 0.001 -0.04 0 0.00047619 0 0 8.89319e-08 0 6.16147e-33
378 37 0.001 -0.0303448 0 -0.000344828 6.78284e-09 0.0107821 3.77132e-08 0 1.47753e-32
379 37 0.001 -0.0296552 0 0.000344828 -4.87585e-08 -0.0373503 2.93014e-09 0 1.47753e-32
314 34 0.001 -0.02 0 -0.00047619 0 0 -3.49061e-08 0 4.6448e-33
315 34 0.001 -0.02 0 0.00047619 0 0 8.89319e-08 0 6.16147e-33
466 41 0.001 -0.0103448 0 -0.000344828 2.2248e-08 0 2.2248e-08 0 1.47753e-32
467 41 0.001 -0.00965517 0 0.000344828 -4.87585e-08 -0.0373503 2.93014e-09 0 1.47753e-32
402 38 0.001 0 0 -0.00047619 0 0 -3.49061e-08 0 4.6448e-33
403 38 0.001 0 0 0.00047619 0 0 8.89319e-08 0 6.16147e-33
554 45 0.001 0.00965517 0 -0.000344828 2.2248e-08 0 2.2248e-08 0 1.47753e-32
555 45 0.001 0.0103448 0 0.000344828 -4.87585e-08 -0.0373503 2.93014e-09 0 1.47753e-32
490 42 0.001 0.02 0 -0.00047619 0 0 -3.49061e-08 0 4.6448e-33
491 42 0.001 0.02 0 0.00047619 0 0 8.89319e-08 0 6.16147e-33
642 49 0.001 0.0296552 0 -0.000344828 2.2248e-08 0 2.2248e-08 0 1.47753e-32
643 49 0.001 0.0303448 0 0.000344828 -6.78284e-09 0.0215642 -3.77132e-08 0 1.47753e-32
578 46 0.001 0.04 0 -0.00047619 0 0 -3.49061e-08 0 4.6448e-33
579 46 0.001 0.04 0 0.00047619 0 0 8.89319e-08 0 6.16147e-33
730 53 0.001 0.0496552 0 -0.000344828 3.09236e-08 0.00718651 -3.09236e-08 0 8.55855e-32
731 53 0.001 0.0503448 0 0.000344828 -2.99621e-08 -0.00359325 2.93178e-08 0 8.55855e-32
666 50 0.001 0.06 0 -0.00047619 0 0 -3.49061e-08 0 4.6448e-33
667 50 0.001 0.06 0 0.00047619 0 0 8.89319e-08 0 6.16147e-33
818 57 0.001 0.0696552 0 -0.000344828 3.09236e-08 0.00718651 -3.09236e-08 0 8.55855e-32
819 57 0.001 0.0703448 0 0.000344828 -2.99621e-08 -0.00359325 2.93178e-08 0 8.55855e-32
754 54 0.001 0.08 0 -0.00047619 0 0 -3.49061e-08 0 4.6448e-33
755 54 0.001 0.08 0 0.00047619 0 0 8.89319e-08 0 6.16147e-33
32 21 0.001 -0.1 0 0.00142857 0 0 -2.97388e-08 0 3.88647e-33
116 25 0.001 -0.0889655 0 0.00103448 1.41782e-08 0 -1.41782e-08 0 3.68051e-32