ITEM: TIMESTEP
12
ITEM: NUMBER OF ATOMS
2279
ITEM: BOX BOUNDS ff ff ff
-1.1000000000000000e-01 1.1000000000000000e-01
-6.0000000000000001e-03 6.0000000000000001e-03
-5.5000000000000000e-02 5.5000000000000000e-02
ITEM: ATOMS id type radius x y z fx fy fz c_bendingE c_stretchingE
1 1 0.001 -0.1 0 -0.05 0.000712152 2.66291e-15 0.00082051 0 2.52878e-10
21 21 0.001 -0.1 1.134e-18 -0.0489996 0.000233136 2.23126e-15 -0.000885576 0 2.075e-10
219 23 0.001 -0.0990473 -3.74288e-18 -0.0500004 -0.000830739 -8.45863e-13 0.000292108 0 1.80603e-10
220 23 0.001 -0.0980951 -1.13862e-17 -0.0500001 0.000342539 3.41557e-12 -0.00065306 0 6.66061e-11
221 23 0.001 -0.0971428 3.71808e-16 -0.05 0.000244381 1.0379e-10 -0.000155743 0 9.56207e-12
222 23 0.001 -0.0961905 -1.369e-15 -0.05 4.31488e-05 -4.15757e-10 0.000210636 0 1.95468e-13
223 23 0.001 -0.0952381 -1.89079e-14 -0.05 3.53696e-06 -3.91521e-10 8.88159e-06 0 1.0974e-15
224 23 0.001 -0.0942857 1.12441e-13 -0.05 1.69677e-07 6.80112e-09 -1.88404e-05 0 2.38812e-18
225 23 0.001 -0.0933333 3.84473e-13 -0.05 7.14696e-09 -1.71927e-08 8.48143e-07 0 5.49291e-21
226 23 0.001 -0.092381 -2.99085e-12 -0.05 2.33668e-09 -8.02147e-08 8.3715e-07 0 2.56681e-22
227 23 0.001 -0.0914286 -3.60534e-12 -0.05 -1.9096e-10 3.80443e-07 -1.02797e-07 0 3.72834e-22
228 23 0.001 -0.0904762 5.63918e-11 -0.05 -2.28711e-09 -5.23818e-07 -1.296e-08 0 3.2214e-22
229 23 0.001 -0.0895238 7.16122e-12 -0.05 -1.39832e-10 -7.30886e-08 -5.09418e-08 0 3.76883e-22
230 23 0.001 -0.0885714 -1.14131e-10 -0.05 3.176e-09 6.6324e-07 -1.94158e-07 0 3.52289e-22
231 23 0.001 -0.087619 5.08377e-12 -0.05 -2.12796e-10 -1.77738e-07 1.97978e-06 0 4.73327e-22
232 23 0.001 -0.0866667 5.622e-11 -0.05 -8.61376e-09 -6.34036e-07 2.05805e-06 0 4.6389e-21
233 23 0.001 -0.0857143 -1.78534e-13 -0.05 -2.38352e-07 7.18403e-07 -4.62388e-05 0 4.40404e-18
234 23 0.001 -0.0847619 -4.67699e-12 -0.05 -5.68234e-06 -2.18486e-07 2.3059e-05 0 2.73323e-15
235 23 0.001 -0.0838095 1.40018e-13 -0.05 -7.83165e-05 -7.58883e-08 0.000512875 0 6.1299e-13
236 23 0.001 -0.0828572 1.17259e-13 -0.0499999 -0.000520031 3.22087e-08 -0.000361524 0 3.88843e-11
237 23 0.001 -0.081905 -8.38909e-15 -0.0500003 -0.000870652 3.4177e-10 -0.00156933 0 3.75796e-10
3 3 0.001 -0.0800001 8.86115e-16 -0.0500002 -6.69868e-06 3.02503e-11 0.000338769 0 1.29644e-09
120 22 0.001 -0.0799959 2.14641e-18 -0.0489998 0.00259483 7.43772e-13 0.0001968 0 2.91811e-10
238 23 0.001 -0.0809532 -4.17651e-16 -0.0500011 0.00182895 -2.91135e-10 0.000557353 0 9.0476e-10
359 25 0.001 -0.0801998 8.20067e-17 -0.0490202 -0.00290713 -7.05857e-13 -0.000339948 0 2.78556e-10
459 27 0.001 -0.079047 4.47481e-16 -0.0500007 -0.00170206 -1.34785e-10 0.000308783 0 6.93342e-10
460 27 0.001 -0.0780951 -1.81543e-14 -0.0500002 0.000670203 9.62595e-11 -0.00100921 0 2.37949e-10
461 27 0.001 -0.0771428 2.31725e-14 -0.05 0.000422247 1.63608e-09 -0.000223999 0 2.59e-11
462 27 0.001 -0.0761905 1.94204e-13 -0.05 6.46227e-05 -3.64757e-09 0.00033343 0 4.18951e-13
463 27 0.001 -0.0752381 9.47819e-14 -0.05 4.71329e-06 7.58445e-09 1.42542e-05 0 1.9116e-15
464 27 0.001 -0.0742857 -4.43592e-14 -0.05 2.11311e-07 -1.50509e-08 -3.0151e-05 0 3.68678e-18
465 27 0.001 -0.0733333 -1.2244e-12 -0.05 1.06291e-08 1.10867e-08 1.38322e-06 0 7.86763e-21
466 27 0.001 -0.072381 -2.53842e-13 -0.05 -1.38527e-09 8.2039e-09 1.28298e-06 0 1.69886e-22
467 27 0.001 -0.0714286 2.15628e-12 -0.05 -3.20803e-10 -1.28146e-08 -1.30231e-07 0 1.17126e-23
468 27 0.001 -0.0704762 5.66783e-13 -0.05 1.00847e-09 -5.23804e-09 -2.54704e-08 0 7.6625e-23
469 27 0.001 -0.0695238 -1.92854e-12 -0.05 -5.04009e-10 1.26243e-08 -5.3985e-08 0 1.30882e-22
470 27 0.001 -0.0685714 2.09931e-13 -0.05 -1.48108e-09 -4.11597e-09 -1.87271e-07 0 8.9087e-23
471 27 0.001 -0.067619 6.30169e-14 -0.05 -1.08069e-09 -1.61128e-09 2.02878e-06 0 4.36867e-22
472 27 0.001 -0.0666667 2.25049e-14 -0.05 -5.30279e-09 5.32853e-09 1.98141e-06 0 3.91525e-21
473 27 0.001 -0.0657143 2.08799e-13 -0.05 -2.36191e-07 -7.35232e-09 -4.62299e-05 0 4.30846e-18
474 27 0.001 -0.0647619 -6.16564e-14 -0.05 -5.68345e-06 3.99101e-09 2.30828e-05 0 2.73284e-15
475 27 0.001 -0.0638095 -1.47794e-14 -0.05 -7.83099e-05 -7.23196e-10 0.000512979 0 6.12895e-13
476 27 0.001 -0.0628572 5.55272e-15 -0.0499999 -0.000519796 6.67195e-11 -0.000361649 0 3.88582e-11
477 27 0.001 -0.061905 -6.16972e-16 -0.0500003 -0.00086652 5.69861e-11 -0.00157105 0 3.74332e-10
478 27 0.001 -0.0609532 1.47419e-15 -0.0500011 0.00186272 7.04866e-12 0.00056085 0 9.21437e-10
5 5 0.001 -0.06 2.47191e-14 -0.0500002 1.54188e-05 -3.18434e-10 0.000345536 0 1.29574e-09
360 26 0.001 -0.0599959 1.37825e-15 -0.0489998 0.00260658 1.59741e-11 0.000205064 0 2.89521e-10
599 29 0.001 -0.0601997 1.37637e-15 -0.0490202 -0.00285921 2.16337e-11 -0.000328989 0 2.78204e-10
699 31 0.001 -0.059047 -6.55073e-14 -0.0500007 -0.00166833 -4.55505e-09 0.000309938 0 6.78091e-10
700 31 0.001 -0.0580951 4.15654e-13 -0.0500002 0.000674291 4.68276e-08 -0.00101419 0 2.39114e-10
701 31 0.001 -0.0571428 2.91424e-12 -0.05 0.000422483 -1.56544e-07 -8.76594e-05 0 2.59253e-11
702 31 0.001 -0.0561905 -1.7824e-11 -0.05 6.46728e-05 -7.0031e-06 0.000299381 0 4.19487e-13
703 31 0.001 -0.0552381 -8.63401e-12 -0.05 4.49085e-06 1.45433e-05 -0.0023765 0 1.90022e-15
704 31 0.001 -0.0542857 4.94078e-11 -0.0500001 -7.66756e-06 -7.68182e-06 0.00800729 0 8.85482e-17
705 31 0.001 -0.0533333 -9.51978e-12 -0.0499988 1.47867e-06 2.05177e-07 -0.00686023 0 1.64224e-14
706 31 0.001 -0.052381 -2.24653e-11 -0.0499992 9.45797e-06 1.62426e-07 -0.0163402 0 2.52681e-13
707 31 0.001 -0.0514286 4.17386e-12 -0.0500036 4.19023e-09 -1.5425e-07 0.0349172 0 4.7251e-13
708 31 0.001 -0.0504762 -7.64696e-13 -0.0499992 -9.45518e-06 4.14604e-08 -0.0163457 0 2.52507e-13
709 31 0.001 -0.0495238 -1.59574e-12 -0.0499988 -1.44831e-06 4.43885e-08 -0.0068292 0 1.64277e-14
710 31 0.001 -0.0485714 7.27216e-12 -0.0500001 7.83979e-06 -1.40301e-07 0.00798352 0 8.80471e-17
711 31 0.001 -0.047619 -4.71248e-13 -0.05 2.34088e-07 1.54326e-07 -0.00239571 0 2.1199e-19
712 31 0.001 -0.0466667 -1.88925e-12 -0.05 -1.4393e-08 -6.24463e-08 2.6585e-05 0 7.85657e-21
713 31 0.001 -0.0457143 -1.56424e-12 -0.05 -2.37564e-07 2.35409e-08 8.04493e-05 0 4.32338e-18
714 31 0.001 -0.0447619 1.46722e-13 -0.05 -5.67795e-06 -4.89245e-08 4.34855e-06 0 2.7317e-15
715 31 0.001 -0.0438095 -8.94561e-13 -0.05 -7.83141e-05 6.07838e-08 0.000511027 0 6.12898e-13
716 31 0.001 -0.0428572 1.31469e-12 -0.0499999 -0.000519793 -3.5561e-08 -0.000361396 0 3.88581e-11
717 31 0.001 -0.041905 1.9493e-13 -0.0500003 -0.000866522 5.96612e-09 -0.00157107 0 3.74333e-10
718 31 0.001 -0.0409532 -1.71385e-13 -0.0500011 0.00186272 1.37583e-11 0.000560846 0 9.21438e-10
7 7 0.001 -0.04 4.76541e-14 -0.0500002 1.54179e-05 -4.61224e-10 0.000345262 0 1.29574e-09
600 30 0.001 -0.0399959 2.28525e-15 -0.0489998 0.00260658 3.93436e-11 0.00020506 0 2.89521e-10
839 33 0.001 -0.0401997 2.34601e-15 -0.0490202 -0.00285921 3.23766e-11 -0.000328993 0 2.78205e-10
939 35 0.001 -0.039047 4.47582e-15 -0.0500007 -0.00166833 9.02465e-11 0.000312186 0 6.78091e-10
940 35 0.001 -0.0380951 -1.08793e-14 -0.0500002 0.000674289 -1.57405e-10 -0.00101097 0 2.39114e-10
941 35 0.001 -0.0371428 -1.92738e-14 -0.05 0.000422481 5.00483e-10 -0.000224127 0 2.59254e-11
942 35 0.001 -0.0361905 1.08903e-14 -0.05 6.46651e-05 -7.69358e-10 0.000333558 0 4.19484e-13
943 35 0.001 -0.0352381 -1.50832e-14 -0.05 4.73935e-06 -1.42107e-09 1.42522e-05 0 1.8983e-15
944 35 0.001 -0.0342857 3.04965e-14 -0.05 1.9536e-07 5.51065e-09 -3.01588e-05 0 2.997e-18
945 35 0.001 -0.0333333 4.36092e-13 -0.05 7.6514e-09 5.31675e-11 1.36792e-06 0 3.06349e-21
946 35 0.001 -0.032381 -4.95196e-13 -0.05 -2.3005e-09 -6.40789e-08 1.30626e-06 0 3.02845e-23
947 35 0.001 -0.0314286 -3.01244e-12 -0.05 4.45881e-09 2.11199e-07 -1.22396e-07 0 1.91773e-22
948 35 0.001 -0.0304762 2.6066e-11 -0.05 -6.65007e-09 2.06069e-07 -3.74226e-08 0 9.61038e-22
949 35 0.001 -0.0295238 1.34292e-15 -0.05 1.17985e-08 -1.9971e-06 -9.06281e-08 0 2.79215e-21
950 35 0.001 -0.0285714 -3.3885e-10 -0.05 -1.10352e-08 4.05118e-06 -1.50846e-07 0 2.04953e-21
951 35 0.001 -0.027619 8.101e-11 -0.05 4.55475e-09 -2.95688e-06 2.01062e-06 0 3.95724e-22
952 35 0.001 -0.0266667 4.46439e-10 -0.05 -9.11528e-09 2.02909e-06 2.11426e-06 0 2.67818e-21
953 35 0.001 -0.0257143 1.32879e-10 -0.05 -2.37085e-07 -4.92459e-06 -4.64633e-05 0 4.34542e-18
954 35 0.001 -0.0247619 -3.59875e-10 -0.05 -5.68091e-06 6.40749e-06 2.32571e-05 0 2.73394e-15
955 35 0.001 -0.0238095 -2.07297e-11 -0.05 -7.83217e-05 -4.51011e-06 0.000512796 0 6.12987e-13
956 35 0.001 -0.0228572 3.81016e-11 -0.0499999 -0.000520025 1.32676e-06 -0.000361517 0 3.88841e-11
957 35 0.001 -0.021905 -1.09929e-12 -0.0500003 -0.000870628 2.94288e-07 -0.00156934 0 3.75788e-10
9 9 0.001 -0.0200001 2.52993e-13 -0.0500002 -5.48201e-06 1.24491e-09 0.000339056 0 1.29643e-09
840 34 0.001 -0.0199959 2.53979e-15 -0.0489998 0.00259501 3.05319e-10 0.000196895 0 2.91787e-10
958 35 0.001 -0.0209532 -9.56534e-13 -0.0500011 0.00182945 -7.93224e-08 0.000557407 0 9.04973e-10
1079 37 0.001 -0.0201998 2.29836e-15 -0.0490202 -0.00286921 2.77749e-10 -0.000332325 0 2.78548e-10
1179 39 0.001 -0.019047 9.52594e-16 -0.0500007 -0.00170157 2.74117e-10 0.000308822 0 6.93145e-10
1180 39 0.001 -0.0180951 -1.64632e-14 -0.0500002 0.000670226 4.32698e-11 -0.00100924 0 2.37956e-10
1181 39 0.001 -0.0171428 1.32352e-14 -0.05 0.000422253 -3.85434e-10 -0.000224002 0 2.59001e-11
1182 39 0.001 -0.0161905 6.24591e-15 -0.05 6.46177e-05 5.09767e-10 0.000333435 0 4.18937e-13
1183 39 0.001 -0.0152381 1.78424e-14 -0.05 4.71298e-06 6.51519e-11 1.42548e-05 0 1.9118e-15
1184 39 0.001 -0.0142857 -4.40416e-14 -0.05 2.1195e-07 -3.54088e-09 -3.01473e-05 0 3.77771e-18
1185 39 0.001 -0.0133333 -1.71917e-13 -0.05 1.12854e-08 1.07353e-08 1.35226e-06 0 9.64406e-21
1186 39 0.001 -0.012381 1.48787e-12 -0.05 8.00465e-10 3.38759e-08 1.297e-06 0 1.36898e-22
1187 39 0.001 -0.0114286 1.36126e-12 -0.05 3.84539e-09 -1.78547e-07 -8.1443e-08 0 7.09916e-22
1188 39 0.001 -0.0104762 -2.59096e-11 -0.05 2.14224e-09 2.46921e-07 -5.9274e-08 0 3.58826e-21
1189 39 0.001 -0.00952381 -3.36247e-12 -0.05 -6.47995e-09 3.52441e-08 -6.08544e-08 0 3.28847e-21
1190 39 0.001 -0.00857143 5.25401e-11 -0.05 -3.36314e-09 -3.10364e-07 -1.97949e-07 0 9.96121e-22
1191 39 0.001 -0.00761905 -1.58409e-12 -0.05 4.97677e-10 7.9596e-08 2.01969e-06 0 1.21868e-21
1192 39 0.001 -0.00666667 -2.64538e-11 -0.05 -2.16194e-09 3.01893e-07 2.03195e-06 0 1.50284e-21
1193 39 0.001 -0.00571429 4.97727e-14 -0.05 -2.394e-07 -3.39978e-07 -4.62389e-05 0 4.35278e-18
1194 39 0.001 -0.0047619 2.18003e-12 -0.05 -5.68346e-06 1.03503e-07 2.30565e-05 0 2.73321e-15
1195 39 0.001 -0.00380953 -6.33376e-14 -0.05 -7.8319e-05 3.53291e-08 0.000512881 0 6.13004e-13
1196 39 0.001 -0.00285717 -5.51029e-14 -0.0499999 -0.000520027 -1.49733e-08 -0.000361525 0 3.88842e-11
1197 39 0.001 -0.00190498 3.95967e-15 -0.0500003 -0.000870625 -1.67336e-10 -0.00156936 0 3.75788e-10
1198 39 0.001 -0.000953181 2.08942e-16 -0.0500011 0.00182945 1.38478e-10 0.000557408 0 9.04976e-10
1319 41 0.001 -0.000199756 3.30721e-17 -0.0490202 -0.00286921 5.15126e-13 -0.000332326 0 2.78549e-10
11 11 0.001 -5.03379e-08 5.87092e-16 -0.0500002 -5.47945e-06 1.62525e-11 0.000339057 0 1.29644e-09
1080 38 0.001 4.08523e-06 2.03274e-17 -0.0489998 0.00259502 5.43723e-13 0.000196895 0 2.91787e-10
1419 43 0.001 0.000953021 -4.95505e-15 -0.0500007 -0.00170159 -1.26853e-09 0.00030882 0 6.93148e-10
1420 43 0.001 0.00190494 1.0783e-14 -0.0500002 0.000670195 7.7534e-09 -0.00100928 0 2.37955e-10
1421 43 0.001 0.00285716 5.27604e-13 -0.05 0.000422247 2.48247e-08 -0.000223694 0 2.59041e-11
1422 43 0.001 0.00380953 -2.63517e-12 -0.05 6.46579e-05 -2.07076e-07 0.000333917 0 4.19403e-13
1423 43 0.001 0.0047619 -1.14527e-11 -0.05 4.73811e-06 5.72977e-07 -3.82454e-06 0 1.89909e-15
1424 43 0.001 0.00571429 7.41855e-11 -0.05 1.99426e-07 2.37166e-06 -3.05141e-05 0 3.00073e-18
1425 43 0.001 0.00666667 4.05744e-11 -0.05 -2.59807e-09 -6.7667e-06 0.000379383 0 8.84642e-22
1426 43 0.001 0.00761905 -2.01062e-10 -0.05 -2.01126e-07 5.07016e-06 -0.00126816 0 7.12002e-20
1427 43 0.001 0.00857143 4.62957e-11 -0.0500002 3.38116e-08 -1.00695e-06 0.00108602 0 1.07569e-17
1428 43 0.001 0.00952381 5.90855e-11 -0.0500001 2.47278e-07 -4.05714e-07 0.00259927 0 1.62364e-16
1429 43 0.001 0.0104762 -9.151e-12 -0.0499994 -9.79371e-11 6.24252e-07 -0.00555268 0 3.02936e-16
1430 43 0.001 0.0114286 3.66204e-11 -0.0500001 -2.38532e-07 -3.24859e-07 0.00259906 0 1.61575e-16
1431 43 0.001 0.012381 3.05828e-11 -0.0500002 -4.15308e-08 -6.40882e-07 0.00108811 0 1.03801e-17
1432 43 0.001 0.0133333 -1.25055e-10 -0.05 1.94855e-07 4.27633e-06 -0.00127147 0 6.66456e-20
1433 43 0.001 0.0142857 2.61805e-11 -0.05 -2.33642e-07 -6.4793e-06 0.000342856 0 4.36466e-18
1434 43 0.001 0.0152381 3.88233e-11 -0.05 -5.68286e-06 2.47317e-06 1.33657e-05 0 2.73395e-15
1435 43 0.001 0.0161905 -2.47925e-12 -0.05 -7.83191e-05 7.29144e-07 0.000496783 0 6.13006e-13
1436 43 0.001 0.0171428 -1.16489e-12 -0.0499999 -0.000520026 -3.17223e-07 -0.000360399 0 3.88842e-11
1437 43 0.001 0.018095 1.44775e-13 -0.0500003 -0.000870627 -3.50244e-09 -0.0015693 0 3.75788e-10
1438 43 0.001 0.0190468 -2.70941e-14 -0.0500011 0.00182944 3.45543e-09 0.000557385 0 9.04971e-10
13 13 0.001 0.0199999 3.22016e-16 -0.0500002 -5.48022e-06 -2.59628e-10 0.000339057 0 1.29642e-09
1320 42 0.001 0.0200041 3.52294e-16 -0.0489998 0.00259501 -2.99751e-12 0.000196895 0 2.91787e-10
1559 45 0.001 0.0198002 2.65757e-16 -0.0490202 -0.00286921 -2.49175e-12 -0.000332325 0 2.78548e-10
1659 47 0.001 0.020953 3.55796e-16 -0.0500007 -0.00170151 -3.90128e-12 0.000308822 0 6.93132e-10
1660 47 0.001 0.0219049 -1.47579e-16 -0.0500002 0.000670155 3.3612e-12 -0.00100924 0 2.37943e-10
1661 47 0.001 0.0228572 -6.02952e-17 -0.05 0.000422251 6.74019e-15 -0.000223999 0 2.58978e-11
1662 47 0.001 0.0238095 2.74668e-17 -0.05 6.45872e-05 -1.65673e-12 0.000333433 0 4.1985e-13
1663 47 0.001 0.0247619 3.95266e-18 -0.05 4.79458e-06 7.64283e-13 1.42527e-05 0 1.92539e-15
1664 47 0.001 0.0257143 -1.36923e-18 -0.05 1.91987e-07 2.13487e-14 -3.01492e-05 0 2.61883e-18
1665 47 0.001 0.0266667 -1.73779e-19 -0.05 2.59786e-09 -2.41014e-14 1.3856e-06 0 2.76867e-21
1666 47 0.001 0.027619 5.42274e-20 -0.05 -1.82874e-10 -1.13109e-15 1.26765e-06 0 4.76866e-22
1667 47 0.001 0.0285714 -9.09091e-21 -0.05 -1.6297e-09 1.73805e-15 -1.08157e-07 0 2.4838e-21
1668 47 0.001 0.0295238 8.57646e-22 -0.05 2.74907e-09 -1.21963e-16 -4.02553e-08 0 3.07698e-21
1669 47 0.001 0.0304762 3.06199e-22 -0.05 -8.28936e-10 -3.62749e-17 -3.96257e-08 0 8.84282e-22
1670 47 0.001 0.0314286 -4.30592e-21 -0.05 4.27641e-10 -7.8978e-16 -2.095e-07 0 1.55815e-23
1671 47 0.001 0.032381 2.30054e-20 -0.05 -1.19006e-09 3.41706e-15 2.01245e-06 0 2.89492e-23
1672 47 0.001 0.0333333 2.01979e-19 -0.05 -3.80485e-09 -1.42084e-14 2.04354e-06 0 2.22105e-21
1673 47 0.001 0.0342857 -1.05471e-18 -0.05 -2.40851e-07 -1.28344e-14 -4.6254e-05 0 4.35213e-18
1674 47 0.001 0.0352381 2.59548e-18 -0.05 -5.68015e-06 1.70392e-12 2.30576e-05 0 2.73321e-15
1675 47 0.001 0.0361905 2.66392e-17 -0.05 -7.83131e-05 -2.21354e-12 0.000512999 0 6.12902e-13
1676 47 0.001 0.0371428 -9.3706e-17 -0.0499999 -0.000519793 -3.44198e-12 -0.000361653 0 3.88581e-11
1677 47 0.001 0.038095 -6.88453e-16 -0.0500003 -0.000866522 -5.62232e-13 -0.00157105 0 3.74333e-10
1678 47 0.001 0.0390468 1.5441e-15 -0.0500011 0.00186272 1.19698e-11 0.000560847 0 9.21438e-10
15 15 0.001 0.04 1.99821e-14 -0.0500002 1.54179e-05 -4.54755e-11 0.000345262 0 1.29574e-09
1560 46 0.001 0.0400041 1.24188e-15 -0.0489998 0.00260658 1.17136e-11 0.00020506 0 2.89521e-10
1799 49 0.001 0.0398003 1.28106e-15 -0.0490202 -0.00285921 1.07558e-11 -0.000328993 0 2.78205e-10
1899 51 0.001 0.040953 3.21923e-15 -0.0500007 -0.00166833 6.60109e-11 0.000312186 0 6.78091e-10
1900 51 0.001 0.0419049 -1.01944e-14 -0.0500002 0.000674289 -1.49049e-10 -0.00101097 0 2.39114e-10
1901 51 0.001 0.0428572 -1.9701e-14 -0.05 0.000422481 3.70439e-10 -0.000224127 0 2.59254e-11
1902 51 0.001 0.0438095 1.09452e-14 -0.05 6.4665e-05 -3.9216e-10 0.000333557 0 4.19484e-13
1903 51 0.001 0.0447619 7.60657e-15 -0.05 4.7388e-06 -3.07209e-10 1.42542e-05 0 1.89843e-15
1904 51 0.001 0.0457143 -1.24124e-14 -0.05 1.96152e-07 7.14674e-10 -3.01614e-05 0 3.02158e-18
1905 51 0.001 0.0466667 4.62573e-14 -0.05 1.11478e-08 1.89905e-09 1.36969e-06 0 5.14558e-21
1906 51 0.001 0.047619 2.08547e-13 -0.05 -3.76373e-09 -6.53446e-09 1.30059e-06 0 1.40851e-21
1907 51 0.001 0.0485714 -2.93907e-13 -0.05 -9.71904e-10 9.66182e-09 -1.1855e-07 0 6.94679e-22
1908 51 0.001 0.0495238 1.335e-14 -0.05 -3.08727e-09 -1.25578e-08 -4.79949e-08 0 5.62597e-22
1909 51 0.001 0.0504762 -1.20537e-13 -0.05 4.15294e-09 1.23945e-08 -2.46879e-08 0 1.4705e-22
1910 51 0.001 0.0514286 1.72485e-13 -0.05 -1.03015e-09 -6.74581e-09 -2.28103e-07 0 1.30934e-22
1911 51 0.001 0.052381 -1.22982e-14 -0.05 -1.90883e-09 2.2936e-09 2.01543e-06 0 2.16564e-22
1912 51 0.001 0.0533333 -2.12637e-15 -0.05 -4.93027e-09 -7.06984e-10 2.05036e-06 0 4.73121e-21
1913 51 0.001 0.0542857 -2.40444e-17 -0.05 -2.39298e-07 8.67942e-12 -4.62521e-05 0 4.33555e-18
1914 51 0.001 0.0552381 3.21632e-17 -0.05 -5.679e-06 1.00587e-11 2.3045e-05 0 2.73245e-15
1915 51 0.001 0.0561905 -3.62214e-17 -0.05 -7.83212e-05 -1.08479e-12 0.000512981 0 6.13e-13
1916 51 0.001 0.0571428 -4.80795e-17 -0.0499999 -0.000520027 2.64086e-12 -0.000361795 0 3.88841e-11
1917 51 0.001 0.058095 1.42413e-15 -0.0500003 -0.000870621 9.27761e-11 -0.00156934 0 3.75787e-10
17 17 0.001 0.0599999 -1.46152e-13 -0.0500002 -6.03818e-06 2.46025e-09 1.1452e-05 0 1.29536e-09
1800 50 0.001 0.0600041 -2.26204e-15 -0.0489998 0.0025954 -1.60869e-10 0.000197943 0 2.91067e-10
1918 51 0.001 0.0590468 -2.57089e-15 -0.0500011 0.00182972 -1.85839e-10 0.000557878 0 9.05083e-10
2039 53 0.001 0.0598002 -2.06469e-15 -0.0490202 -0.00286901 -1.47344e-10 -0.000331284 0 2.77879e-10
2139 55 0.001 0.060953 1.47852e-12 -0.0500008 -0.00169632 2.11777e-08 -0.00447767 0 6.93024e-10
2140 55 0.001 0.0619049 -3.70636e-13 -0.0499998 0.000628538 -8.43174e-08 0.0377273 0 2.34757e-10
2141 55 0.001 0.0628572 -1.1744e-11 -0.0499978 0.00118943 5.63892e-08 -0.010114 0 2.3151e-11
2142 55 0.001 0.0638093 -3.11137e-12 -0.050017 -0.00584947 -9.40922e-08 -0.463067 0 5.00489e-09
2143 55 0.001 0.0647636 2.23417e-11 -0.0500443 -0.130444 4.86362e-06 1.19989 0 1.77626e-07
2144 55 0.001 0.0656796 1.28134e-10 -0.0497395 0.614454 -3.87702e-06 -0.387006 0 3.51268e-05
2145 55 0.001 0.0667651 -3.12255e-10 -0.0493958 0.299336 -3.24374e-05 -5.75097 0 0.00207483
2146 55 0.001 0.067619 -6.14707e-09 -0.0516119 9.38257e-05 0.00027203 10.7557 0 0.00407991
2147 55 0.001 0.068473 1.02896e-07 -0.0493957 -0.299344 0.00311137 -5.75042 0 0.00207497
2148 55 0.001 0.0695584 1.04584e-07 -0.0497393 -0.615246 -0.00875997 -0.390468 0 3.51074e-05
2149 55 0.001 0.0704745 -3.76721e-07 -0.0500448 0.131024 0.0073183 1.2051 0 1.83052e-07
2150 55 0.001 0.0714288 1.76439e-08 -0.050017 0.00603676 -0.00185196 -0.465758 0 5.26818e-09
2151 55 0.001 0.0723809 1.82044e-07 -0.0499976 -0.000761623 -0.0011881 -0.0105807 0 3.08403e-13
2152 55 0.001 0.0733333 -1.33649e-08 -0.0499996 4.04837e-05 0.00160906 0.038986 0 8.81821e-14
2153 55 0.001 0.0742857 -1.24721e-08 -0.0500001 -2.58279e-06 -0.000425833 -0.00390319 0 2.41033e-17
2154 55 0.001 0.0752381 1.4982e-09 -0.05 -1.14411e-05 -9.04553e-05 -0.00105356 0 1.0884e-14
2155 55 0.001 0.0761905 2.63212e-10 -0.05 -0.000166687 3.89279e-05 0.000149439 0 2.73031e-12
2156 55 0.001 0.0771428 -4.7763e-11 -0.05 -0.000980241 -5.02039e-07 5.23316e-06 0 1.49766e-10
2157 55 0.001 0.0780948 -8.30637e-13 -0.05 -0.000340572 -1.41028e-06 1.62046e-06 0 7.76086e-10
2158 55 0.001 0.0790464 1.07296e-12 -0.05 0.000237184 9.59768e-08 -0.00550326 0 7.10982e-10
2279 57 0.001 0.0797974 -5.59394e-16 -0.0490196 0.00117907 -8.87266e-11 -0.00775115 0 1.33648e-09
19 19 0.001 0.0799991 -9.45803e-14 -0.05 0.000720385 -7.06105e-10 0.00348915 0 1.25289e-09
2040 54 0.001 0.0800116 -6.1791e-16 -0.049 -0.00125768 -1.15627e-10 -0.0020848 0 5.85056e-12
22 21 0.001 -0.1 2.85468e-18 -0.0479999 -0.000643567 -9.26314e-15 0.000435802 0 8.33178e-11
121 22 0.001 -0.0799957 -1.95849e-18 -0.0479994 0.00575758 1.34016e-13 -1.38041e-05 0 1.67217e-10
358 25 0.001 -0.0803963 -1.31181e-16 -0.0480395 -0.00481372 2.71205e-12 -0.000970362 0 1.64902e-10
598 29 0.001 -0.0603964 -6.73719e-16 -0.0480395 -0.00510048 -1.09543e-11 -0.0010278 0 1.64903e-10
361 26 0.001 -0.0599957 -7.19102e-16 -0.0479994 0.00575296 -2.4097e-12 -1.28993e-05 0 1.67002e-10
601 30 0.001 -0.0399957 -1.06231e-15 -0.0479994 0.00575296 -1.79614e-11 -1.28993e-05 0 1.67002e-10
838 33 0.001 -0.0403964 -1.12991e-15 -0.0480395 -0.00510048 -6.4066e-12 -0.0010278 0 1.64903e-10
841 34 0.001 -0.0199957 -1.38354e-15 -0.0479994 0.00575751 -1.63546e-10 -1.37672e-05 0 1.67217e-10
1078 37 0.001 -0.0203963 -8.23169e-16 -0.0480395 -0.00482152 -1.0114e-10 -0.000971944 0 1.649e-10
1318 41 0.001 -0.000396344 -3.17182e-17 -0.0480395 -0.00482152 -1.84411e-13 -0.000971944 0 1.649e-10
1081 38 0.001 4.27699e-06 -3.12414e-17 -0.0479994 0.00575751 -1.57457e-13 -1.37672e-05 0 1.67217e-10
1321 42 0.001 0.0200043 -2.08321e-16 -0.0479994 0.00575751 2.63158e-12 -1.37672e-05 0 1.67217e-10
1558 45 0.001 0.0196037 -6.43612e-17 -0.0480395 -0.00482152 3.08673e-12 -0.000971943 0 1.649e-10
1561 46 0.001 0.0400043 -5.3209e-16 -0.0479994 0.00575296 -1.84039e-12 -1.28993e-05 0 1.67002e-10
1798 49 0.001 0.0396036 -5.80144e-16 -0.0480395 -0.00510048 8.61098e-13 -0.0010278 0 1.64903e-10
1801 50 0.001 0.0600043 1.35593e-15 -0.0479994 0.00575748 7.60379e-11 -1.32878e-05 0 1.67112e-10
2038 53 0.001 0.0596037 8.8677e-16 -0.0480395 -0.00482156 4.78221e-11 -0.000971473 0 1.64799e-10
2278 57 0.001 0.0796028 2.05612e-16 -0.0480394 -0.00577507 -8.66051e-13 -0.0001048 0 2.041e-10
2041 54 0.001 0.0800134 2.09975e-16 -0.048 -0.000439422 5.67896e-11 0.00258229 0 3.97852e-15
23 21 0.001 -0.1 1.15926e-18 -0.047 -7.82335e-05 -3.40158e-14 0.000203773 0 5.38157e-12
24 21 0.001 -0.1 -2.94448e-18 -0.046 0.000174712 7.12389e-14 2.30395e-05 0 5.05849e-14
122 22 0.001 -0.0799962 6.36612e-18 -0.0469994 0.00528074 -5.94248e-13 0.000457815 0 7.67528e-12
123 22 0.001 -0.0799967 -5.1642e-18 -0.0459994 0.00402333 4.27532e-13 0.000607956 0 1.17846e-11
356 25 0.001 -0.0807876 1.98782e-19 -0.0460785 -0.00426382 3.75445e-14 -0.000234759 0 1.15631e-11
357 25 0.001 -0.0805921 5.84526e-17 -0.047059 -0.00520476 -2.14713e-12 -0.000576795 0 7.69464e-12
596 29 0.001 -0.0607876 2.74246e-17 -0.0460785 -0.00417307 2.85977e-13 -0.000216653 0 1.15638e-11
597 29 0.001 -0.0605921 -5.54139e-17 -0.047059 -0.00520618 -4.43888e-13 -0.000577069 0 7.69777e-12
362 26 0.001 -0.0599962 -3.18833e-17 -0.0469994 0.00527965 -4.15957e-12 0.000457684 0 7.67165e-12
363 26 0.001 -0.0599967 4.06629e-17 -0.0459994 0.00402351 -2.84264e-14 0.000607978 0 1.1784e-11
836 33 0.001 -0.0407876 2.68701e-17 -0.0460785 -0.00417307 1.12927e-12 -0.000216653 0 1.15638e-11
602 30 0.001 -0.0399962 -7.23641e-17 -0.0469994 0.00527965 -2.24663e-12 0.000457684 0 7.67165e-12
603 30 0.001 -0.0399967 1.28687e-17 -0.0459994 0.00402351 7.55206e-13 0.000607978 0 1.1784e-11
837 33 0.001 -0.0405921 -6.02658e-17 -0.047059 -0.00520618 -7.95435e-12 -0.000577069 0 7.69777e-12
842 34 0.001 -0.0199962 5.41742e-17 -0.0469994 0.00528067 3.89077e-12 0.000457818 0 7.6753e-12
843 34 0.001 -0.0199967 1.88973e-17 -0.0459994 0.00402334 3.27551e-12 0.000607915 0 1.17845e-11
1076 37 0.001 -0.0207876 1.31878e-17 -0.0460785 -0.00426903 -4.82626e-13 -0.000235804 0 1.15626e-11
1077 37 0.001 -0.0205921 -2.35364e-16 -0.047059 -0.00527059 -2.4083e-11 -0.000589927 0 7.69408e-12
1316 41 0.001 -0.000787628 1.64116e-17 -0.0460785 -0.00426903 -2.94264e-13 -0.000235804 0 1.15626e-11
1317 41 0.001 -0.000592143 -2.08231e-17 -0.047059 -0.00527059 2.00347e-13 -0.000589927 0 7.69408e-12
1082 38 0.001 3.82192e-06 -1.37296e-18 -0.0469994 0.00528067 1.2255e-13 0.000457818 0 7.6753e-12
1083 38 0.001 3.25571e-06 1.57749e-17 -0.0459994 0.00402334 -2.44302e-13 0.000607915 0 1.17845e-11
1556 45 0.001 0.0192124 -1.38211e-17 -0.0460785 -0.00426903 1.59088e-12 -0.000235804 0 1.15626e-11
1557 45 0.001 0.0194079 -3.10682e-17 -0.047059 -0.00527059 -2.85605e-12 -0.000589927 0 7.69408e-12
1322 42 0.001 0.0200038 -9.12028e-18 -0.0469994 0.00528067 -6.84448e-13 0.000457818 0 7.6753e-12
1323 42 0.001 0.0200033 2.43626e-17 -0.0459994 0.00402334 -1.29077e-13 0.000607915 0 1.17845e-11
1562 46 0.001 0.0400038 -7.31435e-17 -0.0469994 0.00527965 -3.09891e-12 0.000457684 0 7.67165e-12
1563 46 0.001 0.0400033 7.7667e-18 -0.0459994 0.00402351 1.7297e-13 0.000607978 0 1.1784e-11
1796 49 0.001 0.0392124 1.90885e-17 -0.0460785 -0.00417307 1.82696e-12 -0.000216653 0 1.15638e-11
1797 49 0.001 0.0394079 -6.50448e-17 -0.047059 -0.00520618 -6.40824e-12 -0.000577069 0 7.69777e-12
1802 50 0.001 0.0600038 -1.47344e-16 -0.0469994 0.00528067 6.37906e-12 0.000457824 0 7.67509e-12
1803 50 0.001 0.0600033 -1.39599e-17 -0.0459994 0.00402333 -3.64368e-12 0.000607916 0 1.17845e-11
2036 53 0.001 0.0592124 -2.50518e-17 -0.0460785 -0.00427066 -2.0863e-13 -0.000236129 0 1.15627e-11
2037 53 0.001 0.0594079 1.24705e-16 -0.047059 -0.00527076 1.72177e-11 -0.000589956 0 7.69388e-12
2276 57 0.001 0.0792125 -5.91316e-18 -0.0460785 -0.0033948 -7.20905e-13 9.78783e-06 0 1.53202e-11
2277 57 0.001 0.079408 -8.66319e-17 -0.0470589 -0.00685087 3.03075e-11 -0.000211836 0 3.87892e-11
2042 54 0.001 0.0800118 4.5948e-16 -0.047 0.0023435 -1.60925e-12 0.00259486 0 6.33188e-15
2043 54 0.001 0.0800097 -4.72945e-17 -0.046 0.00215517 4.52817e-13 0.00233231 0 9.09628e-15
25 21 0.001 -0.1 -1.99147e-19 -0.045 -6.2625e-07 -3.11856e-14 1.20092e-06 0 1.21067e-16
124 22 0.001 -0.0799974 -3.64078e-19 -0.0449995 0.00317894 -3.70027e-13 0.000555129 0 2.17464e-11
355 25 0.001 -0.080983 -1.76507e-17 -0.0450981 -0.00326683 1.4771e-12 -8.82608e-05 0 2.15081e-11
595 29 0.001 -0.060983 6.25153e-18 -0.0450981 -0.00323232 1.13093e-13 -8.13773e-05 0 2.15087e-11
364 26 0.001 -0.0599974 2.24205e-19 -0.0449995 0.00317899 5.13836e-13 0.000555158 0 2.17467e-11
835 33 0.001 -0.040983 -1.71826e-18 -0.0450981 -0.00323232 2.66173e-13 -8.13773e-05 0 2.15087e-11
604 30 0.001 -0.0399974 2.37579e-18 -0.0449995 0.00317899 3.00693e-13 0.000555158 0 2.17467e-11
844 34 0.001 -0.0199974 5.80156e-19 -0.0449995 0.00317896 3.97993e-14 0.000555131 0 2.17461e-11
1075 37 0.001 -0.020983 1.38442e-17 -0.0450981 -0.00322418 2.93842e-12 -7.97619e-05 0 2.15083e-11
1315 41 0.001 -0.000983026 2.07896e-17 -0.0450981 -0.00322418 2.56471e-12 -7.9762e-05 0 2.15083e-11
1084 38 0.001 2.58972e-06 -2.19691e-18 -0.0449995 0.00317896 7.06771e-14 0.000555131 0 2.17461e-11
1555 45 0.001 0.019017 1.1613e-17 -0.0450981 -0.00322418 2.25126e-12 -7.97619e-05 0 2.15083e-11
1324 42 0.001 0.0200026 1.94912e-18 -0.0449995 0.00317896 -6.59434e-14 0.000555131 0 2.17461e-11
1795 49 0.001 0.039017 -1.51267e-18 -0.0450981 -0.00323232 -5.68832e-14 -8.13773e-05 0 2.15087e-11
1564 46 0.001 0.0400026 2.21064e-18 -0.0449995 0.00317899 2.78133e-13 0.000555158 0 2.17467e-11
1804 50 0.001 0.0600026 7.41492e-18 -0.0449995 0.00317896 1.89247e-14 0.000555132 0 2.17461e-11
2035 53 0.001 0.059017 -3.92533e-19 -0.0450981 -0.00323189 -2.78023e-13 -8.12984e-05 0 2.15083e-11
2275 57 0.001 0.079017 -1.23905e-17 -0.0450981 -0.00299286 1.56146e-12 -4.38764e-05 0 2.17574e-11
2044 54 0.001 0.0800077 -1.9992e-16 -0.045 0.000686441 6.68119e-12 0.00192377 0 8.61223e-15
26 21 0.001 -0.1 3.09871e-19 -0.044 -1.31605e-05 -5.38881e-15 2.92532e-08 0 9.80692e-20
27 21 0.001 -0.1 1.00492e-19 -0.043 8.66374e-07 2.76432e-15 -5.82491e-09 0 3.14127e-23
353 25 0.001 -0.0813737 -4.75062e-17 -0.0431372 -0.00147491 -3.99864e-11 3.47642e-05 0 2.54696e-11
125 22 0.001 -0.0799981 1.19803e-18 -0.0439996 0.00231262 2.06303e-13 0.000448588 0 2.59787e-11
126 22 0.001 -0.0799988 -1.13079e-18 -0.0429997 0.00145207 -4.44937e-15 0.000323601 0 2.55673e-11
354 25 0.001 -0.0811784 2.00943e-16 -0.0441177 -0.0023513 5.81919e-12 -1.32243e-05 0 2.57845e-11
593 29 0.001 -0.0613737 7.07501e-19 -0.0431372 -0.00148427 -1.03411e-13 3.28976e-05 0 2.54697e-11
594 29 0.001 -0.0611784 -2.08304e-18 -0.0441177 -0.00234952 5.23962e-14 -1.28678e-05 0 2.57847e-11
365 26 0.001 -0.0599981 -4.7756e-18 -0.0439996 0.00231262 -1.57701e-13 0.000448596 0 2.59788e-11
366 26 0.001 -0.0599988 3.21886e-18 -0.0429997 0.00145207 -3.60169e-13 0.000323603 0 2.55674e-11
833 33 0.001 -0.0413737 -3.65438e-18 -0.0431372 -0.00148427 4.33906e-14 3.28976e-05 0 2.54697e-11
834 33 0.001 -0.0411784 1.63576e-18 -0.0441177 -0.00234952 -1.9563e-13 -1.28678e-05 0 2.57847e-11
605 30 0.001 -0.0399981 3.4352e-19 -0.0439996 0.00231262 -5.89419e-13 0.000448596 0 2.59788e-11
606 30 0.001 -0.0399988 -5.90118e-18 -0.0429997 0.00145207 9.1728e-13 0.000323603 0 2.55674e-11
1073 37 0.001 -0.0213737 -5.88193e-16 -0.0431372 -0.00150489 -9.28311e-11 2.87908e-05 0 2.547e-11
1074 37 0.001 -0.0211784 1.88066e-16 -0.0441177 -0.00234266 1.68087e-12 -1.15046e-05 0 2.5785e-11
845 34 0.001 -0.0199981 9.44887e-19 -0.0439996 0.00231262 -7.39816e-13 0.000448602 0 2.59787e-11
846 34 0.001 -0.0199988 -3.38009e-18 -0.0429997 0.00145206 1.48039e-12 0.000323606 0 2.55674e-11
1313 41 0.001 -0.00137375 -5.91985e-16 -0.0431372 -0.00150489 -9.26005e-11 2.87908e-05 0 2.547e-11
1314 41 0.001 -0.00117838 1.85964e-16 -0.0441177 -0.00234266 1.65644e-12 -1.15046e-05 0 2.5785e-11
1085 38 0.001 1.87175e-06 -2.23117e-18 -0.0439996 0.00231262 3.14963e-13 0.000448602 0 2.59787e-11
1086 38 0.001 1.17114e-06 4.95402e-18 -0.0429997 0.00145206 -1.04541e-12 0.000323606 0 2.55674e-11
1553 45 0.001 0.0186263 -5.94061e-16 -0.0431372 -0.00150489 -9.28581e-11 2.87908e-05 0 2.547e-11
1554 45 0.001 0.0188216 1.91452e-16 -0.0441177 -0.00234266 1.59556e-12 -1.15046e-05 0 2.5785e-11
1325 42 0.001 0.0200019 -4.17835e-18 -0.0439996 0.00231262 3.02333e-13 0.000448602 0 2.59787e-11
1326 42 0.001 0.0200012 3.36586e-18 -0.0429997 0.00145206 -2.98644e-13 0.000323606 0 2.55674e-11