ITEM: TIMESTEP
7
ITEM: NUMBER OF ATOMS
2279
ITEM: BOX BOUNDS ff ff ff
-1.1000000000000000e-01 1.1000000000000000e-01
-6.0000000000000001e-03 6.0000000000000001e-03
-5.5000000000000000e-02 5.5000000000000000e-02
ITEM: ATOMS id type radius x y z fx fy fz c_bendingE c_stretchingE
1 1 0.001 -0.1 0 -0.05 0.000279031 2.14996e-13 0.00041516 0 6.64507e-11
21 21 0.001 -0.1 1.4967e-19 -0.0489998 -0.000468014 8.57341e-15 1.91424e-05 0 6.31401e-11
219 23 0.001 -0.0990474 -2.70436e-19 -0.0500002 1.843e-05 1.01362e-13 -0.000411735 0 5.49316e-11
220 23 0.001 -0.0980952 -1.128e-18 -0.05 0.00048775 -8.54488e-13 -0.000686685 0 2.33247e-11
221 23 0.001 -0.0971429 -8.88039e-19 -0.05 9.11265e-05 5.63983e-13 0.000142115 0 7.97994e-13
222 23 0.001 -0.0961905 1.13618e-18 -0.05 5.74675e-06 -3.11336e-14 6.45321e-05 0 2.61405e-15
223 23 0.001 -0.0952381 1.09828e-19 -0.05 1.76665e-07 9.60012e-15 -8.97125e-06 0 2.51671e-18
224 23 0.001 -0.0942857 1.39614e-20 -0.05 2.52418e-09 1.02668e-14 -1.68914e-06 0 3.57443e-21
225 23 0.001 -0.0933333 1.90859e-21 -0.05 3.54478e-09 1.55369e-08 2.36777e-07 0 6.99955e-22
226 23 0.001 -0.092381 -4.98153e-17 -0.05 2.84408e-09 -3.33942e-08 1.93348e-08 0 1.83597e-22
227 23 0.001 -0.0914286 -1.16623e-12 -0.05 2.814e-10 -8.54286e-08 -2.28301e-08 0 4.14513e-22
228 23 0.001 -0.0904762 5.9709e-12 -0.05 -4.50964e-09 6.24186e-07 -1.59507e-08 0 4.07565e-22
229 23 0.001 -0.0895238 6.36644e-11 -0.05 3.17431e-10 -2.01749e-06 4.56056e-09 0 3.30288e-22
230 23 0.001 -0.0885714 -1.36938e-10 -0.05 3.15595e-09 2.99287e-06 -4.71905e-08 0 1.58716e-22
231 23 0.001 -0.087619 6.36551e-11 -0.05 3.94029e-09 -2.02768e-06 7.4623e-08 0 1.0148e-21
232 23 0.001 -0.0866667 6.00986e-12 -0.05 -7.87314e-09 6.31865e-07 5.57465e-07 0 1.451e-21
233 23 0.001 -0.0857143 -1.21051e-12 -0.05 -2.15542e-09 -8.13613e-08 -4.22676e-06 0 1.82758e-21
234 23 0.001 -0.0847619 9.2756e-15 -0.05 -2.13649e-07 -2.23746e-08 -2.18276e-05 0 3.28192e-18
235 23 0.001 -0.0838095 5.75752e-15 -0.05 -8.56931e-06 3.35853e-09 0.000160106 0 5.62891e-15
236 23 0.001 -0.0828571 -3.10984e-16 -0.05 -0.000160448 -7.83198e-11 0.000344287 0 2.3373e-12
237 23 0.001 -0.0819048 1.39803e-17 -0.0500001 -0.00112006 -1.35793e-11 -0.00165993 0 1.32913e-10
3 3 0.001 -0.08 -3.73763e-17 -0.0500001 -7.47241e-05 3.49856e-14 -0.000235196 0 3.05967e-10
120 22 0.001 -0.0799983 -3.94119e-19 -0.0489999 0.00740552 -2.54145e-12 0.000444729 0 4.77354e-11
238 23 0.001 -0.0809528 1.92482e-19 -0.0500005 -2.68262e-05 1.07019e-12 -0.00111808 0 2.91982e-10
359 25 0.001 -0.0801976 1.13819e-17 -0.0490199 -0.00700495 -3.24667e-13 -0.000935473 0 4.6564e-11
459 27 0.001 -0.0790473 8.97549e-17 -0.0500003 -3.93945e-05 1.65626e-11 -0.000759971 0 2.0398e-10
460 27 0.001 -0.0780952 -5.80008e-16 -0.05 0.000905902 -1.80743e-10 -0.00106757 0 8.68109e-11
461 27 0.001 -0.0771429 -7.33748e-15 -0.05 0.00013298 2.31399e-10 0.000227079 0 1.61094e-12
462 27 0.001 -0.0761905 6.70046e-14 -0.05 7.07329e-06 8.19489e-10 0.000103795 0 3.90681e-15
463 27 0.001 -0.0752381 1.9433e-13 -0.05 2.07219e-07 -4.05205e-09 -1.44174e-05 0 3.57175e-18
464 27 0.001 -0.0742857 -2.88609e-13 -0.05 4.72244e-09 3.84166e-09 -2.73007e-06 0 6.15834e-21
465 27 0.001 -0.0733333 -2.08849e-13 -0.05 7.27159e-09 2.4113e-10 3.91014e-07 0 1.1146e-21
466 27 0.001 -0.072381 -4.49007e-13 -0.05 -3.99746e-09 8.42108e-09 -2.39961e-09 0 3.51358e-22
467 27 0.001 -0.0714286 1.47719e-12 -0.05 2.00524e-10 -4.25768e-08 -4.02312e-10 0 2.46843e-23
468 27 0.001 -0.0704762 -8.45965e-13 -0.05 1.03092e-09 9.71797e-08 -2.55374e-08 0 3.47276e-23
469 27 0.001 -0.0695238 1.47425e-14 -0.05 6.994e-11 -9.97724e-08 4.03953e-08 0 1.40341e-22
470 27 0.001 -0.0685714 3.21689e-13 -0.05 -2.16877e-09 2.67687e-08 -1.20916e-07 0 1.07661e-22
471 27 0.001 -0.067619 -5.71004e-13 -0.05 -3.51081e-09 1.71481e-08 2.14929e-07 0 6.35122e-22
472 27 0.001 -0.0666667 3.36325e-13 -0.05 3.37752e-09 -1.17124e-08 3.76384e-07 0 6.38903e-22
473 27 0.001 -0.0657143 -3.00388e-14 -0.05 -1.56406e-10 4.60193e-09 -4.11166e-06 0 1.29451e-22
474 27 0.001 -0.0647619 -1.11699e-14 -0.05 -2.1808e-07 -9.79897e-10 -2.18624e-05 0 3.30768e-18
475 27 0.001 -0.0638095 1.18188e-15 -0.05 -8.56925e-06 -2.73212e-11 0.00016012 0 5.62966e-15
476 27 0.001 -0.0628571 2.09538e-17 -0.05 -0.000160443 3.55984e-11 0.000344337 0 2.33719e-12
477 27 0.001 -0.0619048 -8.16713e-17 -0.0500001 -0.00111978 -1.03151e-11 -0.00166038 0 1.3286e-10
478 27 0.001 -0.0609528 1.34132e-16 -0.0500005 -1.87563e-05 1.18245e-11 -0.00111734 0 2.93781e-10
5 5 0.001 -0.06 8.67828e-15 -0.0500001 -5.54251e-05 6.24166e-12 -0.000230337 0 3.06119e-10
360 26 0.001 -0.0599983 1.20897e-16 -0.0489999 0.00740818 1.14136e-11 0.000446432 0 4.76165e-11
599 29 0.001 -0.0601976 1.14418e-16 -0.0490198 -0.00691915 1.1297e-11 -0.000918206 0 4.65556e-11
699 31 0.001 -0.0590473 1.76117e-14 -0.0500003 -3.12912e-05 -2.37048e-10 -0.000759253 0 2.02438e-10
700 31 0.001 -0.0580952 -3.17649e-14 -0.05 0.000906046 -6.1297e-10 -0.00106789 0 8.68468e-11
701 31 0.001 -0.0571429 -5.39219e-16 -0.05 0.000132988 2.78084e-08 0.000224101 0 1.61234e-12
702 31 0.001 -0.0561905 1.28834e-14 -0.05 7.20296e-06 -1.48824e-07 0.000138507 0 3.96403e-15
703 31 0.001 -0.0552381 -1.01702e-11 -0.05 1.72028e-07 6.22508e-07 -0.000181939 0 2.14368e-18
704 31 0.001 -0.0542857 2.04178e-11 -0.05 7.35134e-08 -9.6086e-07 -0.00242052 0 3.94339e-19
705 31 0.001 -0.0533333 -6.53608e-12 -0.05 -1.30603e-05 4.60311e-07 0.0143037 0 6.42951e-16
706 31 0.001 -0.052381 -7.41881e-12 -0.0499987 -4.98437e-05 8.42451e-08 -0.0474464 0 7.4405e-14
707 31 0.001 -0.0514286 4.49732e-12 -0.0500027 -2.92155e-08 -1.34597e-07 0.0713947 0 1.47447e-13
708 31 0.001 -0.0504762 -1.62426e-12 -0.0499987 4.98559e-05 6.57991e-08 -0.0474534 0 7.43293e-14
709 31 0.001 -0.0495238 -6.34117e-13 -0.05 1.30656e-05 4.73288e-08 0.0143332 0 6.45321e-16
710 31 0.001 -0.0485714 2.88558e-12 -0.05 -5.3156e-08 -1.35338e-07 -0.00246866 0 4.31079e-19
711 31 0.001 -0.047619 -1.46554e-12 -0.05 -3.23261e-09 1.44493e-07 -0.000131801 0 1.99607e-21
712 31 0.001 -0.0466667 7.1425e-13 -0.05 -1.302e-08 -1.25256e-07 2.32457e-05 0 7.25925e-21
713 31 0.001 -0.0457143 5.71186e-13 -0.05 1.71808e-08 3.22273e-08 -4.23233e-06 0 9.05286e-21
714 31 0.001 -0.0447619 -2.72895e-12 -0.05 -2.28244e-07 4.45537e-08 -2.18347e-05 0 3.45258e-18
715 31 0.001 -0.0438095 1.00902e-12 -0.05 -8.56144e-06 -2.89578e-08 0.00016012 0 5.62485e-15
716 31 0.001 -0.0428571 5.96736e-13 -0.05 -0.000160448 2.99349e-09 0.000344338 0 2.33723e-12
717 31 0.001 -0.0419048 -1.06723e-13 -0.0500001 -0.00111978 3.80412e-09 -0.00166038 0 1.3286e-10
718 31 0.001 -0.0409528 -9.29607e-15 -0.0500005 -1.87563e-05 -1.54142e-09 -0.00111734 0 2.93781e-10
7 7 0.001 -0.04 1.31102e-14 -0.0500001 -5.54251e-05 1.08021e-10 -0.000230337 0 3.06119e-10
600 30 0.001 -0.0399983 1.13454e-16 -0.0489999 0.00740818 1.4704e-11 0.000446432 0 4.76165e-11
839 33 0.001 -0.0401976 1.13312e-16 -0.0490198 -0.00691915 1.47313e-11 -0.000918206 0 4.65556e-11
939 35 0.001 -0.0390473 1.76287e-14 -0.0500003 -3.12913e-05 -2.30205e-10 -0.000759253 0 2.02438e-10
940 35 0.001 -0.0380952 -3.17751e-14 -0.05 0.000906046 3.52677e-10 -0.00106802 0 8.68468e-11
941 35 0.001 -0.0371429 -5.38184e-16 -0.05 0.000132988 -8.75173e-11 0.000227129 0 1.61234e-12
942 35 0.001 -0.0361905 1.19521e-14 -0.05 7.20299e-06 -1.32702e-10 0.000103798 0 3.96402e-15
943 35 0.001 -0.0352381 5.71444e-16 -0.05 1.73013e-07 9.29476e-11 -1.44025e-05 0 2.14167e-18
944 35 0.001 -0.0342857 -5.26764e-16 -0.05 4.29237e-09 -1.65471e-09 -2.7413e-06 0 1.38271e-21
945 35 0.001 -0.0333333 8.69244e-16 -0.05 -1.77816e-09 1.51522e-08 3.58597e-07 0 3.00983e-22
946 35 0.001 -0.032381 1.32483e-13 -0.05 4.7313e-09 -3.01339e-08 6.60423e-08 0 9.45945e-22
947 35 0.001 -0.0314286 -4.93226e-13 -0.05 -4.27808e-09 8.16227e-09 -3.98184e-08 0 1.23193e-21
948 35 0.001 -0.0304762 1.11218e-12 -0.05 3.64736e-09 1.47648e-07 -3.2713e-09 0 1.03402e-21
949 35 0.001 -0.0295238 1.14346e-11 -0.05 -1.51797e-09 1.80615e-07 -7.40624e-09 0 1.34539e-21
950 35 0.001 -0.0285714 -6.83685e-11 -0.05 8.69836e-09 -2.93065e-06 -1.05898e-07 0 6.39383e-21
951 35 0.001 -0.027619 -3.5461e-10 -0.05 -2.03263e-08 1.03073e-05 3.34935e-07 0 1.44617e-20
952 35 0.001 -0.0266667 8.21287e-10 -0.05 1.72478e-08 -1.55314e-05 2.67768e-08 0 1.15468e-20
953 35 0.001 -0.0257143 -3.49839e-10 -0.05 -7.2925e-09 1.04615e-05 -3.81352e-06 0 2.67739e-21
954 35 0.001 -0.0247619 -7.72602e-11 -0.05 -2.26405e-07 -2.73854e-06 -2.17918e-05 0 3.56814e-18
955 35 0.001 -0.0238095 1.61142e-11 -0.05 -8.55103e-06 -1.35051e-07 0.000159975 0 5.61678e-15
956 35 0.001 -0.0228571 6.90505e-13 -0.05 -0.000160464 2.82332e-07 0.000344306 0 2.33747e-12
957 35 0.001 -0.0219048 -2.002e-13 -0.0500001 -0.00112005 -3.4486e-08 -0.00165993 0 1.32912e-10
9 9 0.001 -0.02 3.23228e-15 -0.0500001 -7.44875e-05 2.41158e-10 -0.000235144 0 3.05968e-10
840 34 0.001 -0.0199983 4.0166e-17 -0.0489999 0.00740553 3.40569e-12 0.000444732 0 4.7735e-11
958 35 0.001 -0.0209528 -1.93514e-15 -0.0500005 -2.67975e-05 -1.0561e-09 -0.00111807 0 2.91988e-10
1079 37 0.001 -0.0201976 3.53805e-17 -0.0490199 -0.00699205 3.70273e-12 -0.000932891 0 4.65639e-11
1179 39 0.001 -0.0190473 6.92248e-16 -0.0500003 -3.9369e-05 -2.11494e-11 -0.00075997 0 2.03976e-10
1180 39 0.001 -0.0180952 -7.17359e-15 -0.05 0.000905912 -1.79131e-11 -0.00106757 0 8.68115e-11
1181 39 0.001 -0.0171429 -8.82155e-15 -0.05 0.00013297 3.01459e-10 0.000227084 0 1.61081e-12
1182 39 0.001 -0.0161905 3.16139e-14 -0.05 7.08145e-06 -5.48616e-10 0.000103782 0 3.91198e-15
1183 39 0.001 -0.0152381 -1.07831e-14 -0.05 1.96633e-07 3.42974e-10 -1.43954e-05 0 3.43632e-18
1184 39 0.001 -0.0142857 -5.57797e-15 -0.05 9.96469e-09 -7.39779e-11 -2.77021e-06 0 1.36893e-20
1185 39 0.001 -0.0133333 -1.17559e-15 -0.05 1.01675e-08 -1.5132e-10 4.42082e-07 0 1.88759e-21
1186 39 0.001 -0.012381 3.86697e-15 -0.05 -5.60186e-09 5.06528e-09 -6.55624e-08 0 1.43189e-21
1187 39 0.001 -0.0114286 5.97897e-13 -0.05 7.42443e-09 3.25273e-08 9.45384e-08 0 7.89512e-22
1188 39 0.001 -0.0104762 -2.87312e-12 -0.05 7.30422e-09 -2.71421e-07 -8.55912e-08 0 4.27301e-21
1189 39 0.001 -0.00952381 -2.95011e-11 -0.05 -1.72385e-08 9.28223e-07 4.04034e-09 0 5.80364e-21
1190 39 0.001 -0.00857143 6.35755e-11 -0.05 2.37073e-09 -1.39338e-06 -9.62116e-09 0 1.79847e-21
1191 39 0.001 -0.00761905 -2.95867e-11 -0.05 -3.06069e-09 9.58119e-07 3.45018e-08 0 6.47815e-22
1192 39 0.001 -0.00666667 -2.7589e-12 -0.05 9.17891e-09 -3.14601e-07 5.80704e-07 0 1.5715e-21
1193 39 0.001 -0.00571429 5.48398e-13 -0.05 -8.86578e-09 4.72663e-08 -4.23685e-06 0 2.13289e-21
1194 39 0.001 -0.0047619 -1.72852e-15 -0.05 -2.1613e-07 9.81638e-09 -2.18227e-05 0 3.3272e-18
1195 39 0.001 -0.00380952 -3.05334e-15 -0.05 -8.56663e-06 -1.48741e-09 0.000160103 0 5.62635e-15
1196 39 0.001 -0.00285715 1.65951e-16 -0.05 -0.000160454 2.38422e-11 0.000344291 0 2.33741e-12
1197 39 0.001 -0.00190481 5.85877e-18 -0.0500001 -0.00112005 8.39187e-12 -0.00165993 0 1.32912e-10
1198 39 0.001 -0.000952791 -4.48503e-20 -0.0500005 -2.67987e-05 -6.57384e-13 -0.00111808 0 2.91988e-10
1319 41 0.001 -0.000197562 6.78502e-18 -0.0490199 -0.00699205 2.18605e-12 -0.00093289 0 4.65639e-11
11 11 0.001 -1.04843e-08 -2.22094e-17 -0.0500001 -7.44809e-05 -1.83128e-13 -0.000235145 0 3.05969e-10
1080 38 0.001 1.6691e-06 1.73521e-18 -0.0489999 0.00740553 -2.72686e-13 0.000444732 0 4.7735e-11
1419 43 0.001 0.000952714 -4.872e-19 -0.0500003 -3.93334e-05 1.02919e-12 -0.00075997 0 2.03968e-10
1420 43 0.001 0.0019048 2.35999e-17 -0.05 0.000905774 -1.42725e-12 -0.00106757 0 8.68046e-11
1421 43 0.001 0.00285714 -3.87716e-16 -0.05 0.00013298 -1.53533e-10 0.000227082 0 1.61217e-12
1422 43 0.001 0.00380952 1.27417e-15 -0.05 7.19811e-06 5.47628e-09 0.000103794 0 3.96345e-15
1423 43 0.001 0.0047619 5.63383e-14 -0.05 1.79124e-07 -1.67302e-07 -1.42085e-05 0 2.24276e-18
1424 43 0.001 0.00571429 -3.78874e-13 -0.05 2.68335e-09 7.29535e-07 -6.73475e-06 0 3.41636e-22
1425 43 0.001 0.00666667 4.33307e-11 -0.05 2.66031e-09 -2.81895e-06 2.13641e-05 0 1.12301e-21
1426 43 0.001 0.00761905 -8.58707e-11 -0.05 -1.16108e-08 4.45032e-06 0.000393039 0 6.05933e-21
1427 43 0.001 0.00857143 4.31794e-11 -0.05 -3.25298e-07 -2.64873e-06 -0.00228003 0 4.14065e-19
1428 43 0.001 0.00952381 -5.18109e-13 -0.0500002 -1.25386e-06 5.49363e-07 0.00754783 0 4.7866e-17
1429 43 0.001 0.0104762 5.2541e-14 -0.0499996 -3.30691e-09 -1.60796e-07 -0.011356 0 9.44513e-17
1430 43 0.001 0.0114286 -1.67915e-13 -0.0500002 1.2659e-06 3.37436e-07 0.00754767 0 4.74314e-17
1431 43 0.001 0.012381 2.64777e-11 -0.05 3.24998e-07 -1.63745e-06 -0.00227939 0 4.37399e-19
1432 43 0.001 0.0133333 -5.23593e-11 -0.05 6.44286e-10 2.78665e-06 0.000392285 0 4.47925e-22
1433 43 0.001 0.0142857 2.67819e-11 -0.05 -3.14053e-09 -1.78108e-06 1.79185e-05 0 3.14633e-22
1434 43 0.001 0.0152381 -8.27319e-13 -0.05 -2.2132e-07 4.30828e-07 -2.59999e-05 0 3.41829e-18
1435 43 0.001 0.0161905 1.81713e-13 -0.05 -8.56165e-06 -7.99206e-08 0.000160165 0 5.62444e-15
1436 43 0.001 0.0171429 8.27604e-14 -0.05 -0.000160455 4.63123e-09 0.000344287 0 2.33742e-12
1437 43 0.001 0.0180952 -1.638e-14 -0.0500001 -0.00112005 3.05121e-10 -0.00165993 0 1.32912e-10
1438 43 0.001 0.0190472 -5.99564e-15 -0.0500005 -2.68006e-05 -1.66426e-10 -0.00111808 0 2.91988e-10
13 13 0.001 0.02 2.13286e-15 -0.0500001 -7.44927e-05 4.58451e-13 -0.000235144 0 3.05967e-10
1320 42 0.001 0.0200017 2.65735e-17 -0.0489999 0.00740553 4.62966e-12 0.000444732 0 4.7735e-11
1559 45 0.001 0.0198024 1.22302e-17 -0.0490199 -0.00699205 2.74195e-12 -0.000932891 0 4.65639e-11
1659 47 0.001 0.0209527 3.42551e-17 -0.0500003 -3.93791e-05 2.72456e-12 -0.00075997 0 2.03979e-10
1660 47 0.001 0.0219048 -2.92226e-17 -0.05 0.000906108 -4.76252e-13 -0.00106757 0 8.68119e-11
1661 47 0.001 0.0228571 2.81113e-18 -0.05 0.000132516 -1.09093e-12 0.000227081 0 1.60724e-12
1662 47 0.001 0.0238095 4.35256e-18 -0.05 7.4097e-06 4.17428e-13 0.00010379 0 4.16361e-15
1663 47 0.001 0.0247619 -2.95453e-19 -0.05 1.66738e-07 -9.92164e-15 -1.44136e-05 0 1.47911e-18
1664 47 0.001 0.0257143 -3.07227e-20 -0.05 -2.07791e-08 -2.25492e-14 -2.74693e-06 0 1.45424e-20
1665 47 0.001 0.0266667 4.04536e-21 -0.05 1.68833e-08 2.43064e-15 4.01594e-07 0 1.07819e-20
1666 47 0.001 0.027619 -9.06273e-22 -0.05 9.97967e-10 2.41168e-16 1.07422e-08 0 5.00761e-21
1667 47 0.001 0.0285714 -1.24627e-22 -0.05 -2.23367e-08 -1.4094e-16 1.34912e-08 0 1.6431e-20
1668 47 0.001 0.0295238 7.13603e-23 -0.05 2.67729e-08 1.74389e-17 -3.96462e-08 0 1.99606e-20
1669 47 0.001 0.0304762 -3.68155e-23 -0.05 -1.35739e-08 2.00037e-18 -4.83854e-09 0 6.81e-21
1670 47 0.001 0.0314286 -6.79359e-23 -0.05 2.21278e-09 1.48288e-17 -1.53273e-08 0 3.86025e-22
1671 47 0.001 0.032381 -6.05576e-24 -0.05 1.89535e-09 -1.28147e-16 3.43697e-08 0 1.56034e-22
1672 47 0.001 0.0333333 -6.68829e-21 -0.05 -2.75381e-09 3.28217e-15 5.84662e-07 0 4.36591e-22
1673 47 0.001 0.0342857 5.24611e-20 -0.05 3.02219e-09 -1.37422e-14 -4.23162e-06 0 4.81975e-22
1674 47 0.001 0.0352381 -8.00067e-19 -0.05 -2.25503e-07 5.26022e-14 -2.18374e-05 0 3.46509e-18
1675 47 0.001 0.0361905 2.62715e-18 -0.05 -8.561e-06 -2.64926e-14 0.000160121 0 5.62488e-15
1676 47 0.001 0.0371429 -2.22776e-18 -0.05 -0.000160448 1.18611e-12 0.000344337 0 2.33723e-12
1677 47 0.001 0.0380952 -6.73427e-17 -0.0500001 -0.00111978 -7.77496e-12 -0.00166038 0 1.3286e-10
1678 47 0.001 0.0390472 1.34553e-16 -0.0500005 -1.87563e-05 1.19008e-11 -0.00111734 0 2.93781e-10
15 15 0.001 0.04 8.67545e-15 -0.0500001 -5.54251e-05 6.83101e-12 -0.000230337 0 3.06119e-10
1560 46 0.001 0.0400017 1.00162e-16 -0.0489999 0.00740818 9.30968e-12 0.000446432 0 4.76165e-11
1799 49 0.001 0.0398024 9.99892e-17 -0.0490198 -0.00691915 9.32149e-12 -0.000918206 0 4.65556e-11
1899 51 0.001 0.0409527 1.76115e-14 -0.0500003 -3.12913e-05 -2.37143e-10 -0.000759253 0 2.02438e-10
1900 51 0.001 0.0419048 -3.17648e-14 -0.05 0.000906046 3.56685e-10 -0.00106802 0 8.68468e-11
1901 51 0.001 0.0428571 -5.39271e-16 -0.05 0.000132988 -8.78267e-11 0.000227129 0 1.61234e-12
1902 51 0.001 0.0438095 1.19525e-14 -0.05 7.20293e-06 -1.3288e-10 0.000103798 0 3.96403e-15
1903 51 0.001 0.0447619 5.71255e-16 -0.05 1.73057e-07 8.83421e-11 -1.4405e-05 0 2.14374e-18
1904 51 0.001 0.0457143 -5.27674e-16 -0.05 2.49556e-09 -1.51108e-10 -2.73893e-06 0 1.66199e-21
1905 51 0.001 0.0466667 -5.01358e-16 -0.05 6.33128e-09 3.37766e-10 3.85892e-07 0 4.78171e-22
1906 51 0.001 0.047619 4.97959e-14 -0.05 2.69864e-09 -1.52034e-10 1.80317e-08 0 2.76321e-21
1907 51 0.001 0.0485714 6.43532e-14 -0.05 -1.61853e-08 -1.36457e-08 -4.41364e-08 0 7.11625e-21
1908 51 0.001 0.0495238 -2.63801e-13 -0.05 1.1739e-08 2.84e-08 3.95847e-08 0 5.82946e-21
1909 51 0.001 0.0504762 1.5015e-13 -0.05 -7.10151e-09 -1.62862e-08 -3.65047e-08 0 2.11183e-21
1910 51 0.001 0.0514286 8.45174e-18 -0.05 6.78845e-09 1.48e-09 -3.43286e-08 0 1.58899e-21
1911 51 0.001 0.052381 4.55895e-20 -0.05 -3.63068e-09 -3.72679e-12 7.74021e-08 0 7.2106e-22
1912 51 0.001 0.0533333 -6.6533e-20 -0.05 -6.58177e-09 2.42799e-14 5.70257e-07 0 2.69487e-21
1913 51 0.001 0.0542857 -8.26073e-20 -0.05 1.04472e-08 3.86014e-15 -4.24782e-06 0 3.61568e-21
1914 51 0.001 0.0552381 -2.00809e-19 -0.05 -2.26905e-07 1.55955e-14 -2.18229e-05 0 3.45595e-18
1915 51 0.001 0.0561905 1.06704e-18 -0.05 -8.56129e-06 -2.38196e-14 0.000160109 0 5.62485e-15
1916 51 0.001 0.0571429 -3.30832e-19 -0.05 -0.000160452 9.16142e-15 0.000344287 0 2.33734e-12
1917 51 0.001 0.0580952 -9.07293e-19 -0.0500001 -0.00112006 -6.91979e-15 -0.00165993 0 1.32912e-10
17 17 0.001 0.06 2.01175e-17 -0.0500001 -7.4478e-05 -3.67279e-10 -0.000229948 0 3.05969e-10
1800 50 0.001 0.0600017 8.83511e-18 -0.0489999 0.00740553 -2.73724e-12 0.000444733 0 4.7735e-11
1918 51 0.001 0.0590472 2.15126e-19 -0.0500005 -2.67968e-05 2.51754e-14 -0.00111808 0 2.91989e-10
2039 53 0.001 0.0598024 -2.47644e-17 -0.0490199 -0.00699205 6.34046e-13 -0.00093289 0 4.65639e-11
2139 55 0.001 0.0609527 -2.92731e-15 -0.0500003 -3.93201e-05 2.61718e-09 -0.000810855 0 2.03968e-10
2140 55 0.001 0.0619048 2.90337e-13 -0.05 0.000905753 2.89591e-08 -0.000674401 0 8.68043e-11
2141 55 0.001 0.0628571 -8.51666e-13 -0.05 0.000135671 -1.5732e-07 0.0172791 0 1.61294e-12
2142 55 0.001 0.0638095 -1.0692e-11 -0.0500002 -0.000434114 4.89513e-07 -0.0998478 0 1.69287e-12
2143 55 0.001 0.0647619 2.25737e-11 -0.050007 0.0126667 -7.66337e-07 -0.517418 0 1.39112e-08
2144 55 0.001 0.0657099 -1.10614e-11 -0.0499697 -0.387436 1.07535e-06 2.23028 0 1.59239e-05
2145 55 0.001 0.0666667 2.47573e-11 -0.0494732 1.23216 3.04252e-06 -8.55262 0 0.000893065
2146 55 0.001 0.067619 -5.2461e-10 -0.0511002 -4.55336e-06 -0.0001186 13.8446 0 0.00175431
2147 55 0.001 0.0685714 3.87058e-09 -0.0494732 -1.23192 0.00114408 -8.55208 0 0.000893048
2148 55 0.001 0.0695282 1.63807e-07 -0.0499695 0.387544 -0.00599527 2.22566 0 1.59039e-05
2149 55 0.001 0.0704762 -3.33429e-07 -0.0500073 -0.0130555 0.0102877 -0.508959 0 1.37652e-08
2150 55 0.001 0.0714286 1.60548e-07 -0.05 0.000486404 -0.00757705 -0.106012 0 2.12165e-12
2151 55 0.001 0.072381 7.33116e-09 -0.05 8.94004e-07 0.00313676 0.0192792 0 6.81488e-17
2152 55 0.001 0.0733333 -1.6094e-09 -0.05 -1.51108e-08 -0.000870558 -9.76894e-05 0 3.83045e-21
2153 55 0.001 0.0742857 -1.8298e-11 -0.05 -2.77229e-09 -1.61728e-05 -0.000106183 0 2.39916e-21
2154 55 0.001 0.0752381 -1.26496e-13 -0.05 -3.30259e-07 5.43198e-06 1.31932e-05 0 7.6506e-18
2155 55 0.001 0.0761905 9.4263e-15 -0.05 -1.60711e-05 -4.34965e-08 3.39443e-07 0 1.9194e-14
2156 55 0.001 0.0771429 -1.3651e-16 -0.05 -0.000360714 -1.37573e-09 -6.00047e-06 0 1.12653e-11
2157 55 0.001 0.0780951 -2.05915e-19 -0.05 -0.00215296 -3.23399e-11 -2.16045e-06 0 6.345e-10
2158 55 0.001 0.0790467 1.92961e-18 -0.05 0.00128424 1.02232e-12 -0.00551307 0 7.96422e-10
2279 57 0.001 0.0798003 -3.74296e-17 -0.0490196 0.00186336 4.99918e-13 -0.00622129 0 5.37062e-10
19 19 0.001 0.0799995 -6.35162e-17 -0.05 0.000140991 -1.89981e-13 0.00177965 0 5.45891e-10
2040 54 0.001 0.0800057 -2.12062e-16 -0.049 0.000474705 3.37825e-12 -0.0018807 0 3.49574e-13
22 21 0.001 -0.1 2.37316e-18 -0.048 -0.000593741 -2.46752e-14 0.000494477 0 2.92745e-11
121 22 0.001 -0.0799983 5.40249e-20 -0.0479998 0.00928622 4.71933e-12 0.000811239 0 3.45011e-11
358 25 0.001 -0.0803938 -1.89241e-17 -0.0480393 -0.00857201 5.23711e-13 -0.000891745 0 3.43028e-11
598 29 0.001 -0.0603938 -6.17096e-17 -0.0480393 -0.00881457 -7.03126e-12 -0.000940271 0 3.43032e-11
361 26 0.001 -0.0599983 -8.40347e-17 -0.0479998 0.00928493 -8.0289e-12 0.000811301 0 3.44958e-11
601 30 0.001 -0.0399983 -5.20159e-17 -0.0479998 0.00928493 -6.91925e-12 0.000811301 0 3.44958e-11
838 33 0.001 -0.0403938 -5.24914e-17 -0.0480393 -0.00881457 -6.89964e-12 -0.000940271 0 3.43032e-11
841 34 0.001 -0.0199983 -1.9179e-17 -0.0479998 0.00928622 -1.20596e-12 0.000811245 0 3.45011e-11
1078 37 0.001 -0.0203938 -9.99052e-18 -0.0480393 -0.00856092 -1.78027e-12 -0.000889533 0 3.43028e-11
1318 41 0.001 -0.000393808 -8.12994e-18 -0.0480393 -0.00856092 -3.54923e-12 -0.000889533 0 3.43028e-11
1081 38 0.001 1.65471e-06 -3.32913e-18 -0.0479998 0.00928622 7.22705e-13 0.000811245 0 3.45011e-11
1321 42 0.001 0.0200017 -1.21693e-17 -0.0479998 0.00928622 -4.84021e-12 0.000811245 0 3.45011e-11
1558 45 0.001 0.0196062 8.7257e-18 -0.0480393 -0.00856092 -2.01344e-12 -0.000889533 0 3.43028e-11
1561 46 0.001 0.0400017 -4.54193e-17 -0.0479998 0.00928493 -4.29157e-12 0.000811301 0 3.44958e-11
1798 49 0.001 0.0396062 -4.58911e-17 -0.0480393 -0.00881457 -4.27058e-12 -0.000940271 0 3.43032e-11
1801 50 0.001 0.0600017 -1.51744e-17 -0.0479998 0.00928622 5.09547e-12 0.000811245 0 3.45011e-11
2038 53 0.001 0.0596062 3.52985e-17 -0.0480393 -0.0085609 -9.99069e-13 -0.000889529 0 3.43028e-11
2278 57 0.001 0.079606 5.47171e-17 -0.0480393 -0.0136191 -1.35926e-12 -0.000188791 0 1.66242e-10
2041 54 0.001 0.0800057 3.93641e-16 -0.048 0.0049396 -8.19097e-12 0.00260705 0 8.62467e-17
23 21 0.001 -0.1 1.79882e-19 -0.047 0.000135377 -2.92478e-16 4.65193e-05 0 1.83045e-13
24 21 0.001 -0.1 -1.39926e-18 -0.046 4.77992e-05 2.17567e-14 1.44906e-06 0 1.59454e-16
122 22 0.001 -0.0799985 3.56758e-19 -0.0469997 0.00799544 -2.68788e-12 0.00124204 0 7.01922e-13
123 22 0.001 -0.0799987 -1.82049e-19 -0.0459998 0.00673356 3.73661e-13 0.00117605 0 2.05623e-12
356 25 0.001 -0.0807856 3.61302e-19 -0.0460785 -0.00689559 7.62009e-14 -0.000182591 0 2.01988e-12
357 25 0.001 -0.0805898 9.04907e-18 -0.0470589 -0.00824822 -3.37233e-13 -0.000387934 0 6.96803e-13
596 29 0.001 -0.0607856 5.13686e-18 -0.0460785 -0.00686078 3.30333e-13 -0.000175635 0 2.0199e-12
597 29 0.001 -0.0605898 -4.83735e-18 -0.0470589 -0.00817809 4.56342e-13 -0.000373916 0 6.9685e-13
362 26 0.001 -0.0599985 1.28382e-17 -0.0469997 0.00799539 1.37412e-12 0.001242 0 7.01887e-13
363 26 0.001 -0.0599987 2.78081e-18 -0.0459998 0.00673358 1.17436e-13 0.00117606 0 2.05621e-12
836 33 0.001 -0.0407856 -2.26866e-18 -0.0460785 -0.00686078 9.39006e-14 -0.000175635 0 2.0199e-12
602 30 0.001 -0.0399985 -4.00396e-18 -0.0469997 0.00799539 -3.56116e-13 0.001242 0 7.01887e-13
603 30 0.001 -0.0399987 1.77021e-19 -0.0459998 0.00673358 4.24759e-14 0.00117606 0 2.05621e-12
837 33 0.001 -0.0405898 -1.53266e-18 -0.0470589 -0.00817809 -4.04295e-13 -0.000373916 0 6.9685e-13
842 34 0.001 -0.0199985 -9.88497e-19 -0.0469997 0.00799543 -7.39502e-13 0.00124204 0 7.01925e-13
843 34 0.001 -0.0199987 7.32764e-20 -0.0459998 0.00673357 3.95698e-13 0.00117604 0 2.05622e-12
1076 37 0.001 -0.0207856 -9.8648e-19 -0.0460785 -0.00688389 -3.80981e-13 -0.000180254 0 2.01987e-12
1077 37 0.001 -0.0205898 -3.94278e-18 -0.0470589 -0.00829684 1.63215e-13 -0.000397649 0 6.96787e-13
1316 41 0.001 -0.000785613 3.14718e-18 -0.0460785 -0.00688389 -4.12915e-13 -0.000180254 0 2.01987e-12
1317 41 0.001 -0.000589756 -8.73231e-19 -0.0470589 -0.00829684 1.87189e-12 -0.000397649 0 6.96787e-13
1082 38 0.001 1.49316e-06 3.11318e-18 -0.0469997 0.00799543 -8.22258e-13 0.00124204 0 7.01925e-13
1083 38 0.001 1.27838e-06 -1.38887e-18 -0.0459998 0.00673357 4.19163e-13 0.00117604 0 2.05622e-12
1556 45 0.001 0.0192144 -3.82052e-18 -0.0460785 -0.00688389 -5.80516e-13 -0.000180254 0 2.01987e-12
1557 45 0.001 0.0194102 -5.29035e-18 -0.0470589 -0.00829684 1.03728e-12 -0.000397649 0 6.96787e-13
1322 42 0.001 0.0200015 -4.64022e-19 -0.0469997 0.00799543 1.09387e-12 0.00124204 0 7.01925e-13
1323 42 0.001 0.0200013 -9.23952e-19 -0.0459998 0.00673357 6.66564e-13 0.00117604 0 2.05622e-12
1562 46 0.001 0.0400015 -3.96856e-18 -0.0469997 0.00799539 -3.06374e-13 0.001242 0 7.01887e-13
1563 46 0.001 0.0400013 1.71104e-19 -0.0459998 0.00673358 3.43774e-14 0.00117606 0 2.05621e-12
1796 49 0.001 0.0392144 -2.27459e-18 -0.0460785 -0.00686078 8.5793e-14 -0.000175635 0 2.0199e-12
1797 49 0.001 0.0394102 -1.49721e-18 -0.0470589 -0.00817809 -3.54467e-13 -0.000373916 0 6.9685e-13
1802 50 0.001 0.0600015 6.72485e-18 -0.0469997 0.00799543 -2.77268e-12 0.00124204 0 7.01925e-13
1803 50 0.001 0.0600013 -9.81689e-20 -0.0459998 0.00673357 2.40183e-13 0.00117604 0 2.05622e-12
2036 53 0.001 0.0592144 -5.1343e-18 -0.0460785 -0.00688463 -1.53841e-13 -0.000180402 0 2.01987e-12
2037 53 0.001 0.0594102 -9.30907e-18 -0.0470589 -0.0082969 6.11981e-13 -0.000397663 0 6.96788e-13
2276 57 0.001 0.0792144 4.25597e-19 -0.0460785 -0.00631285 -3.73322e-13 -6.80067e-05 0 2.10366e-12
2277 57 0.001 0.0794103 -3.41846e-17 -0.0470589 -0.00752131 1.19702e-12 -6.57898e-05 0 2.177e-12
2042 54 0.001 0.0800049 -1.92008e-16 -0.047 0.00504012 8.36883e-12 0.00260816 0 1.58436e-16
2043 54 0.001 0.0800042 -1.43046e-17 -0.046 0.00306805 -3.14034e-12 0.00234922 0 1.89277e-16
25 21 0.001 -0.1 -5.66091e-20 -0.045 -7.04946e-06 -9.39854e-15 1.03452e-08 0 3.12066e-20
124 22 0.001 -0.079999 -1.83248e-19 -0.0449998 0.00536293 -6.44435e-14 0.000991652 0 3.51734e-12
355 25 0.001 -0.0809814 -1.28225e-18 -0.0450981 -0.00546039 -2.00697e-13 -8.20793e-05 0 3.48021e-12
595 29 0.001 -0.0609814 6.89429e-19 -0.0450981 -0.00545046 1.57416e-14 -8.0095e-05 0 3.48022e-12
364 26 0.001 -0.059999 -1.28625e-18 -0.0449998 0.00536294 7.59065e-14 0.000991656 0 3.51735e-12
835 33 0.001 -0.0409814 1.11202e-18 -0.0450981 -0.00545046 -2.54118e-14 -8.00951e-05 0 3.48022e-12
604 30 0.001 -0.039999 1.58678e-19 -0.0449998 0.00536294 6.0343e-14 0.000991656 0 3.51735e-12
844 34 0.001 -0.019999 8.42105e-19 -0.0449998 0.00536294 -8.88575e-14 0.000991654 0 3.51733e-12
1075 37 0.001 -0.0209814 -3.73589e-19 -0.0450981 -0.00544562 2.17551e-13 -7.91287e-05 0 3.48021e-12
1315 41 0.001 -0.000981426 -2.60297e-19 -0.0450981 -0.00544562 2.14907e-13 -7.91287e-05 0 3.48021e-12
1084 38 0.001 1.01658e-06 3.23441e-19 -0.0449998 0.00536294 -7.87464e-14 0.000991654 0 3.51733e-12
1555 45 0.001 0.0190186 -3.34656e-19 -0.0450981 -0.00544562 6.56905e-14 -7.91288e-05 0 3.48021e-12
1324 42 0.001 0.020001 9.04713e-19 -0.0449998 0.00536294 -2.61967e-13 0.000991654 0 3.51733e-12
1795 49 0.001 0.0390186 1.11202e-18 -0.0450981 -0.00545046 -2.54883e-14 -8.00951e-05 0 3.48022e-12
1564 46 0.001 0.040001 1.58678e-19 -0.0449998 0.00536294 6.02667e-14 0.000991656 0 3.51735e-12
1804 50 0.001 0.060001 2.51054e-19 -0.0449998 0.00536294 -1.86808e-14 0.000991654 0 3.51734e-12
2035 53 0.001 0.0590186 5.02385e-19 -0.0450981 -0.00544746 -4.02883e-14 -7.94959e-05 0 3.48022e-12
2275 57 0.001 0.0790186 -1.34253e-19 -0.0450981 -0.00543024 -1.75553e-13 -8.44687e-05 0 3.48125e-12
2044 54 0.001 0.0800033 1.86838e-17 -0.045 0.00244094 -9.83786e-14 0.00194193 0 2.93012e-16
26 21 0.001 -0.1 7.40171e-20 -0.044 -1.06341e-06 -3.75936e-16 -1.05495e-08 0 1.59894e-24
27 21 0.001 -0.1 4.71304e-22 -0.043 1.6246e-07 5.51252e-16 -1.07025e-08 0 2.01428e-29
353 25 0.001 -0.081373 7.63224e-17 -0.0431372 -0.00247738 2.63854e-12 4.18155e-05 0 4.00317e-12
125 22 0.001 -0.0799993 -1.01793e-19 -0.0439999 0.00387881 5.19177e-15 0.000765012 0 4.11536e-12
126 22 0.001 -0.0799995 8.56942e-19 -0.0429999 0.00241989 -2.05546e-14 0.000526409 0 4.01931e-12
354 25 0.001 -0.0811772 -4.93287e-20 -0.0441176 -0.00395387 1.1148e-12 -1.08013e-05 0 4.08427e-12
593 29 0.001 -0.061373 -8.19421e-19 -0.0431372 -0.00247644 9.95515e-15 4.20046e-05 0 4.00317e-12
594 29 0.001 -0.0611772 -1.23477e-19 -0.0441176 -0.0039535 -5.61643e-15 -1.07259e-05 0 4.08428e-12
365 26 0.001 -0.0599993 8.18788e-19 -0.0439999 0.00387881 -3.94447e-14 0.000765013 0 4.11536e-12
366 26 0.001 -0.0599995 -7.40855e-19 -0.0429999 0.00241989 -1.6792e-13 0.000526409 0 4.01931e-12
833 33 0.001 -0.041373 -6.99183e-20 -0.0431372 -0.00247644 -3.57441e-13 4.20046e-05 0 4.00317e-12
834 33 0.001 -0.0411772 -1.78851e-19 -0.0441176 -0.0039535 1.11924e-13 -1.07259e-05 0 4.08428e-12
605 30 0.001 -0.0399993 3.79738e-19 -0.0439999 0.00387881 -2.14403e-14 0.000765013 0 4.11536e-12
606 30 0.001 -0.0399995 -7.78033e-19 -0.0429999 0.00241989 -1.72195e-13 0.000526409 0 4.01931e-12
1073 37 0.001 -0.021373 6.49676e-17 -0.0431372 -0.00249028 4.50149e-12 3.92402e-05 0 4.00318e-12
1074 37 0.001 -0.0211772 3.68727e-18 -0.0441176 -0.00394795 8.01516e-13 -9.61802e-06 0 4.08428e-12
845 34 0.001 -0.0199993 -1.23476e-18 -0.0439999 0.00387881 3.40684e-14 0.000765014 0 4.11536e-12
846 34 0.001 -0.0199995 1.33738e-18 -0.0429999 0.00241989 -3.13339e-14 0.00052641 0 4.01931e-12
1313 41 0.001 -0.00137302 6.40568e-17 -0.0431372 -0.00249028 4.24604e-12 3.92402e-05 0 4.00318e-12
1314 41 0.001 -0.00117722 3.76187e-18 -0.0441176 -0.00394795 9.25103e-13 -9.61805e-06 0 4.08428e-12
1085 38 0.001 7.34539e-07 2.60441e-19 -0.0439999 0.00387881 -4.77067e-15 0.000765014 0 4.11536e-12
1086 38 0.001 4.59924e-07 -5.35823e-19 -0.0429999 0.00241989 9.52942e-15 0.00052641 0 4.01931e-12
1553 45 0.001 0.018627 6.43865e-17 -0.0431372 -0.00249028 4.25556e-12 3.92402e-05 0 4.00318e-12
1554 45 0.001 0.0188228 4.22921e-18 -0.0441176 -0.00394795 9.73873e-13 -9.61799e-06 0 4.08428e-12
1325 42 0.001 0.0200007 -9.59762e-19 -0.0439999 0.00387881 1.88048e-13 0.000765014 0 4.11536e-12
1326 42 0.001 0.0200005 1.33486e-18 -0.0429999 0.00241989 -3.81417e-13 0.00052641 0 4.01931e-12
1793 49 0.001 0.038627 -6.99183e-20 -0.0431372 -0.00247644 -3.57441e-13 4.20046e-05 0 4.00317e-12