ITEM: TIMESTEP
8
ITEM: NUMBER OF ATOMS
2279
ITEM: BOX BOUNDS ff ff ff
-1.1000000000000000e-01 1.1000000000000000e-01
-6.0000000000000001e-03 6.0000000000000001e-03
-5.5000000000000000e-02 5.5000000000000000e-02
ITEM: ATOMS id type radius x y z fx fy fz c_bendingE c_stretchingE
1 1 0.001 -0.1 0 -0.05 0.000377749 2.63886e-15 0.000505809 0 9.7894e-11
21 21 0.001 -0.1 2.7849e-19 -0.0489998 -0.000268447 8.31988e-15 -0.000260159 0 9.08633e-11
219 23 0.001 -0.0990474 6.32086e-20 -0.0500002 -0.000245894 -3.62839e-14 -0.000199081 0 7.90082e-11
220 23 0.001 -0.0980952 -4.924e-18 -0.05 0.000506534 1.3058e-13 -0.000748951 0 3.27719e-11
221 23 0.001 -0.0971429 8.59934e-19 -0.05 0.000119821 -6.6227e-14 0.000116052 0 1.50411e-12
222 23 0.001 -0.0961905 1.49935e-18 -0.05 9.67219e-06 7.04252e-12 9.43708e-05 0 7.75599e-15
223 23 0.001 -0.0952381 2.22073e-19 -0.05 3.65939e-07 -2.32744e-10 -1.09931e-05 0 1.0653e-17
224 23 0.001 -0.0942857 6.92404e-20 -0.05 8.78705e-09 1.20118e-09 -3.31718e-06 0 1.22403e-20
225 23 0.001 -0.0933333 7.41835e-14 -0.05 3.36714e-09 1.36724e-09 4.07731e-07 0 8.16534e-22
226 23 0.001 -0.092381 -1.59545e-13 -0.05 2.79458e-09 -2.62361e-08 4.5089e-08 0 2.14045e-22
227 23 0.001 -0.0914286 -2.39131e-12 -0.05 2.28008e-10 -3.72722e-08 -1.07432e-08 0 4.64676e-22
228 23 0.001 -0.0904762 1.32345e-11 -0.05 -4.311e-09 5.53599e-07 -1.55259e-08 0 4.60568e-22
229 23 0.001 -0.0895238 6.73372e-11 -0.05 2.37845e-10 -1.95537e-06 4.49345e-09 0 3.98669e-22
230 23 0.001 -0.0885714 -1.56192e-10 -0.05 3.34189e-09 2.92881e-06 -5.55426e-08 0 2.07851e-22
231 23 0.001 -0.087619 6.72416e-11 -0.05 3.27582e-09 -1.9638e-06 1.77265e-07 0 1.03158e-21
232 23 0.001 -0.0866667 1.33933e-11 -0.05 -7.24608e-09 5.41728e-07 9.93149e-07 0 1.49514e-21
233 23 0.001 -0.0857143 -2.46332e-12 -0.05 -8.26098e-09 2.36631e-09 -8.27907e-06 0 8.19126e-21
234 23 0.001 -0.0847619 -1.01168e-13 -0.05 -4.91996e-07 -5.14146e-08 -2.65674e-05 0 1.77741e-17
235 23 0.001 -0.0838095 2.75511e-14 -0.05 -1.5044e-05 5.02591e-09 0.00023288 0 1.81928e-14
236 23 0.001 -0.0828571 -9.94029e-16 -0.05 -0.000222278 3.00705e-10 0.000280235 0 4.83421e-12
237 23 0.001 -0.0819048 -4.37547e-17 -0.0500001 -0.00118884 -7.47716e-11 -0.00179768 0 1.86332e-10
3 3 0.001 -0.08 -5.08046e-17 -0.0500001 -7.07397e-05 1.06236e-12 -0.000121482 0 4.61079e-10
120 22 0.001 -0.0799979 -1.27642e-17 -0.0489999 0.00623126 3.31127e-13 0.000396246 0 7.78322e-11
238 23 0.001 -0.0809529 5.38829e-18 -0.0500006 0.000567679 4.05073e-12 -0.000619703 0 4.15615e-10
359 25 0.001 -0.080198 1.45087e-17 -0.0490199 -0.00603323 -3.56301e-13 -0.000784008 0 7.55256e-11
459 27 0.001 -0.0790472 2.40166e-16 -0.0500004 -0.000552133 1.43628e-11 -0.000444485 0 2.9541e-10
460 27 0.001 -0.0780952 -1.99814e-15 -0.0500001 0.000957898 -2.38184e-10 -0.00115318 0 1.21377e-10
461 27 0.001 -0.0771429 -9.50944e-15 -0.05 0.00018327 5.96721e-10 0.000185694 0 3.30221e-12
462 27 0.001 -0.0761905 1.03645e-13 -0.05 1.24882e-05 -2.81236e-10 0.000151193 0 1.26523e-14
463 27 0.001 -0.0752381 1.68125e-13 -0.05 4.31873e-07 -1.57773e-09 -1.75978e-05 0 1.50711e-17
464 27 0.001 -0.0742857 -2.11328e-13 -0.05 1.22166e-08 3.88733e-10 -5.38478e-06 0 2.04035e-20
465 27 0.001 -0.0733333 -4.02613e-13 -0.05 7.30369e-09 -2.81092e-09 7.23292e-07 0 1.40801e-21
466 27 0.001 -0.072381 -6.26053e-13 -0.05 -3.97826e-09 3.55913e-08 2.17309e-08 0 4.43978e-22
467 27 0.001 -0.0714286 1.97189e-12 -0.05 1.81151e-10 -7.82087e-08 2.95673e-08 0 3.25599e-23
468 27 0.001 -0.0704762 -7.33038e-13 -0.05 1.1272e-09 6.23181e-08 -3.70761e-08 0 4.78538e-23
469 27 0.001 -0.0695238 -5.39106e-13 -0.05 -5.22352e-11 -7.56135e-09 -3.46329e-09 0 1.52161e-22
470 27 0.001 -0.0685714 5.86889e-13 -0.05 -2.0451e-09 -1.64919e-08 -6.37769e-08 0 1.09686e-22
471 27 0.001 -0.067619 -6.42629e-13 -0.05 -3.14394e-09 1.60514e-08 2.68151e-07 0 6.56974e-22
472 27 0.001 -0.0666667 3.6062e-13 -0.05 2.93231e-09 -1.12628e-08 8.51641e-07 0 6.66863e-22
473 27 0.001 -0.0657143 -3.3675e-15 -0.05 -6.26898e-09 4.18293e-09 -8.18148e-06 0 3.70342e-21
474 27 0.001 -0.0647619 -2.37571e-14 -0.05 -4.96017e-07 -5.75878e-10 -2.66022e-05 0 1.78256e-17
475 27 0.001 -0.0638095 1.8165e-15 -0.05 -1.5044e-05 -2.03763e-10 0.000232902 0 1.8194e-14
476 27 0.001 -0.0628571 2.19021e-16 -0.05 -0.000222264 7.04115e-11 0.000280293 0 4.83374e-12
477 27 0.001 -0.0619048 -1.75626e-16 -0.0500001 -0.00118827 -9.21709e-12 -0.00179835 0 1.86201e-10
478 27 0.001 -0.0609529 2.6862e-16 -0.0500006 0.000579781 1.39172e-11 -0.000618564 0 4.18955e-10
5 5 0.001 -0.06 1.1741e-14 -0.0500001 -5.00022e-05 7.04438e-12 -0.000115995 0 4.6128e-10
360 26 0.001 -0.0599979 2.39661e-16 -0.0489999 0.00623529 1.40935e-11 0.000398874 0 7.75667e-11
599 29 0.001 -0.0601979 2.37273e-16 -0.0490199 -0.00594297 1.11384e-11 -0.000765732 0 7.55019e-11
699 31 0.001 -0.0590472 1.57387e-14 -0.0500004 -0.000540009 -5.46311e-10 -0.000443351 0 2.92512e-10
700 31 0.001 -0.0580952 -3.32103e-14 -0.0500001 0.000958348 1.33792e-09 -0.00115417 0 1.21475e-10
701 31 0.001 -0.0571429 1.27633e-13 -0.05 0.000183286 4.17374e-08 0.000180909 0 3.30451e-12
702 31 0.001 -0.0561905 -6.9417e-13 -0.05 1.26037e-05 -2.44552e-07 0.000247598 0 1.27564e-14
703 31 0.001 -0.0552381 -1.73681e-11 -0.05 3.9781e-07 7.51871e-07 -0.000520514 0 1.21006e-17
704 31 0.001 -0.0542857 3.62481e-11 -0.05 2.24466e-07 -1.048e-06 -0.0021099 0 7.64433e-18
705 31 0.001 -0.0533333 -1.29225e-11 -0.0499998 -1.94909e-05 5.56056e-07 0.0162334 0 8.53295e-16
706 31 0.001 -0.052381 -1.03389e-11 -0.0499983 -8.0171e-05 2.74015e-08 -0.0528422 0 2.22303e-13
707 31 0.001 -0.0514286 5.82024e-12 -0.0500036 -3.42838e-08 -1.42519e-07 0.0782539 0 4.42771e-13
708 31 0.001 -0.0504762 -1.97997e-12 -0.0499983 8.01736e-05 6.54256e-08 -0.0528541 0 2.22163e-13
709 31 0.001 -0.0495238 -1.51751e-12 -0.0499998 1.95075e-05 5.91078e-08 0.0162726 0 8.57411e-16
710 31 0.001 -0.0485714 5.14615e-12 -0.05 -1.95539e-07 -1.43991e-07 -0.00216847 0 7.87503e-18
711 31 0.001 -0.047619 -2.21766e-12 -0.05 3.98113e-09 1.04787e-07 -0.000452869 0 4.33355e-21
712 31 0.001 -0.0466667 3.43306e-13 -0.05 -1.11098e-08 -2.93408e-08 7.43535e-05 0 6.68864e-21
713 31 0.001 -0.0457143 4.10548e-13 -0.05 7.89454e-09 -1.53986e-08 -6.70517e-06 0 6.61718e-21
714 31 0.001 -0.0447619 -2.37742e-12 -0.05 -5.03229e-07 3.13495e-08 -2.67706e-05 0 1.8084e-17
715 31 0.001 -0.0438095 6.28444e-13 -0.05 -1.50387e-05 -1.50349e-08 0.000232923 0 1.81869e-14
716 31 0.001 -0.0428571 8.44871e-13 -0.05 -0.000222268 -4.17884e-09 0.000280293 0 4.83379e-12
717 31 0.001 -0.0419048 -1.18095e-13 -0.0500001 -0.00118826 6.28126e-09 -0.00179835 0 1.86201e-10
718 31 0.001 -0.0409529 -2.37588e-14 -0.0500006 0.000579781 -1.94775e-09 -0.000618564 0 4.18955e-10
7 7 0.001 -0.04 2.09437e-14 -0.0500001 -5.00022e-05 6.89037e-11 -0.000115992 0 4.6128e-10
600 30 0.001 -0.0399979 2.5521e-16 -0.0489999 0.00623529 2.25667e-11 0.000398874 0 7.75668e-11
839 33 0.001 -0.0401979 2.5542e-16 -0.0490199 -0.00594297 2.5464e-11 -0.000765732 0 7.55019e-11
939 35 0.001 -0.0390472 1.5803e-14 -0.0500004 -0.000540009 -1.58394e-10 -0.000443381 0 2.92512e-10
940 35 0.001 -0.0380952 -2.86187e-14 -0.0500001 0.000958348 2.25414e-10 -0.00115386 0 1.21475e-10
941 35 0.001 -0.0371429 -5.55774e-15 -0.05 0.000183286 3.0511e-11 0.000185751 0 3.30451e-12
942 35 0.001 -0.0361905 1.39153e-14 -0.05 1.26035e-05 -1.68948e-10 0.000151207 0 1.27564e-14
943 35 0.001 -0.0352381 1.57139e-15 -0.05 4.07561e-07 -1.85166e-10 -1.75843e-05 0 1.20971e-17
944 35 0.001 -0.0342857 -8.69122e-15 -0.05 8.12217e-09 7.13293e-10 -5.39921e-06 0 5.47635e-21
945 35 0.001 -0.0333333 7.40234e-14 -0.05 -7.18278e-10 9.79342e-10 7.21301e-07 0 1.84419e-22
946 35 0.001 -0.032381 1.18187e-13 -0.05 3.13023e-09 -5.31481e-09 4.88535e-08 0 5.84095e-22
947 35 0.001 -0.0314286 -9.21947e-13 -0.05 -2.16367e-09 -1.7859e-08 -1.66939e-08 0 6.616e-22
948 35 0.001 -0.0304762 2.78687e-12 -0.05 7.80123e-10 2.53348e-07 3.55923e-09 0 3.50049e-22
949 35 0.001 -0.0295238 1.81547e-11 -0.05 2.26829e-09 -2.59585e-07 -2.2582e-08 0 2.60861e-22
950 35 0.001 -0.0285714 -1.20139e-10 -0.05 4.06486e-09 -1.95632e-06 -8.18139e-08 0 3.87959e-21
951 35 0.001 -0.027619 -3.24743e-10 -0.05 -1.5493e-08 8.74799e-06 3.5234e-07 0 1.09627e-20
952 35 0.001 -0.0266667 8.48148e-10 -0.05 1.36132e-08 -1.38362e-05 5.08674e-07 0 9.25542e-21
953 35 0.001 -0.0257143 -3.16909e-10 -0.05 -1.24331e-08 9.14656e-06 -7.75582e-06 0 5.75895e-21
954 35 0.001 -0.0247619 -1.32056e-10 -0.05 -5.02171e-07 -1.66651e-06 -2.66458e-05 0 1.83528e-17
955 35 0.001 -0.0238095 2.3299e-11 -0.05 -1.50301e-05 -8.17928e-07 0.000232772 0 1.81741e-14
956 35 0.001 -0.0228571 2.7098e-12 -0.05 -0.00022229 4.47449e-07 0.00028025 0 4.8344e-12
957 35 0.001 -0.0219048 -5.11619e-13 -0.0500001 -0.00118883 -3.14995e-08 -0.00179769 0 1.86331e-10
9 9 0.001 -0.02 8.66548e-15 -0.0500001 -7.03742e-05 6.70981e-10 -0.0001214 0 4.6108e-10
840 34 0.001 -0.0199979 7.86138e-17 -0.0489999 0.00623128 1.29353e-11 0.000396254 0 7.78311e-11
958 35 0.001 -0.0209529 -5.15357e-15 -0.0500006 0.000567741 -6.29936e-09 -0.000619695 0 4.15631e-10
1079 37 0.001 -0.020198 7.50659e-17 -0.0490199 -0.00601624 1.04168e-11 -0.000780606 0 7.55253e-11
1179 39 0.001 -0.0190472 8.15143e-16 -0.0500004 -0.000552074 -3.55288e-11 -0.000444481 0 2.95397e-10
1180 39 0.001 -0.0180952 -9.9217e-15 -0.0500001 0.000957906 5.42267e-11 -0.00115318 0 1.21378e-10
1181 39 0.001 -0.0171429 -4.5362e-15 -0.05 0.000183263 1.54793e-10 0.000185698 0 3.30206e-12
1182 39 0.001 -0.0161905 2.81612e-14 -0.05 1.24939e-05 -3.62738e-10 0.000151182 0 1.26597e-14
1183 39 0.001 -0.0152381 -6.23054e-15 -0.05 4.22934e-07 1.84839e-10 -1.75753e-05 0 1.4827e-17
1184 39 0.001 -0.0142857 -8.11541e-15 -0.05 1.68621e-08 9.93887e-11 -5.40865e-06 0 3.31847e-20
1185 39 0.001 -0.0133333 -3.10372e-15 -0.05 9.67029e-09 -5.16856e-09 7.61261e-07 0 2.14512e-21
1186 39 0.001 -0.012381 3.12786e-14 -0.05 -5.0283e-09 2.64646e-08 -7.54274e-08 0 1.41233e-21
1187 39 0.001 -0.0114286 1.18346e-12 -0.05 7.00201e-09 -1.56097e-09 1.60985e-07 0 8.65079e-22
1188 39 0.001 -0.0104762 -6.26416e-12 -0.05 6.87367e-09 -2.45562e-07 -1.1871e-07 0 4.8936e-21
1189 39 0.001 -0.00952381 -3.11794e-11 -0.05 -1.60818e-08 9.0444e-07 1.32603e-08 0 6.32668e-21
1190 39 0.001 -0.00857143 7.24961e-11 -0.05 1.69615e-09 -1.36435e-06 -1.82003e-08 0 1.81812e-21
1191 39 0.001 -0.00761905 -3.12276e-11 -0.05 -2.69422e-09 9.18749e-07 1.24006e-07 0 8.31706e-22
1192 39 0.001 -0.00666667 -6.21395e-12 -0.05 8.82579e-09 -2.51299e-07 1.04278e-06 0 1.8034e-21
1193 39 0.001 -0.00571429 1.13897e-12 -0.05 -1.45553e-08 -3.10962e-09 -8.30324e-06 0 8.13937e-21
1194 39 0.001 -0.0047619 5.09058e-14 -0.05 -4.94099e-07 2.37008e-08 -2.65625e-05 0 1.78642e-17
1195 39 0.001 -0.00380952 -1.32083e-14 -0.05 -1.50424e-05 -2.28085e-09 0.000232877 0 1.81895e-14
1196 39 0.001 -0.00285715 4.50106e-16 -0.05 -0.000222282 -1.53844e-10 0.000280238 0 4.83435e-12
1197 39 0.001 -0.00190484 4.49371e-17 -0.0500001 -0.00118883 3.65636e-11 -0.00179769 0 1.86331e-10
1198 39 0.001 -0.000952879 -3.09201e-18 -0.0500006 0.000567741 -1.9621e-12 -0.000619695 0 4.15631e-10
1319 41 0.001 -0.000197952 1.78652e-17 -0.0490199 -0.00601624 -5.03059e-13 -0.000780606 0 7.55253e-11
11 11 0.001 -1.62211e-08 -3.37232e-17 -0.0500001 -7.03659e-05 2.13312e-13 -0.0001214 0 4.61082e-10
1080 38 0.001 2.10251e-06 8.20007e-18 -0.0489999 0.00623128 -2.69726e-13 0.000396254 0 7.78311e-11
1419 43 0.001 0.000952784 3.99294e-18 -0.0500004 -0.000552049 6.06995e-12 -0.000444481 0 2.95389e-10
1420 43 0.001 0.00190482 3.82212e-17 -0.0500001 0.000957785 -1.45855e-10 -0.00115318 0 1.2137e-10
1421 43 0.001 0.00285715 -1.50845e-15 -0.05 0.00018327 2.42962e-09 0.000185694 0 3.30402e-12
1422 43 0.001 0.00380952 2.93889e-14 -0.05 1.25995e-05 -6.56742e-09 0.000151253 0 1.27554e-14
1423 43 0.001 0.0047619 -7.09907e-13 -0.05 4.12268e-07 -4.48529e-07 -1.72852e-05 0 1.23149e-17
1424 43 0.001 0.00571429 2.90065e-12 -0.05 7.75096e-09 1.59802e-06 -1.8209e-05 0 3.44958e-21
1425 43 0.001 0.00666667 7.49825e-11 -0.05 1.93193e-09 -3.58309e-06 7.30758e-05 0 1.11981e-21
1426 43 0.001 0.00761905 -1.54462e-10 -0.05 -6.48578e-09 4.80466e-06 0.000345456 0 1.62963e-20
1427 43 0.001 0.00857143 7.56257e-11 -0.05 -4.9005e-07 -3.12536e-06 -0.0025886 0 5.42399e-19
1428 43 0.001 0.00952381 1.80773e-12 -0.0500003 -2.02009e-06 9.0103e-07 0.00840698 0 1.42775e-16
1429 43 0.001 0.0104762 -6.71726e-13 -0.0499994 -3.23664e-09 -2.29541e-07 -0.0124474 0 2.83644e-16
1430 43 0.001 0.0114286 1.29623e-12 -0.0500003 2.03282e-06 5.61443e-07 0.00840672 0 1.41973e-16
1431 43 0.001 0.012381 4.73646e-11 -0.05 4.874e-07 -1.95974e-06 -0.00258773 0 5.83335e-19
1432 43 0.001 0.0133333 -9.60633e-11 -0.05 -2.30651e-09 3.04546e-06 0.000344585 0 6.45055e-21
1433 43 0.001 0.0142857 4.70353e-11 -0.05 -9.45691e-09 -2.12133e-06 6.5748e-05 0 4.81122e-21
1434 43 0.001 0.0152381 9.38612e-13 -0.05 -4.98373e-07 6.59379e-07 -3.92344e-05 0 1.80608e-17
1435 43 0.001 0.0161905 -1.77047e-13 -0.05 -1.50383e-05 -9.72873e-08 0.000232695 0 1.81865e-14
1436 43 0.001 0.0171429 1.28811e-13 -0.05 -0.000222283 -2.15327e-09 0.000280274 0 4.83435e-12
1437 43 0.001 0.0180952 -1.54264e-14 -0.0500001 -0.00118883 1.57464e-09 -0.00179769 0 1.86331e-10
1438 43 0.001 0.0190471 -9.12779e-15 -0.0500006 0.000567739 -2.61605e-10 -0.000619695 0 4.1563e-10
13 13 0.001 0.02 2.85174e-15 -0.0500001 -7.03805e-05 -3.10894e-12 -0.0001214 0 4.61078e-10
1320 42 0.001 0.0200021 6.40856e-17 -0.0489999 0.00623128 2.50759e-12 0.000396254 0 7.78311e-11
1559 45 0.001 0.019802 3.81304e-17 -0.0490199 -0.00601624 3.15241e-12 -0.000780606 0 7.55253e-11
1659 47 0.001 0.0209528 6.68271e-17 -0.0500004 -0.000552069 3.44479e-12 -0.000444481 0 2.95398e-10
1660 47 0.001 0.0219048 -4.70125e-17 -0.0500001 0.000958057 -1.18311e-12 -0.00115318 0 1.21376e-10
1661 47 0.001 0.0228571 -2.20834e-18 -0.05 0.000182882 -2.37959e-13 0.000185696 0 3.29747e-12
1662 47 0.001 0.0238095 9.3612e-18 -0.05 1.27628e-05 -2.1308e-13 0.000151189 0 1.30828e-14
1663 47 0.001 0.0247619 -5.45628e-19 -0.05 4.14658e-07 1.35297e-13 -1.75928e-05 0 1.1003e-17
1664 47 0.001 0.0257143 -1.63461e-19 -0.05 -1.45915e-08 -3.56066e-14 -5.37759e-06 0 9.90844e-21
1665 47 0.001 0.0266667 1.78289e-20 -0.05 1.38189e-08 3.61526e-15 6.9617e-07 0 9.04313e-21
1666 47 0.001 0.027619 -1.85197e-22 -0.05 9.86115e-10 3.5139e-16 6.52705e-08 0 4.4322e-21
1667 47 0.001 0.0285714 -8.56756e-22 -0.05 -1.94209e-08 -1.31433e-17 -1.58058e-08 0 1.53501e-20
1668 47 0.001 0.0295238 1.88516e-22 -0.05 2.35734e-08 -4.4609e-17 -4.68069e-08 0 1.89122e-20
1669 47 0.001 0.0304762 -6.99028e-23 -0.05 -1.21686e-08 7.91872e-17 3.51908e-08 0 6.5849e-21
1670 47 0.001 0.0314286 2.09087e-23 -0.05 2.33638e-09 -8.69735e-17 -3.11228e-08 0 3.8643e-22
1671 47 0.001 0.032381 -6.45944e-22 -0.05 1.14602e-09 1.62813e-17 1.38509e-07 0 8.64207e-23
1672 47 0.001 0.0333333 3.94432e-21 -0.05 -1.71931e-09 4.51297e-15 1.03439e-06 0 2.75571e-22
1673 47 0.001 0.0342857 5.06855e-20 -0.05 -4.77146e-09 -2.16454e-14 -8.30543e-06 0 2.13047e-21
1674 47 0.001 0.0352381 -1.23062e-18 -0.05 -5.01211e-07 8.04924e-14 -2.65736e-05 0 1.81356e-17
1675 47 0.001 0.0361905 5.73749e-18 -0.05 -1.5038e-05 3.93093e-14 0.000232904 0 1.8187e-14
1676 47 0.001 0.0371429 -1.54762e-18 -0.05 -0.000222268 -1.43927e-12 0.000280292 0 4.83379e-12
1677 47 0.001 0.0380952 -1.40918e-16 -0.0500001 -0.00118826 -5.25407e-12 -0.00179835 0 1.86201e-10
1678 47 0.001 0.0390471 2.6934e-16 -0.0500006 0.000579781 1.43755e-11 -0.000618564 0 4.18955e-10
15 15 0.001 0.04 1.17514e-14 -0.0500001 -5.00022e-05 -1.01972e-11 -0.000115992 0 4.6128e-10
1560 46 0.001 0.0400021 2.04799e-16 -0.0489999 0.00623529 1.17764e-11 0.000398874 0 7.75668e-11
1799 49 0.001 0.0398021 2.04877e-16 -0.0490199 -0.00594297 1.16706e-11 -0.000765732 0 7.55019e-11
1899 51 0.001 0.0409528 1.57379e-14 -0.0500004 -0.000540009 -1.72134e-10 -0.000443381 0 2.92512e-10
1900 51 0.001 0.0419048 -2.85804e-14 -0.0500001 0.000958348 2.32939e-10 -0.00115386 0 1.21475e-10
1901 51 0.001 0.0428571 -5.5612e-15 -0.05 0.000183286 3.0903e-11 0.000185751 0 3.30451e-12
1902 51 0.001 0.0438095 1.3915e-14 -0.05 1.26035e-05 -1.92213e-10 0.000151207 0 1.27564e-14
1903 51 0.001 0.0447619 1.54957e-15 -0.05 4.07488e-07 8.85131e-11 -1.75847e-05 0 1.21025e-17
1904 51 0.001 0.0457143 -1.51417e-15 -0.05 6.58913e-09 -1.89706e-10 -5.39439e-06 0 6.1037e-21
1905 51 0.001 0.0466667 6.11275e-16 -0.05 6.96643e-09 6.0756e-10 7.08783e-07 0 8.30972e-22
1906 51 0.001 0.047619 9.8862e-14 -0.05 1.23027e-09 -8.42789e-10 6.47179e-08 0 2.63546e-21
1907 51 0.001 0.0485714 5.71075e-14 -0.05 -1.36184e-08 -1.11446e-08 -4.5285e-08 0 6.18558e-21
1908 51 0.001 0.0495238 -3.85558e-13 -0.05 9.19848e-09 2.45499e-08 3.63545e-08 0 4.82046e-21
1909 51 0.001 0.0504762 2.22538e-13 -0.05 -5.00006e-09 -1.43527e-08 -3.31863e-08 0 1.43913e-21
1910 51 0.001 0.0514286 7.0834e-15 -0.05 5.45131e-09 1.34383e-09 -1.71799e-08 0 1.2935e-21
1911 51 0.001 0.052381 -1.77266e-17 -0.05 -3.46673e-09 3.79225e-11 9.46954e-08 0 6.57952e-22
1912 51 0.001 0.0533333 1.84408e-20 -0.05 -5.22043e-09 -1.88416e-11 1.09815e-06 0 2.34474e-21
1913 51 0.001 0.0542857 -9.98257e-20 -0.05 1.83101e-09 1.63325e-14 -8.33603e-06 0 3.0191e-21
1914 51 0.001 0.0552381 -1.92939e-19 -0.05 -5.02204e-07 -1.80308e-13 -2.65598e-05 0 1.8102e-17
1915 51 0.001 0.0561905 1.24908e-18 -0.05 -1.50385e-05 -4.71208e-13 0.000232882 0 1.81872e-14
1916 51 0.001 0.0571429 -4.1196e-19 -0.05 -0.00022228 3.12521e-13 0.000280252 0 4.83425e-12
1917 51 0.001 0.0580952 -1.10299e-18 -0.0500001 -0.00118884 6.013e-12 -0.00179778 0 1.86331e-10
17 17 0.001 0.06 -6.11121e-15 -0.0500001 -7.03029e-05 -8.20445e-10 -9.98154e-05 0 4.61029e-10
1800 50 0.001 0.0600021 4.39357e-18 -0.0489999 0.00623128 -1.09727e-11 0.000396587 0 7.78038e-11
1918 51 0.001 0.0590471 4.77694e-19 -0.0500006 0.000567742 -1.00573e-11 -0.000619549 0 4.15631e-10
2039 53 0.001 0.059802 -3.52666e-17 -0.0490199 -0.00601628 -7.57679e-12 -0.000780282 0 7.54995e-11
2139 55 0.001 0.0609528 6.64153e-15 -0.0500004 -0.000551979 1.10993e-08 -0.000681519 0 2.95389e-10
2140 55 0.001 0.0619048 7.18946e-13 -0.05 0.000957528 -6.12542e-09 0.00078365 0 1.21366e-10
2141 55 0.001 0.0628571 -2.45449e-12 -0.0499998 0.000208019 -1.22874e-07 0.03052 0 3.3202e-12
2142 55 0.001 0.0638095 -1.26021e-11 -0.0500008 -0.00162968 4.69342e-07 -0.193192 0 3.70746e-11
2143 55 0.001 0.064762 2.86033e-11 -0.0500143 0.0251486 -8.23769e-07 -0.319101 0 4.31616e-08
2144 55 0.001 0.0657048 -1.05684e-11 -0.0499382 -0.259094 2.047e-06 1.93604 0 2.82638e-05
2145 55 0.001 0.066674 6.40811e-11 -0.0493776 1.43837 -2.92725e-06 -8.71771 0 0.00153936
2146 55 0.001 0.067619 -1.61572e-09 -0.0513385 -1.3364e-05 -7.9569e-05 14.5241 0 0.0030223
2147 55 0.001 0.0685641 1.32042e-08 -0.0493776 -1.43812 0.00122492 -8.71709 0 0.00153934
2148 55 0.001 0.0695333 2.03988e-07 -0.049938 0.259213 -0.00599889 1.93088 0 2.82254e-05
2149 55 0.001 0.0704761 -4.2779e-07 -0.0500148 -0.0256127 0.0101089 -0.309786 0 4.24915e-08
2150 55 0.001 0.0714286 1.90022e-07 -0.0500006 0.00175118 -0.00714441 -0.199547 0 4.26961e-11
2151 55 0.001 0.072381 2.95888e-08 -0.0499998 -1.75952e-05 0.00212546 0.0315939 0 6.62535e-15
2152 55 0.001 0.0733333 -7.37701e-09 -0.05 2.79666e-07 -0.000131452 0.00232639 0 2.73441e-20
2153 55 0.001 0.0742857 -1.13511e-10 -0.05 -8.91771e-09 -0.000132162 -0.000487407 0 1.44045e-20
2154 55 0.001 0.0752381 2.56828e-11 -0.05 -8.2485e-07 2.8671e-05 3.05024e-05 0 4.87677e-17
2155 55 0.001 0.0761905 -1.88828e-13 -0.05 -2.99921e-05 -2.21815e-08 2.18679e-06 0 6.99738e-14
2156 55 0.001 0.0771428 -6.84164e-15 -0.05 -0.000498532 -7.47445e-08 -6.69816e-06 0 2.34557e-11
2157 55 0.001 0.0780951 -1.54528e-16 -0.05 -0.00190977 2.78909e-09 -2.71689e-07 0 7.06815e-10
2158 55 0.001 0.0790466 1.86337e-17 -0.05 0.000854755 -6.05509e-12 -0.0055114 0 7.9391e-10
2279 57 0.001 0.0797996 -4.59969e-17 -0.0490196 0.00230973 1.12124e-13 -0.00656066 0 6.92226e-10
19 19 0.001 0.0799993 -1.12359e-16 -0.05 0.000739379 -5.13537e-13 0.00209214 0 6.07756e-10
2040 54 0.001 0.0800069 -2.4089e-16 -0.049 -0.000593572 2.65553e-12 -0.00191722 0 7.82357e-13
22 21 0.001 -0.1 2.63645e-18 -0.048 -0.000658902 -2.31365e-14 0.000539003 0 4.11561e-11
121 22 0.001 -0.0799979 2.25949e-17 -0.0479997 0.00851069 -6.89014e-13 0.000594372 0 5.23991e-11
358 25 0.001 -0.0803942 -2.39603e-17 -0.0480393 -0.00768166 5.61909e-13 -0.000933097 0 5.20441e-11
598 29 0.001 -0.0603943 -1.3433e-16 -0.0480393 -0.00795291 -4.23563e-12 -0.000987371 0 5.20449e-11
361 26 0.001 -0.0599979 -1.58817e-16 -0.0479997 0.00850879 -8.89685e-12 0.000594496 0 5.23852e-11
601 30 0.001 -0.0399979 -1.19495e-16 -0.0479997 0.00850879 -1.02667e-11 0.000594496 0 5.23853e-11
838 33 0.001 -0.0403943 -1.2015e-16 -0.0480393 -0.00795291 -1.40144e-11 -0.000987371 0 5.20449e-11
841 34 0.001 -0.0199979 -3.54669e-17 -0.0479997 0.00851069 -9.72055e-12 0.000594382 0 5.23992e-11
1078 37 0.001 -0.0203942 -2.69353e-17 -0.0480393 -0.00767157 -4.84126e-12 -0.000931086 0 5.2044e-11
1318 41 0.001 -0.000394249 -2.51103e-17 -0.0480393 -0.00767157 7.5748e-13 -0.000931086 0 5.2044e-11
1081 38 0.001 2.10473e-06 -1.45051e-17 -0.0479997 0.00851069 4.17462e-13 0.000594382 0 5.23992e-11
1321 42 0.001 0.0200021 -4.25315e-17 -0.0479997 0.00851069 -6.51428e-13 0.000594382 0 5.23992e-11
1558 45 0.001 0.0196058 -4.12447e-18 -0.0480393 -0.00767157 -1.40607e-12 -0.000931086 0 5.2044e-11
1561 46 0.001 0.0400021 -9.47233e-17 -0.0479997 0.00850879 -5.11517e-12 0.000594496 0 5.23853e-11
1798 49 0.001 0.0396057 -9.53648e-17 -0.0480393 -0.00795291 -4.30742e-12 -0.000987371 0 5.20449e-11
1801 50 0.001 0.0600021 -5.71145e-18 -0.0479997 0.00851069 9.6309e-12 0.000594382 0 5.23992e-11
2038 53 0.001 0.0596058 4.93558e-17 -0.0480393 -0.00767155 3.07419e-12 -0.000931081 0 5.2044e-11
2278 57 0.001 0.0796055 7.46561e-17 -0.0480393 -0.0124779 8.44907e-13 -0.000135205 0 1.99408e-10
2041 54 0.001 0.0800071 4.00876e-16 -0.048 0.00388338 -7.88901e-12 0.00260361 0 2.07028e-16
23 21 0.001 -0.1 3.03223e-19 -0.047 0.000121875 -2.1893e-15 7.08384e-05 0 4.54831e-13
24 21 0.001 -0.1 -1.66542e-18 -0.046 7.09674e-05 2.38741e-14 3.02004e-06 0 7.16223e-16
122 22 0.001 -0.0799981 -1.21858e-17 -0.0469997 0.00729627 4.84228e-13 0.00107165 0 1.22997e-12
123 22 0.001 -0.0799984 1.43885e-18 -0.0459997 0.00607296 -1.2685e-13 0.00104486 0 3.25136e-12
356 25 0.001 -0.080786 1.32379e-18 -0.0460785 -0.00624732 6.00348e-14 -0.000186533 0 3.19327e-12
357 25 0.001 -0.0805902 1.05249e-17 -0.0470589 -0.00751865 -3.56051e-13 -0.000415382 0 1.22578e-12
596 29 0.001 -0.060786 8.74667e-18 -0.0460785 -0.00620144 2.29082e-14 -0.000177365 0 3.19333e-12
597 29 0.001 -0.0605902 -3.26853e-18 -0.0470589 -0.00745058 -9.54863e-13 -0.000401776 0 1.22592e-12
362 26 0.001 -0.0599981 2.0881e-17 -0.0469997 0.00729615 5.75174e-13 0.00107159 0 1.22986e-12
363 26 0.001 -0.0599984 4.66692e-18 -0.0459997 0.006073 4.75461e-13 0.00104487 0 3.25133e-12
836 33 0.001 -0.040786 -2.36556e-18 -0.0460785 -0.00620144 1.16712e-12 -0.000177365 0 3.19333e-12
602 30 0.001 -0.0399981 -6.89182e-18 -0.0469997 0.00729615 -8.24998e-13 0.00107159 0 1.22986e-12
603 30 0.001 -0.0399984 5.09151e-19 -0.0459997 0.006073 1.07933e-13 0.00104487 0 3.25133e-12
837 33 0.001 -0.0405902 -3.99747e-18 -0.0470589 -0.00745058 -2.47814e-13 -0.000401776 0 1.22592e-12
842 34 0.001 -0.0199981 -4.96467e-18 -0.0469997 0.00729625 1.8372e-12 0.00107165 0 1.22998e-12
843 34 0.001 -0.0199984 1.83302e-18 -0.0459997 0.00607297 2.36861e-13 0.00104485 0 3.25136e-12
1076 37 0.001 -0.020786 -2.14113e-18 -0.0460785 -0.00623651 3.28555e-14 -0.000184373 0 3.19325e-12
1077 37 0.001 -0.0205902 -5.4754e-18 -0.0470589 -0.00757391 -2.7186e-13 -0.000426421 0 1.22574e-12
1316 41 0.001 -0.000785962 2.54341e-18 -0.0460785 -0.00623651 -9.34665e-14 -0.000184373 0 3.19325e-12
1317 41 0.001 -0.000590167 6.21163e-18 -0.0470589 -0.00757391 -3.5811e-13 -0.000426421 0 1.22574e-12
1082 38 0.001 1.89472e-06 7.48138e-18 -0.0469997 0.00729625 -2.31133e-13 0.00107165 0 1.22998e-12
1083 38 0.001 1.62128e-06 -3.28881e-19 -0.0459997 0.00607297 3.79068e-14 0.00104485 0 3.25136e-12
1556 45 0.001 0.019214 -7.8867e-18 -0.0460785 -0.00623651 1.07417e-13 -0.000184373 0 3.19325e-12
1557 45 0.001 0.0194098 -8.75888e-19 -0.0470589 -0.00757391 -2.28042e-13 -0.000426421 0 1.22574e-12
1322 42 0.001 0.0200019 4.73747e-18 -0.0469997 0.00729625 -4.31795e-13 0.00107165 0 1.22998e-12
1323 42 0.001 0.0200016 1.63596e-18 -0.0459997 0.00607297 1.62022e-14 0.00104485 0 3.25136e-12
1562 46 0.001 0.0400019 -6.5835e-18 -0.0469997 0.00729615 -6.41867e-13 0.00107159 0 1.22986e-12
1563 46 0.001 0.0400016 4.58649e-19 -0.0459997 0.006073 7.90834e-14 0.00104487 0 3.25133e-12
1796 49 0.001 0.039214 -2.41612e-18 -0.0460785 -0.00620144 1.13824e-12 -0.000177365 0 3.19333e-12
1797 49 0.001 0.0394098 -3.68864e-18 -0.0470589 -0.00745058 -2.11037e-12 -0.000401776 0 1.22592e-12
1802 50 0.001 0.0600019 1.05831e-19 -0.0469997 0.00729625 -3.08817e-12 0.00107165 0 1.22998e-12
1803 50 0.001 0.0600016 8.01965e-19 -0.0459997 0.00607297 2.35811e-13 0.00104485 0 3.25135e-12
2036 53 0.001 0.059214 -8.96331e-18 -0.0460785 -0.00623735 3.01192e-14 -0.000184542 0 3.19325e-12
2037 53 0.001 0.0594098 -1.07032e-17 -0.0470589 -0.00757401 4.77873e-13 -0.00042644 0 1.22575e-12
2276 57 0.001 0.0792141 -2.57591e-18 -0.0460785 -0.00554314 1.8701e-12 -4.31483e-05 0 3.41536e-12
2277 57 0.001 0.0794099 -4.33942e-17 -0.0470589 -0.00710697 -2.56884e-12 -6.80936e-05 0 4.72903e-12
2042 54 0.001 0.0800062 -8.19832e-17 -0.047 0.00412908 9.02726e-12 0.00260531 0 4.23512e-16
2043 54 0.001 0.0800052 -1.05278e-16 -0.046 0.00280651 -2.67458e-12 0.00234608 0 4.89498e-16
25 21 0.001 -0.1 -1.00783e-19 -0.045 -9.14037e-06 -1.02749e-14 5.10912e-08 0 2.67948e-19
124 22 0.001 -0.0799987 -6.26959e-19 -0.0449998 0.00483996 -1.88923e-14 0.000888093 0 5.615e-12
355 25 0.001 -0.0809817 -3.04351e-18 -0.0450981 -0.00492985 -2.56308e-13 -8.15095e-05 0 5.55537e-12
595 29 0.001 -0.0609817 1.37903e-18 -0.0450981 -0.0049169 2.51098e-14 -7.89221e-05 0 5.5554e-12
364 26 0.001 -0.0599987 -1.49668e-18 -0.0449998 0.00483997 7.86679e-14 0.000888099 0 5.61502e-12
835 33 0.001 -0.0409817 1.25065e-18 -0.0450981 -0.0049169 -3.40752e-13 -7.89221e-05 0 5.5554e-12
604 30 0.001 -0.0399987 3.13201e-19 -0.0449998 0.00483997 1.31155e-14 0.000888099 0 5.61502e-12
844 34 0.001 -0.0199987 8.37424e-19 -0.0449998 0.00483997 -2.75574e-15 0.000888095 0 5.61498e-12
1075 37 0.001 -0.0209817 1.05827e-19 -0.0450981 -0.00491025 -4.38673e-14 -7.7596e-05 0 5.55538e-12
1315 41 0.001 -0.000981704 5.06721e-19 -0.0450981 -0.00491025 1.31173e-13 -7.7596e-05 0 5.55538e-12
1084 38 0.001 1.28932e-06 5.2679e-20 -0.0449998 0.00483997 -2.56282e-15 0.000888095 0 5.61498e-12
1555 45 0.001 0.0190183 -3.52834e-19 -0.0450981 -0.00491025 -3.44056e-14 -7.7596e-05 0 5.55538e-12
1324 42 0.001 0.0200013 1.47055e-19 -0.0449998 0.00483997 1.44925e-14 0.000888095 0 5.61498e-12
1795 49 0.001 0.0390183 1.25028e-18 -0.0450981 -0.0049169 -3.41402e-13 -7.89221e-05 0 5.5554e-12
1564 46 0.001 0.0400013 3.12837e-19 -0.0449998 0.00483997 1.2467e-14 0.000888099 0 5.61502e-12
1804 50 0.001 0.0600013 8.43135e-19 -0.0449998 0.00483997 4.63784e-14 0.000888095 0 5.61499e-12
2035 53 0.001 0.0590183 5.27019e-19 -0.0450981 -0.00491298 -3.60092e-14 -7.8141e-05 0 5.55539e-12
2275 57 0.001 0.0790183 -8.82765e-19 -0.0450981 -0.00487811 -6.28351e-13 -8.08692e-05 0 5.56036e-12
2044 54 0.001 0.0800041 2.73714e-17 -0.045 0.0018355 -9.51201e-13 0.00193873 0 6.87764e-16
26 21 0.001 -0.1 1.14241e-19 -0.044 -2.11605e-06 -1.40117e-15 -9.03145e-09 0 2.92688e-23
27 21 0.001 -0.1 3.26309e-21 -0.043 2.50016e-07 1.69473e-15 -9.67724e-09 0 9.69766e-28
353 25 0.001 -0.0813731 1.29632e-16 -0.0431372 -0.00223537 -4.2452e-13 3.96951e-05 0 6.42226e-12
125 22 0.001 -0.0799991 2.37166e-21 -0.0439998 0.0035019 8.63446e-14 0.000689297 0 6.5904e-12
126 22 0.001 -0.0799994 1.03468e-18 -0.0429999 0.00218414 -2.06489e-13 0.000477025 0 6.4479e-12
354 25 0.001 -0.0811774 6.17735e-18 -0.0441176 -0.00356917 2.12646e-12 -1.11173e-05 0 6.54072e-12
593 29 0.001 -0.0613731 -9.98994e-19 -0.0431372 -0.00223509 -1.21454e-13 3.97509e-05 0 6.42226e-12
594 29 0.001 -0.0611774 -2.18344e-19 -0.0441176 -0.00356854 -6.06457e-15 -1.09901e-05 0 6.54072e-12
365 26 0.001 -0.0599991 1.0625e-18 -0.0439998 0.00350191 -2.53468e-13 0.000689298 0 6.59041e-12
366 26 0.001 -0.0599994 -1.92769e-18 -0.0429999 0.00218414 2.79899e-13 0.000477025 0 6.4479e-12
833 33 0.001 -0.0413731 -1.82044e-18 -0.0431372 -0.00223509 1.91442e-13 3.97508e-05 0 6.42226e-12
834 33 0.001 -0.0411774 3.42457e-19 -0.0441176 -0.00356854 4.98448e-14 -1.099e-05 0 6.54072e-12
605 30 0.001 -0.0399991 6.24693e-19 -0.0439998 0.00350191 -2.14522e-14 0.000689298 0 6.59041e-12
606 30 0.001 -0.0399994 -2.01236e-18 -0.0429999 0.00218414 3.87103e-14 0.000477025 0 6.4479e-12
1073 37 0.001 -0.0213731 1.20537e-16 -0.0431372 -0.00225108 -1.30529e-12 3.65594e-05 0 6.42228e-12
1074 37 0.001 -0.0211774 1.06495e-17 -0.0441176 -0.00356247 2.0545e-12 -9.77879e-06 0 6.54074e-12
845 34 0.001 -0.0199991 -1.48131e-18 -0.0439998 0.00350191 3.2152e-14 0.0006893 0 6.5904e-12
846 34 0.001 -0.0199994 1.54165e-18 -0.0429999 0.00218414 -3.18346e-14 0.000477026 0 6.4479e-12
1313 41 0.001 -0.00137315 1.18025e-16 -0.0431372 -0.00225108 -1.16311e-12 3.65595e-05 0 6.42228e-12
1314 41 0.001 -0.00117742 1.11522e-17 -0.0441176 -0.00356247 1.93853e-12 -9.77883e-06 0 6.54074e-12
1085 38 0.001 9.31657e-07 3.96567e-19 -0.0439998 0.00350191 -1.02857e-14 0.0006893 0 6.5904e-12
1086 38 0.001 5.83242e-07 -7.77573e-19 -0.0429999 0.00218414 1.26234e-14 0.000477026 0 6.4479e-12
1553 45 0.001 0.0186269 1.18413e-16 -0.0431372 -0.00225108 -1.24274e-12 3.65594e-05 0 6.42228e-12
1554 45 0.001 0.0188226 1.2217e-17 -0.0441176 -0.00356247 2.02018e-12 -9.77878e-06 0 6.54074e-12
1325 42 0.001 0.0200009 -3.57923e-19 -0.0439998 0.00350191 -1.2844e-14 0.0006893 0 6.5904e-12
1326 42 0.001 0.0200006 -1.51518e-19 -0.0429999 0.00218414 3.82236e-14 0.000477026 0 6.4479e-12
1793 49 0.001 0.0386269 -1.82044e-18 -0.0431372 -0.00223509 1.91443e-13 3.97508e-05 0 6.42226e-12