ITEM: TIMESTEP
3
ITEM: NUMBER OF ATOMS
2279
ITEM: BOX BOUNDS ff ff ff
-1.1000000000000000e-01 1.1000000000000000e-01
-6.0000000000000001e-03 6.0000000000000001e-03
-5.5000000000000000e-02 5.5000000000000000e-02
ITEM: ATOMS id type radius x y z fx fy fz c_bendingE c_stretchingE
1 1 0.001 -0.1 0 -0.05 -7.62052e-05 1.01235e-14 9.57593e-05 0 3.6337e-12
21 21 0.001 -0.1 -1.34834e-21 -0.049 -0.00146734 -4.82194e-16 0.00140892 0 3.67577e-12
219 23 0.001 -0.0990476 4.81737e-23 -0.05 0.00134082 4.07562e-15 -0.00151259 0 3.20574e-12
220 23 0.001 -0.0980952 -9.68333e-23 -0.05 0.000271557 -1.89119e-13 -0.000218046 0 1.45093e-12
221 23 0.001 -0.0971429 2.06711e-23 -0.05 1.58667e-05 1.24721e-13 7.08034e-05 0 1.75722e-14
222 23 0.001 -0.0961905 5.43623e-23 -0.05 1.04662e-07 -2.18487e-18 3.16569e-06 0 1.7486e-18
223 23 0.001 -0.0952381 -2.67939e-23 -0.05 1.5258e-08 1.48214e-16 -5.6867e-07 0 1.96906e-20
224 23 0.001 -0.0942857 0 -0.05 -3.3407e-09 -2.92801e-16 -8.71743e-08 0 1.60777e-22
225 23 0.001 -0.0933333 0 -0.05 3.44103e-09 1.46068e-16 7.73746e-09 0 1.59983e-22
226 23 0.001 -0.092381 0 -0.05 2.68305e-09 0 -1.59905e-08 0 3.20781e-23
227 23 0.001 -0.0914286 0 -0.05 5.39143e-11 0 -1.59905e-08 0 5.93187e-23
228 23 0.001 -0.0904762 0 -0.05 -3.29767e-09 0 -1.59905e-08 0 2.98412e-23
229 23 0.001 -0.0895238 0 -0.05 2.06434e-10 0 -1.59905e-08 0 1.07052e-23
230 23 0.001 -0.0885714 0 -0.05 -2.28289e-08 0 -1.59905e-08 0 4.92705e-23
231 23 0.001 -0.087619 0 -0.05 5.65009e-09 -8.9527e-15 -1.46408e-08 0 2.06093e-22
232 23 0.001 -0.0866667 0 -0.05 1.67281e-08 1.79054e-14 -1.86899e-08 0 2.06093e-22
233 23 0.001 -0.0857143 2.16187e-21 -0.05 -1.68546e-11 -8.99593e-15 -1.44585e-08 0 8.38031e-23
234 23 0.001 -0.0847619 -2.05787e-21 -0.05 2.75575e-09 8.30792e-16 -1.60988e-06 0 4.27008e-23
235 23 0.001 -0.0838095 -6.92154e-21 -0.05 -2.38777e-07 -1.52646e-13 8.47506e-06 0 3.65166e-18
236 23 0.001 -0.0828571 -3.21766e-19 -0.05 -2.0703e-05 -1.1928e-13 0.00017413 0 2.99015e-14
237 23 0.001 -0.0819048 4.93382e-19 -0.05 -0.000491069 4.83867e-13 -0.000550403 0 8.32707e-12
3 3 0.001 -0.08 -8.21974e-19 -0.05 -3.20715e-05 -3.02584e-13 -0.000211348 0 1.57816e-11
120 22 0.001 -0.0799996 -3.01004e-21 -0.049 0.0131138 -1.10698e-15 0.000464452 0 1.94082e-12
238 23 0.001 -0.0809525 3.53387e-21 -0.0500001 -0.00306464 -3.20774e-15 -0.00377704 0 1.75504e-11
359 25 0.001 -0.0801964 5.52281e-19 -0.0490197 -0.0116974 -1.77833e-14 -0.0018717 0 1.92517e-12
459 27 0.001 -0.0790475 -3.4366e-21 -0.0500001 0.00248559 -5.0309e-16 -0.00247317 0 1.16533e-11
460 27 0.001 -0.0780952 1.64469e-21 -0.05 0.000405655 1.95917e-13 -0.000352363 0 5.45473e-12
461 27 0.001 -0.0771429 2.12643e-23 -0.05 1.78183e-05 8.22096e-16 0.000114977 0 2.18608e-14
462 27 0.001 -0.0761905 5.31837e-23 -0.05 5.32868e-08 -9.98915e-14 5.18015e-06 0 1.46822e-18
463 27 0.001 -0.0752381 -2.62057e-23 -0.05 2.65533e-08 2.19465e-08 -9.59279e-07 0 5.17696e-20
464 27 0.001 -0.0742857 0 -0.05 -2.90864e-08 -4.38929e-08 -8.98737e-08 0 4.17669e-23
465 27 0.001 -0.0733333 0 -0.05 -3.29973e-08 2.19465e-08 9.08717e-09 0 8.28522e-23
466 27 0.001 -0.072381 0 -0.05 6.25774e-08 0 -1.59905e-08 0 5.23436e-23
467 27 0.001 -0.0714286 0 -0.05 -3.27269e-10 0 -1.59905e-08 0 1.55713e-23
468 27 0.001 -0.0704762 0 -0.05 1.8747e-10 0 -1.59905e-08 0 7.69374e-24
469 27 0.001 -0.0695238 0 -0.05 3.87629e-10 0 -1.59905e-08 0 3.51065e-23
470 27 0.001 -0.0685714 0 -0.05 -2.68305e-09 0 -1.59905e-08 0 3.20781e-23
471 27 0.001 -0.067619 0 -0.05 -3.44104e-09 1.10925e-17 -1.59905e-08 0 1.59983e-22
472 27 0.001 -0.0666667 0 -0.05 3.44104e-09 -2.2185e-17 -1.59905e-08 0 1.59983e-22
473 27 0.001 -0.0657143 -4.05574e-27 -0.05 2.68355e-09 1.10926e-17 -1.59905e-08 0 3.2123e-23
474 27 0.001 -0.0647619 1.77946e-21 -0.05 -1.13783e-09 2.35301e-15 -1.60963e-06 0 4.92537e-23
475 27 0.001 -0.0638095 4.87532e-19 -0.05 -2.38982e-07 -1.20043e-14 8.47511e-06 0 3.66419e-18
476 27 0.001 -0.0628571 3.58526e-20 -0.05 -2.07021e-05 -3.7481e-15 0.000174134 0 2.99009e-14
477 27 0.001 -0.0619048 -1.03386e-18 -0.05 -0.000491068 -3.08849e-13 -0.000550424 0 8.32701e-12
478 27 0.001 -0.0609525 -1.84089e-21 -0.0500001 -0.00306426 6.64136e-13 -0.003777 0 1.75688e-11
5 5 0.001 -0.06 4.02256e-16 -0.05 -2.49873e-05 3.67325e-11 -0.000209867 0 1.57844e-11
360 26 0.001 -0.0599996 3.99985e-19 -0.049 0.0131139 9.72482e-13 0.000464525 0 1.94034e-12
599 29 0.001 -0.0601964 9.69714e-19 -0.0490197 -0.0116684 4.69845e-13 -0.00186589 0 1.92517e-12
699 31 0.001 -0.0590475 1.1712e-14 -0.0500001 0.002486 -3.08838e-10 -0.00247314 0 1.1637e-11
700 31 0.001 -0.0580952 -2.25357e-14 -0.05 0.00040552 6.64065e-10 -0.000352384 0 5.45366e-12
701 31 0.001 -0.0571429 9.40692e-15 -0.05 1.78218e-05 -5.76397e-10 0.000114981 0 2.19368e-14
702 31 0.001 -0.0561905 1.37304e-15 -0.05 1.85197e-07 1.96605e-10 5.20264e-06 0 2.046e-18
703 31 0.001 -0.0552381 -7.06917e-17 -0.05 -7.61861e-09 -1.52968e-11 -1.03113e-06 0 9.19188e-22
704 31 0.001 -0.0542857 0 -0.05 3.49321e-09 -3.45589e-19 -1.59905e-08 0 3.46351e-22
705 31 0.001 -0.0533333 0 -0.05 -2.14204e-08 1.34804e-21 -1.59905e-08 0 1.40191e-22
706 31 0.001 -0.052381 0 -0.05 4.16055e-09 0 -1.59905e-08 0 1.19794e-21
707 31 0.001 -0.0514286 0 -0.05 5.89977e-09 0 -1.59905e-08 0 2.6354e-21
708 31 0.001 -0.0504762 0 -0.05 1.4216e-08 0 -1.59905e-08 0 2.45183e-21
709 31 0.001 -0.0495238 0 -0.05 -9.03284e-09 0 -1.59905e-08 0 1.48258e-21
710 31 0.001 -0.0485714 0 -0.05 7.36288e-09 0 -1.59905e-08 0 7.84252e-22
711 31 0.001 -0.047619 0 -0.05 -2.44604e-09 -2.39882e-09 -1.53935e-08 0 3.4813e-22
712 31 0.001 -0.0466667 0 -0.05 -1.26704e-08 2.45863e-08 -1.00703e-08 0 2.03626e-21
713 31 0.001 -0.0457143 6.07241e-13 -0.05 2.05905e-08 -5.58627e-08 -3.17587e-08 0 4.03066e-21
714 31 0.001 -0.0447619 -1.21448e-12 -0.05 -1.42462e-08 5.25118e-08 -1.59791e-06 0 3.92147e-21
715 31 0.001 -0.0438095 6.07242e-13 -0.05 -2.27142e-07 -2.66337e-08 8.47061e-06 0 3.54632e-18
716 31 0.001 -0.0428571 -1.65242e-18 -0.05 -2.07101e-05 1.07021e-08 0.000174138 0 2.99067e-14
717 31 0.001 -0.0419048 1.80875e-18 -0.05 -0.000491064 -2.96306e-09 -0.000550427 0 8.327e-12
718 31 0.001 -0.0409525 -1.9215e-20 -0.0500001 -0.00306426 5.84372e-11 -0.003777 0 1.75688e-11
7 7 0.001 -0.04 3.99955e-16 -0.05 -2.49874e-05 3.67732e-11 -0.000209867 0 1.57844e-11
600 30 0.001 -0.0399996 -6.71002e-19 -0.049 0.0131139 5.13007e-13 0.000464525 0 1.94034e-12
839 33 0.001 -0.0401964 -1.16537e-18 -0.0490197 -0.0116684 5.50522e-13 -0.00186589 0 1.92517e-12
939 35 0.001 -0.0390475 1.1712e-14 -0.0500001 0.002486 -3.08842e-10 -0.00247314 0 1.1637e-11
940 35 0.001 -0.0380952 -2.25358e-14 -0.05 0.00040552 6.64068e-10 -0.000352384 0 5.45366e-12
941 35 0.001 -0.0371429 9.40693e-15 -0.05 1.78218e-05 -5.76397e-10 0.000114981 0 2.19368e-14
942 35 0.001 -0.0361905 1.37304e-15 -0.05 1.85223e-07 1.96605e-10 5.20264e-06 0 2.04601e-18
943 35 0.001 -0.0352381 -7.06917e-17 -0.05 -7.79948e-09 -1.52968e-11 -1.03113e-06 0 9.36619e-22
944 35 0.001 -0.0342857 0 -0.05 3.93443e-09 -3.45587e-19 -1.59905e-08 0 3.96917e-22
945 35 0.001 -0.0333333 0 -0.05 -3.73139e-09 1.34804e-21 -1.59905e-08 0 3.75916e-22
946 35 0.001 -0.032381 0 -0.05 8.18786e-09 0 -1.59905e-08 0 1.20597e-21
947 35 0.001 -0.0314286 0 -0.05 -9.49634e-09 0 -1.59905e-08 0 2.20443e-21
948 35 0.001 -0.0304762 0 -0.05 1.18392e-08 0 -1.59905e-08 0 3.28138e-21
949 35 0.001 -0.0295238 0 -0.05 -1.64026e-08 0 -1.59905e-08 0 4.88841e-21
950 35 0.001 -0.0285714 0 -0.05 2.00632e-08 0 -1.59905e-08 0 7.15845e-21
951 35 0.001 -0.027619 0 -0.05 -2.57006e-08 -3.12913e-05 -9.82447e-07 0 8.78964e-21
952 35 0.001 -0.0266667 0 -0.05 2.19146e-08 6.25832e-05 1.94065e-06 0 5.91448e-21
953 35 0.001 -0.0257143 8.83645e-19 -0.05 -4.38278e-09 -3.12923e-05 -1.05363e-06 0 1.57934e-21
954 35 0.001 -0.0247619 -4.0022e-16 -0.05 -1.29383e-08 2.09468e-10 -1.53826e-06 0 3.91198e-21
955 35 0.001 -0.0238095 -1.49105e-14 -0.05 -2.15828e-07 9.00352e-10 8.4495e-06 0 3.40364e-18
956 35 0.001 -0.0228571 3.06873e-14 -0.05 -2.07243e-05 -1.2895e-09 0.000174134 0 2.99186e-14
957 35 0.001 -0.0219048 -1.49941e-14 -0.05 -0.000491057 7.55463e-10 -0.000550406 0 8.32696e-12
9 9 0.001 -0.02 1.84372e-16 -0.05 -3.20568e-05 1.36639e-11 -0.000211346 0 1.57816e-11
840 34 0.001 -0.0199996 1.89815e-21 -0.049 0.0131138 2.36913e-13 0.000464452 0 1.94082e-12
958 35 0.001 -0.0209525 -4.36121e-16 -0.0500001 -0.00306465 -1.35886e-10 -0.00377704 0 1.75502e-11
1079 37 0.001 -0.0201964 2.74081e-21 -0.0490197 -0.0116951 -2.37344e-13 -0.00187123 0 1.92517e-12
1179 39 0.001 -0.0190475 2.52659e-21 -0.0500001 0.00248558 1.4976e-11 -0.00247317 0 1.16535e-11
1180 39 0.001 -0.0180952 -1.33612e-21 -0.05 0.000405669 -1.51969e-10 -0.000352364 0 5.45488e-12
1181 39 0.001 -0.0171429 -6.52527e-15 -0.05 1.78026e-05 4.71784e-10 0.00011498 0 2.18467e-14
1182 39 0.001 -0.0161905 1.30505e-14 -0.05 6.41756e-08 -5.43763e-10 5.20096e-06 0 1.56102e-18
1183 39 0.001 -0.0152381 -6.52527e-15 -0.05 1.6325e-08 2.19537e-10 -1.02922e-06 0 4.07752e-20
1184 39 0.001 -0.0142857 0 -0.05 1.71467e-09 -1.96085e-11 -1.86902e-08 0 3.25613e-22
1185 39 0.001 -0.0133333 0 -0.05 -1.61615e-08 9.8035e-12 -1.46408e-08 0 1.95438e-22
1186 39 0.001 -0.012381 0 -0.05 -3.94855e-09 0 -1.59905e-08 0 2.0806e-22
1187 39 0.001 -0.0114286 0 -0.05 2.906e-08 0 -1.59905e-08 0 1.79525e-22
1188 39 0.001 -0.0104762 0 -0.05 4.15528e-09 0 -1.59905e-08 0 5.33284e-22
1189 39 0.001 -0.00952381 0 -0.05 -1.02244e-08 0 -1.59905e-08 0 9.39798e-22
1190 39 0.001 -0.00857143 0 -0.05 2.59438e-09 0 -1.59905e-08 0 4.70136e-22
1191 39 0.001 -0.00761905 0 -0.05 2.227e-08 -1.0552e-18 -1.74424e-08 0 1.15521e-23
1192 39 0.001 -0.00666667 0 -0.05 -4.34489e-08 5.56015e-17 -1.17369e-08 0 1.12438e-23
1193 39 0.001 -0.00571429 5.44047e-30 -0.05 2.06143e-08 -1.08037e-16 -2.01418e-08 0 2.14347e-24
1194 39 0.001 -0.0047619 -1.39286e-24 -0.05 -1.03551e-09 5.11402e-15 -1.60811e-06 0 1.06279e-22
1195 39 0.001 -0.00380952 -4.81138e-23 -0.05 -2.34638e-07 -9.21831e-15 8.47355e-06 0 3.57878e-18
1196 39 0.001 -0.00285714 9.94396e-23 -0.05 -2.07119e-05 3.25844e-15 0.000174133 0 2.99127e-14
1197 39 0.001 -0.00190477 4.52952e-22 -0.05 -0.000491059 1.07496e-15 -0.000550405 0 8.32696e-12
1198 39 0.001 -0.000952477 -1.00904e-21 -0.0500001 -0.00306464 -3.56189e-16 -0.00377704 0 1.75503e-11
1319 41 0.001 -0.00019639 4.44012e-19 -0.0490197 -0.0116951 4.77996e-13 -0.00187123 0 1.92517e-12
11 11 0.001 -4.34182e-10 -2.29225e-19 -0.05 -3.20608e-05 -4.0521e-14 -0.000211346 0 1.57816e-11
1080 38 0.001 3.52556e-07 3.69808e-20 -0.049 0.0131138 -5.10009e-13 0.000464452 0 1.94082e-12
1419 43 0.001 0.000952459 -9.58043e-22 -0.0500001 0.00248562 -3.56698e-16 -0.00247317 0 1.16522e-11
1420 43 0.001 0.00190477 4.05407e-22 -0.05 0.000405526 -4.26512e-16 -0.000352364 0 5.45369e-12
1421 43 0.001 0.00285714 1.98979e-23 -0.05 1.78183e-05 -1.79871e-15 0.000114979 0 2.1931e-14
1422 43 0.001 0.00380952 5.59102e-23 -0.05 1.78616e-07 4.06118e-15 5.17777e-06 0 2.02524e-18
1423 43 0.001 0.0047619 -2.75679e-23 -0.05 3.54778e-10 -2.28498e-16 -9.59676e-07 0 7.80451e-24
1424 43 0.001 0.00571429 0 -0.05 2.00355e-11 -1.51894e-15 -8.71743e-08 0 2.48918e-26
1425 43 0.001 0.00666667 0 -0.05 1.8209e-09 8.80845e-17 7.73746e-09 0 2.33459e-22
1426 43 0.001 0.00761905 0 -0.05 -1.02933e-08 0 -1.59905e-08 0 1.12456e-21
1427 43 0.001 0.00857143 0 -0.05 9.72821e-09 0 -1.59905e-08 0 1.04424e-21
1428 43 0.001 0.00952381 0 -0.05 -2.98507e-09 0 -1.59905e-08 0 3.33616e-22
1429 43 0.001 0.0104762 0 -0.05 -2.52108e-08 0 -1.59905e-08 0 4.69183e-22
1430 43 0.001 0.0114286 0 -0.05 -7.38675e-09 0 -1.59905e-08 0 3.55218e-22
1431 43 0.001 0.012381 0 -0.05 7.2156e-08 -1.95688e-07 -1.26563e-07 0 5.72253e-22
1432 43 0.001 0.0133333 0 -0.05 -3.88145e-08 3.9217e-07 2.08201e-07 0 5.70156e-22
1433 43 0.001 0.0142857 7.00522e-14 -0.05 1.49174e-09 -2.02429e-07 -1.51626e-07 0 9.77899e-23
1434 43 0.001 0.0152381 -1.40496e-13 -0.05 -5.70188e-09 1.16517e-08 -1.56972e-06 0 6.55663e-22
1435 43 0.001 0.0161905 6.12158e-14 -0.05 -2.29344e-07 -6.26375e-09 8.45844e-06 0 3.54487e-18
1436 43 0.001 0.0171429 1.8645e-14 -0.05 -2.0714e-05 5.07789e-10 0.000174129 0 2.99146e-14
1437 43 0.001 0.0180952 -9.18204e-15 -0.05 -0.000491057 1.17591e-10 -0.000550403 0 8.32689e-12
1438 43 0.001 0.0190475 -2.67069e-16 -0.0500001 -0.00306465 -7.62203e-11 -0.00377704 0 1.755e-11
13 13 0.001 0.02 1.12516e-16 -0.05 -3.20531e-05 8.74726e-12 -0.000211346 0 1.57816e-11
1320 42 0.001 0.0200004 -6.04396e-28 -0.049 0.0131138 1.44614e-13 0.000464452 0 1.94082e-12
1559 45 0.001 0.0198036 -3.87268e-20 -0.0490197 -0.0116951 -3.12579e-13 -0.00187123 0 1.92517e-12
1659 47 0.001 0.0209525 4.81762e-23 -0.0500001 0.00248555 1.8793e-13 -0.00247317 0 1.16546e-11
1660 47 0.001 0.0219048 -9.68374e-23 -0.05 0.000405878 -9.39503e-14 -0.000352363 0 5.45564e-12
1661 47 0.001 0.0228571 2.08019e-23 -0.05 1.73362e-05 -3.59507e-19 0.000114977 0 2.15793e-14
1662 47 0.001 0.0238095 5.41076e-23 -0.05 4.05549e-07 -1.50921e-18 5.20356e-06 0 5.82749e-18
1663 47 0.001 0.0247619 -2.66675e-23 -0.05 -2.81735e-08 9.00746e-17 -1.03028e-06 0 6.63751e-20
1664 47 0.001 0.0257143 0 -0.05 -1.95626e-08 -1.78526e-16 -1.86899e-08 0 5.07738e-21
1665 47 0.001 0.0266667 0 -0.05 1.89939e-08 8.92628e-17 -1.46408e-08 0 5.15748e-21
1666 47 0.001 0.027619 0 -0.05 6.32294e-11 0 -1.59905e-08 0 2.03531e-21
1667 47 0.001 0.0285714 0 -0.05 -1.93007e-08 0 -1.59905e-08 0 5.11836e-21
1668 47 0.001 0.0295238 0 -0.05 1.97075e-08 0 -1.59905e-08 0 5.39859e-21
1669 47 0.001 0.0304762 0 -0.05 -7.05353e-09 0 -1.59905e-08 0 1.32388e-21
1670 47 0.001 0.0314286 0 -0.05 -1.27145e-09 0 -1.59905e-08 0 1.96036e-22
1671 47 0.001 0.032381 0 -0.05 4.08129e-09 -3.29076e-24 -1.59905e-08 0 3.01225e-22
1672 47 0.001 0.0333333 0 -0.05 -4.51107e-09 1.26206e-17 -1.32911e-08 0 4.55244e-22
1673 47 0.001 0.0342857 1.25732e-21 -0.05 8.71014e-09 -3.76191e-15 -4.04097e-08 0 1.37563e-21
1674 47 0.001 0.0352381 -2.51612e-21 -0.05 -1.25021e-08 6.33263e-15 -1.5688e-06 0 2.82035e-21
1675 47 0.001 0.0361905 3.40153e-19 -0.05 -2.27134e-07 -1.67245e-13 8.4542e-06 0 3.54632e-18
1676 47 0.001 0.0371429 -1.65228e-18 -0.05 -2.07101e-05 3.64924e-13 0.000174138 0 2.99067e-14
1677 47 0.001 0.0380952 1.80875e-18 -0.05 -0.000491064 -5.60178e-13 -0.000550427 0 8.327e-12
1678 47 0.001 0.0390475 -1.9215e-20 -0.0500001 -0.00306426 6.84335e-13 -0.003777 0 1.75688e-11
15 15 0.001 0.04 3.99955e-16 -0.05 -2.49874e-05 3.67732e-11 -0.000209867 0 1.57844e-11
1560 46 0.001 0.0400004 -6.71002e-19 -0.049 0.0131139 5.13007e-13 0.000464525 0 1.94034e-12
1799 49 0.001 0.0398036 -1.16537e-18 -0.0490197 -0.0116684 5.50522e-13 -0.00186589 0 1.92517e-12
1899 51 0.001 0.0409525 1.1712e-14 -0.0500001 0.002486 -3.08842e-10 -0.00247314 0 1.1637e-11
1900 51 0.001 0.0419048 -2.25358e-14 -0.05 0.00040552 6.64068e-10 -0.000352384 0 5.45366e-12
1901 51 0.001 0.0428571 9.40693e-15 -0.05 1.78218e-05 -5.76397e-10 0.000114981 0 2.19368e-14
1902 51 0.001 0.0438095 1.37304e-15 -0.05 1.85197e-07 1.96605e-10 5.20264e-06 0 2.046e-18
1903 51 0.001 0.0447619 -7.06917e-17 -0.05 -7.61861e-09 -1.52968e-11 -1.03113e-06 0 9.19188e-22
1904 51 0.001 0.0457143 0 -0.05 3.49321e-09 -3.45589e-19 -1.59905e-08 0 3.46351e-22
1905 51 0.001 0.0466667 0 -0.05 -2.14204e-08 1.34804e-21 -1.59905e-08 0 1.40191e-22
1906 51 0.001 0.047619 0 -0.05 4.16055e-09 0 -1.59905e-08 0 1.19794e-21
1907 51 0.001 0.0485714 0 -0.05 5.89977e-09 0 -1.59905e-08 0 2.6354e-21
1908 51 0.001 0.0495238 0 -0.05 1.4216e-08 0 -1.59905e-08 0 2.45183e-21
1909 51 0.001 0.0504762 0 -0.05 -9.03284e-09 0 -1.59905e-08 0 1.48258e-21
1910 51 0.001 0.0514286 0 -0.05 7.32614e-09 0 -1.59905e-08 0 7.76143e-22
1911 51 0.001 0.052381 0 -0.05 -2.79956e-09 3.80948e-25 -1.60773e-08 0 2.5081e-22
1912 51 0.001 0.0533333 0 -0.05 -7.82067e-09 -1.77547e-17 -1.11412e-08 0 1.18571e-21
1913 51 0.001 0.0542857 -3.72346e-27 -0.05 1.54689e-08 -4.63964e-16 -6.18508e-08 0 2.81333e-21
1914 51 0.001 0.0552381 2.09675e-21 -0.05 -1.35265e-08 1.71242e-15 -1.53242e-06 0 3.45407e-21
1915 51 0.001 0.0561905 1.59808e-19 -0.05 -2.27141e-07 -3.23781e-15 8.43867e-06 0 3.54576e-18
1916 51 0.001 0.0571429 9.81394e-21 -0.05 -2.07102e-05 -1.16684e-15 0.000174131 0 2.99067e-14
1917 51 0.001 0.0580952 -3.38944e-19 -0.05 -0.000491066 5.15213e-15 -0.000550404 0 8.32706e-12
17 17 0.001 0.06 1.37424e-18 -0.05 -3.20637e-05 4.9954e-14 -0.000211346 0 1.57816e-11
1800 50 0.001 0.0600004 3.97171e-20 -0.049 0.0131138 -1.89992e-17 0.000464452 0 1.94082e-12
1918 51 0.001 0.0590475 -1.26687e-21 -0.0500001 -0.00306464 4.82282e-16 -0.00377704 0 1.75504e-11
2039 53 0.001 0.0598036 1.98739e-21 -0.0490197 -0.0116951 -4.84381e-13 -0.00187123 0 1.92517e-12
2139 55 0.001 0.0609525 1.81341e-21 -0.0500001 0.00248562 -1.57976e-16 -0.00247317 0 1.16521e-11
2140 55 0.001 0.0619048 -4.45983e-19 -0.05 0.000405525 1.18143e-14 -0.000352364 0 5.45366e-12
2141 55 0.001 0.0628571 -1.04815e-21 -0.05 1.7819e-05 -1.22232e-15 0.000114978 0 2.19319e-14
2142 55 0.001 0.0638095 2.23358e-19 -0.05 1.79723e-07 -6.31755e-15 5.20351e-06 0 2.02206e-18
2143 55 0.001 0.0647619 -2.66675e-23 -0.05 -3.20087e-09 1.09328e-15 -1.03163e-06 0 1.77841e-23
2144 55 0.001 0.0657143 0 -0.05 -3.13797e-09 -1.48186e-23 -1.59905e-08 0 1.51938e-22
2145 55 0.001 0.0666667 0 -0.05 3.39557e-09 3.67036e-25 -1.59905e-08 0 1.50476e-22
2146 55 0.001 0.067619 0 -0.05 2.68254e-09 0 -1.59905e-08 0 3.20772e-23
2147 55 0.001 0.0685714 0 -0.05 5.39143e-11 0 -1.59905e-08 0 5.93187e-23
2148 55 0.001 0.0695238 0 -0.05 -3.29767e-09 0 -1.59905e-08 0 2.98412e-23
2149 55 0.001 0.0704762 0 -0.05 2.06434e-10 0 -1.59905e-08 0 1.07052e-23
2150 55 0.001 0.0714286 0 -0.05 -2.28289e-08 0 -1.59905e-08 0 4.92705e-23
2151 55 0.001 0.072381 0 -0.05 5.6501e-09 -2.96997e-15 -1.46408e-08 0 2.06093e-22
2152 55 0.001 0.0733333 0 -0.05 1.67281e-08 5.93994e-15 -1.86899e-08 0 2.06093e-22
2153 55 0.001 0.0742857 1.85758e-21 -0.05 -1.68653e-11 -3.03637e-15 -1.67934e-08 0 8.38031e-23
2154 55 0.001 0.0752381 -3.50954e-21 -0.05 2.75573e-09 1.1825e-15 6.50338e-09 0 4.27008e-23
2155 55 0.001 0.0761905 1.69318e-21 -0.05 -2.71407e-07 -2.17442e-15 4.64112e-07 0 4.69981e-18
2156 55 0.001 0.0771429 -5.03022e-22 -0.05 -3.13327e-05 1.41838e-15 -1.62278e-06 0 6.664e-14
2157 55 0.001 0.0780952 -1.06993e-20 -0.05 -0.00125358 -1.05773e-14 -1.15383e-05 0 8.69692e-11
2158 55 0.001 0.0790473 7.87515e-20 -0.05 -0.000653604 1.95865e-14 -0.00552024 0 1.74436e-10
2279 57 0.001 0.079803 1.93703e-18 -0.0490196 -0.00560001 -1.86e-14 -0.00464513 0 4.81493e-11
19 19 0.001 0.08 5.76155e-18 -0.05 -0.000981692 -2.21398e-15 0.000505974 0 1.19707e-10
2040 54 0.001 0.0800014 1.34277e-17 -0.049 0.00951382 -1.05303e-12 -0.00178184 0 8.2839e-16
22 21 0.001 -0.1 2.27696e-19 -0.048 -0.000180756 9.6869e-14 0.000155612 0 1.81475e-12
121 22 0.001 -0.0799997 -1.0819e-20 -0.0479999 0.0131582 1.31579e-14 0.00188493 0 1.7827e-12
358 25 0.001 -0.0803925 -1.13893e-18 -0.0480392 -0.0130671 3.80152e-14 -0.000701904 0 1.77586e-12
598 29 0.001 -0.0603925 -1.37243e-18 -0.0480392 -0.01314 -2.15954e-13 -0.000716499 0 1.77586e-12
361 26 0.001 -0.0599997 -8.09955e-19 -0.0479999 0.0131582 -1.16043e-12 0.00188493 0 1.7827e-12
601 30 0.001 -0.0399997 1.20145e-18 -0.0479999 0.0131582 -3.05327e-13 0.00188493 0 1.7827e-12
838 33 0.001 -0.0403925 2.04426e-18 -0.0480392 -0.01314 -4.36366e-13 -0.000716499 0 1.77586e-12
841 34 0.001 -0.0199997 -9.49056e-22 -0.0479999 0.0131582 -1.05728e-13 0.00188493 0 1.7827e-12
1078 37 0.001 -0.0203925 -9.98463e-22 -0.0480392 -0.0130624 6.54128e-13 -0.000700969 0 1.77586e-12
1318 41 0.001 -0.000392499 -4.53036e-19 -0.0480392 -0.0130624 -7.8251e-13 -0.000700969 0 1.77586e-12
1081 38 0.001 3.39696e-07 -1.44654e-19 -0.0479999 0.0131582 9.78064e-13 0.00188493 0 1.7827e-12
1321 42 0.001 0.0200003 -1.16433e-27 -0.0479999 0.0131582 -5.97819e-14 0.00188493 0 1.7827e-12
1558 45 0.001 0.0196075 2.45737e-19 -0.0480392 -0.0130624 5.8957e-13 -0.000700969 0 1.77586e-12
1561 46 0.001 0.0400003 1.20145e-18 -0.0479999 0.0131582 -3.05327e-13 0.00188493 0 1.7827e-12
1798 49 0.001 0.0396075 2.04426e-18 -0.0480392 -0.01314 -4.36366e-13 -0.000716499 0 1.77586e-12
1801 50 0.001 0.0600003 -1.45897e-19 -0.0479999 0.0131582 4.49439e-15 0.00188493 0 1.7827e-12
2038 53 0.001 0.0596075 -9.94285e-22 -0.0480392 -0.0130624 7.76792e-13 -0.000700969 0 1.77586e-12
2278 57 0.001 0.0796075 -2.25419e-18 -0.0480392 -0.0153549 3.0236e-14 -0.000526437 0 1.59788e-11
2041 54 0.001 0.0800012 -2.78739e-17 -0.048 0.0112554 2.10618e-12 0.00261699 0 2.09752e-19
23 21 0.001 -0.1 1.27879e-22 -0.047 5.92228e-05 -1.00606e-15 2.07186e-06 0 2.95464e-16
24 21 0.001 -0.1 -1.13635e-19 -0.046 2.29067e-06 -4.69585e-14 -9.15855e-09 0 3.03838e-21
122 22 0.001 -0.0799997 3.81512e-20 -0.0469999 0.0118205 -3.6909e-14 0.00201739 0 2.61133e-14
123 22 0.001 -0.0799997 -2.58607e-20 -0.046 0.0101236 2.3794e-14 0.00182647 0 9.18307e-14
356 25 0.001 -0.0807846 -2.98322e-19 -0.0460784 -0.0102909 1.69123e-14 -0.000199383 0 9.02537e-14
357 25 0.001 -0.0805885 9.1249e-19 -0.0470588 -0.0120524 -3.6147e-14 -0.000360001 0 2.54834e-14
596 29 0.001 -0.0607846 3.0425e-19 -0.0460784 -0.0102851 -5.67703e-15 -0.000198229 0 9.02537e-14
597 29 0.001 -0.0605885 2.35724e-19 -0.0470588 -0.0120248 -1.31854e-14 -0.000354477 0 2.54834e-14
362 26 0.001 -0.0599997 2.43797e-19 -0.0469999 0.0118205 4.47396e-13 0.00201739 0 2.61133e-14
363 26 0.001 -0.0599997 1.54283e-19 -0.046 0.0101236 -2.27162e-14 0.00182647 0 9.18307e-14
836 33 0.001 -0.0407846 3.0425e-19 -0.0460784 -0.0102851 -1.31424e-13 -0.000198229 0 9.02537e-14
602 30 0.001 -0.0399997 -7.40153e-19 -0.0469999 0.0118205 3.85286e-14 0.00201739 0 2.61133e-14
603 30 0.001 -0.0399997 1.54283e-19 -0.046 0.0101236 -3.0323e-14 0.00182647 0 9.18307e-14
837 33 0.001 -0.0405885 -1.33039e-18 -0.0470588 -0.0120248 2.41673e-13 -0.000354477 0 2.54834e-14
842 34 0.001 -0.0199997 1.86477e-27 -0.0469999 0.0118205 -4.63768e-14 0.00201739 0 2.61133e-14
843 34 0.001 -0.0199997 -1.34977e-27 -0.046 0.0101236 6.82793e-14 0.00182647 0 9.18307e-14
1076 37 0.001 -0.0207846 4.42828e-21 -0.0460784 -0.010286 8.43068e-17 -0.000198403 0 9.02537e-14
1077 37 0.001 -0.0205885 4.97836e-24 -0.0470588 -0.0120665 -3.56416e-13 -0.000362816 0 2.54833e-14
1316 41 0.001 -0.000784583 3.44504e-19 -0.0460784 -0.010286 -8.01686e-14 -0.000198403 0 9.02537e-14
1317 41 0.001 -0.000588549 -2.09785e-19 -0.0470588 -0.0120665 4.09749e-13 -0.000362816 0 2.54833e-14
1082 38 0.001 3.09128e-07 2.09255e-19 -0.0469999 0.0118205 -5.15275e-13 0.00201739 0 2.61133e-14
1083 38 0.001 2.64863e-07 -1.24107e-19 -0.046 0.0101236 2.661e-14 0.00182647 0 9.18307e-14
1556 45 0.001 0.0192154 2.50171e-19 -0.0460784 -0.010286 -7.62739e-14 -0.000198403 0 9.02537e-14
1557 45 0.001 0.0194115 -4.131e-19 -0.0470588 -0.0120665 -1.93292e-13 -0.000362816 0 2.54833e-14
1322 42 0.001 0.0200003 1.86477e-27 -0.0469999 0.0118205 -4.63642e-14 0.00201739 0 2.61133e-14
1323 42 0.001 0.0200003 -1.34977e-27 -0.046 0.0101236 6.8277e-14 0.00182647 0 9.18307e-14
1562 46 0.001 0.0400003 -7.40153e-19 -0.0469999 0.0118205 3.85286e-14 0.00201739 0 2.61133e-14
1563 46 0.001 0.0400003 1.54283e-19 -0.046 0.0101236 -3.0323e-14 0.00182647 0 9.18307e-14
1796 49 0.001 0.0392154 3.0425e-19 -0.0460784 -0.0102851 -1.31424e-13 -0.000198229 0 9.02537e-14
1797 49 0.001 0.0394115 -1.33039e-18 -0.0470588 -0.0120248 2.41673e-13 -0.000354477 0 2.54834e-14
1802 50 0.001 0.0600003 2.14258e-19 -0.0469999 0.0118205 -7.51344e-15 0.00201739 0 2.61133e-14
1803 50 0.001 0.0600003 -1.44949e-19 -0.046 0.0101236 5.50124e-15 0.00182647 0 9.18307e-14
2036 53 0.001 0.0592154 -1.50684e-24 -0.0460784 -0.0102862 1.97016e-18 -0.00019845 0 9.02537e-14
2037 53 0.001 0.0594115 7.9158e-25 -0.0470588 -0.0120665 -3.56409e-13 -0.000362817 0 2.54833e-14
2276 57 0.001 0.0792154 5.92751e-19 -0.0460784 -0.0102582 -4.91695e-14 -0.000194807 0 9.03722e-14
2277 57 0.001 0.0794115 5.26424e-19 -0.0470588 -0.0113491 1.42973e-14 -0.000212045 0 2.74671e-14
2042 54 0.001 0.0800011 1.30695e-17 -0.047 0.00871763 -1.16501e-12 0.00261661 0 1.84096e-19
2043 54 0.001 0.0800009 5.36498e-19 -0.046 0.00763677 1.03394e-13 0.00235971 0 4.23812e-19
25 21 0.001 -0.1 2.28777e-23 -0.045 -4.47313e-07 -4.80737e-16 -1.59905e-08 0 3.61112e-32
124 22 0.001 -0.0799998 -1.22834e-20 -0.045 0.00804983 1.31246e-14 0.0015151 0 1.54116e-13
355 25 0.001 -0.0809806 3.60073e-20 -0.045098 -0.00819235 -4.1425e-15 -9.51093e-05 0 1.52516e-13
595 29 0.001 -0.0609806 -3.8584e-20 -0.045098 -0.00819017 2.38948e-15 -9.4673e-05 0 1.52516e-13
364 26 0.001 -0.0599998 -3.93653e-20 -0.045 0.00804983 3.23588e-14 0.0015151 0 1.54116e-13
835 33 0.001 -0.0409806 -3.8584e-20 -0.045098 -0.00819017 2.20977e-14 -9.4673e-05 0 1.52516e-13
604 30 0.001 -0.0399998 -3.93653e-20 -0.045 0.00804983 3.36183e-14 0.0015151 0 1.54116e-13
844 34 0.001 -0.0199998 1.01105e-27 -0.045 0.00804983 -4.63693e-14 0.0015151 0 1.54116e-13
1075 37 0.001 -0.0209806 2.38005e-20 -0.045098 -0.00818985 -1.17957e-15 -9.46088e-05 0 1.52516e-13
1315 41 0.001 -0.000980606 -5.82385e-20 -0.045098 -0.00818985 5.05934e-14 -9.46086e-05 0 1.52516e-13
1084 38 0.001 2.10608e-07 6.42513e-21 -0.045 0.00804983 -1.31178e-15 0.0015151 0 1.54116e-13
1555 45 0.001 0.0190194 -1.53899e-20 -0.045098 -0.00818985 -9.18391e-15 -9.46087e-05 0 1.52516e-13
1324 42 0.001 0.0200002 1.01105e-27 -0.045 0.00804983 -4.63697e-14 0.0015151 0 1.54116e-13
1795 49 0.001 0.0390194 -3.8584e-20 -0.045098 -0.00819017 2.20977e-14 -9.4673e-05 0 1.52516e-13
1564 46 0.001 0.0400002 -3.93653e-20 -0.045 0.00804983 3.36183e-14 0.0015151 0 1.54116e-13
1804 50 0.001 0.0600002 3.78199e-20 -0.045 0.00804983 -2.10701e-15 0.0015151 0 1.54116e-13
2035 53 0.001 0.0590194 1.74689e-24 -0.045098 -0.00818999 9.03191e-20 -9.46361e-05 0 1.52516e-13
2275 57 0.001 0.0790194 6.17133e-21 -0.045098 -0.00818591 4.03774e-14 -9.61169e-05 0 1.52509e-13
2044 54 0.001 0.0800007 1.78826e-19 -0.045 0.00611248 -9.23215e-15 0.00195186 0 7.15252e-19
26 21 0.001 -0.1 0 -0.044 -4.0245e-17 1.91661e-23 -1.59904e-08 0 3.61112e-32
27 21 0.001 -0.1 0 -0.043 1.50919e-17 -8.27237e-25 -1.59905e-08 0 1.44445e-33
353 25 0.001 -0.0813726 7.92136e-26 -0.0431373 -0.00372534 4.52284e-13 5.43406e-05 0 1.72865e-13
125 22 0.001 -0.0799998 3.41802e-20 -0.044 0.00581699 -3.40801e-14 0.00115235 0 1.78812e-13
126 22 0.001 -0.0799999 -3.20342e-20 -0.043 0.00364093 3.11924e-14 0.000782754 0 1.73585e-13
354 25 0.001 -0.0811766 2.30132e-22 -0.0441176 -0.00593066 -1.40841e-14 -1.10327e-05 0 1.77453e-13
593 29 0.001 -0.0613726 -6.63798e-26 -0.0431373 -0.0037252 -2.77452e-16 5.43678e-05 0 1.72865e-13
594 29 0.001 -0.0611766 -5.89055e-25 -0.0441176 -0.00593065 -5.97514e-16 -1.10316e-05 0 1.77453e-13
365 26 0.001 -0.0599998 -5.40501e-28 -0.044 0.00581699 -2.09134e-14 0.00115235 0 1.78812e-13
366 26 0.001 -0.0599999 1.73466e-27 -0.043 0.00364093 4.86602e-15 0.000782754 0 1.73585e-13
833 33 0.001 -0.0413726 -6.63798e-26 -0.0431373 -0.0037252 -2.77452e-16 5.43678e-05 0 1.72865e-13
834 33 0.001 -0.0411766 -5.89055e-25 -0.0441176 -0.00593065 -5.97514e-16 -1.10316e-05 0 1.77453e-13
605 30 0.001 -0.0399998 -5.40501e-28 -0.044 0.00581699 -2.09134e-14 0.00115235 0 1.78812e-13
606 30 0.001 -0.0399999 1.73466e-27 -0.043 0.00364093 4.86602e-15 0.000782754 0 1.73585e-13
1073 37 0.001 -0.0213726 4.15325e-20 -0.0431373 -0.00372904 4.57003e-13 5.36002e-05 0 1.72865e-13
1074 37 0.001 -0.0211766 -6.53298e-20 -0.0441176 -0.00592881 -1.661e-14 -1.06628e-05 0 1.77453e-13
845 34 0.001 -0.0199998 -1.01285e-27 -0.044 0.00581699 1.22304e-14 0.00115235 0 1.78812e-13
846 34 0.001 -0.0199999 1.72359e-27 -0.043 0.00364093 -4.1857e-18 0.000782754 0 1.73585e-13
1313 41 0.001 -0.00137265 2.16233e-20 -0.0431373 -0.00372904 4.61213e-13 5.36002e-05 0 1.72865e-13
1314 41 0.001 -0.00117663 -2.20694e-20 -0.0441176 -0.00592881 -3.11986e-14 -1.0663e-05 0 1.77453e-13
1085 38 0.001 1.52154e-07 2.06893e-20 -0.044 0.00581699 -2.20726e-16 0.00115235 0 1.78812e-13
1086 38 0.001 9.5332e-08 -4.53913e-21 -0.043 0.00364093 3.32774e-16 0.000782754 0 1.73585e-13
1553 45 0.001 0.0186274 4.15325e-20 -0.0431373 -0.00372904 4.38052e-13 5.36002e-05 0 1.72865e-13
1554 45 0.001 0.0188234 -6.53298e-20 -0.0441176 -0.00592881 1.27528e-14 -1.06629e-05 0 1.77453e-13
1325 42 0.001 0.0200002 -1.01285e-27 -0.044 0.00581699 1.22305e-14 0.00115235 0 1.78812e-13
1326 42 0.001 0.0200001 1.72359e-27 -0.043 0.00364093 -4.1857e-18 0.000782754 0 1.73585e-13
1793 49 0.001 0.0386274 -6.63798e-26 -0.0431373 -0.0037252 -2.77452e-16 5.43678e-05 0 1.72865e-13
1794 49 0.001 0.0388234 -5.89055e-25 -0.0441176 -0.00593065 -5.97514e-16 -1.10316e-05 0 1.77453e-13
1565 46 0.001 0.0400002 -5.40501e-28 -0.044 0.00581699 -2.09134e-14 0.00115235 0 1.78812e-13
1566 46 0.001 0.0400001 1.73466e-27 -0.043 0.00364093 4.86602e-15 0.000782754 0 1.73585e-13
2033 53 0.001 0.0586274 -6.63798e-26 -0.0431373 -0.0037252 -3.43207e-16 5.43677e-05 0 1.72865e-13
1805 50 0.001 0.0600002 -9.79879e-28 -0.044 0.00581699 4.71764e-16 0.00115235 0 1.78812e-13
1806 50 0.001 0.0600001 1.73466e-27 -0.043 0.00364093 -4.05276e-16 0.000782754 0 1.73585e-13
2034 53 0.001 0.0588234 -5.89057e-25 -0.0441176 -0.00593065 4.6743e-17 -1.1031e-05 0 1.77453e-13
2273 57 0.001 0.0786274 -9.00403e-25 -0.0431373 -0.00372197 4.52299e-13 5.37277e-05 0 1.72793e-13
2274 57 0.001 0.0788234 -1.98715e-21 -0.0441176 -0.00592519 -3.0255e-14 -1.18639e-05 0 1.77396e-13
2045 54 0.001 0.0800005 5.78972e-19 -0.044 0.00441566 -2.76458e-14 0.00148109 0 7.78202e-19
2046 54 0.001 0.0800003 -1.94107e-18 -0.043 0.00275572 6.49042e-14 0.00100439 0 5.65082e-19
28 21 0.001 -0.1 0 -0.042 0 0 -1.59905e-08 0 1.44445e-33
352 25 0.001 -0.0815687 1.14759e-17 -0.0421569 -0.00183956 5.5464e-13 6.96669e-05 0 1.5793e-13
127 22 0.001 -0.08 -2.3676e-20 -0.042 0.00178893 2.33461e-14 0.000427667 0 1.57629e-13
592 29 0.001 -0.0615687 -3.65286e-20 -0.0421569 -0.00183868 1.93298e-15 6.98441e-05 0 1.5793e-13
367 26 0.001 -0.06 -3.63423e-20 -0.042 0.00178893 1.83887e-14 0.000427667 0 1.57629e-13
832 33 0.001 -0.0415687 -3.65286e-20 -0.0421569 -0.00183868 1.93286e-15 6.98441e-05 0 1.5793e-13
607 30 0.001 -0.04 -3.63423e-20 -0.042 0.00178893 1.83887e-14 0.000427667 0 1.57629e-13