ITEM: TIMESTEP
9
ITEM: NUMBER OF ATOMS
2279
ITEM: BOX BOUNDS ff ff ff
-1.1000000000000000e-01 1.1000000000000000e-01
-6.0000000000000001e-03 6.0000000000000001e-03
-5.5000000000000000e-02 5.5000000000000000e-02
ITEM: ATOMS id type radius x y z fx fy fz c_bendingE c_stretchingE
1 1 0.001 -0.1 0 -0.05 0.000473027 5.56517e-15 0.00059421 0 1.34168e-10
21 21 0.001 -0.1 4.47034e-19 -0.0489997 -9.77703e-05 7.43615e-15 -0.000493372 0 1.21277e-10
219 23 0.001 -0.0990474 2.2361e-19 -0.0500003 -0.00046576 -5.50225e-14 -2.2112e-05 0 1.05417e-10
220 23 0.001 -0.0980952 -8.09654e-18 -0.05 0.00050159 6.21604e-16 -0.000775888 0 4.25997e-11
221 23 0.001 -0.0971429 2.2917e-18 -0.05 0.000151097 3.82098e-12 6.95415e-05 0 2.62273e-12
222 23 0.001 -0.0961905 3.54881e-17 -0.05 1.51644e-05 -8.36137e-12 0.000127182 0 2.00935e-14
223 23 0.001 -0.0952381 -1.11094e-15 -0.05 7.09396e-07 -4.21469e-10 -1.13001e-05 0 4.03614e-17
224 23 0.001 -0.0942857 5.73532e-15 -0.05 2.12239e-08 2.197e-09 -5.84851e-06 0 4.69163e-20
225 23 0.001 -0.0933333 1.54895e-13 -0.05 3.29976e-09 1.8084e-09 6.70919e-07 0 9.94241e-22
226 23 0.001 -0.092381 -4.44308e-13 -0.05 2.71142e-09 -4.83196e-08 1.02377e-07 0 2.36451e-22
227 23 0.001 -0.0914286 -3.79436e-12 -0.05 1.41773e-10 6.90676e-08 -1.54296e-08 0 4.83359e-22
228 23 0.001 -0.0904762 2.31414e-11 -0.05 -3.95639e-09 3.31964e-07 -1.47282e-08 0 4.73729e-22
229 23 0.001 -0.0895238 6.16737e-11 -0.05 1.38082e-10 -1.64253e-06 1.00062e-09 0 4.38699e-22
230 23 0.001 -0.0885714 -1.61462e-10 -0.05 3.44909e-09 2.58749e-06 -6.7743e-08 0 2.58071e-22
231 23 0.001 -0.087619 6.14516e-11 -0.05 2.4734e-09 -1.66457e-06 3.41929e-07 0 9.59809e-22
232 23 0.001 -0.0866667 2.33634e-11 -0.05 -6.49561e-09 2.95628e-07 1.58284e-06 0 1.44812e-21
233 23 0.001 -0.0857143 -3.70483e-12 -0.05 -2.3081e-08 1.49417e-07 -1.44922e-05 0 4.53485e-20
234 23 0.001 -0.0847619 -4.57098e-13 -0.05 -1.01445e-06 -8.70841e-08 -2.70243e-05 0 7.79143e-17
235 23 0.001 -0.0838095 7.33417e-14 -0.05 -2.46112e-05 3.95803e-09 0.000312441 0 5.11715e-14
236 23 0.001 -0.0828572 -2.41314e-16 -0.05 -0.000292803 1.57732e-09 0.00016815 0 9.10241e-12
237 23 0.001 -0.0819049 -4.58498e-16 -0.0500001 -0.00119866 -1.90819e-10 -0.00185252 0 2.41673e-10
3 3 0.001 -0.08 -4.6396e-17 -0.0500001 -6.01628e-05 4.64029e-12 1.37982e-05 0 6.46924e-10
120 22 0.001 -0.0799974 -2.35533e-17 -0.0489999 0.00516387 4.32031e-13 0.000338333 0 1.18067e-10
238 23 0.001 -0.080953 2.99249e-17 -0.0500007 0.00105523 4.55403e-12 -0.000206687 0 5.48296e-10
359 25 0.001 -0.0801984 1.59344e-17 -0.04902 -0.00513918 3.40705e-12 -0.000657537 0 1.14003e-10
459 27 0.001 -0.0790471 4.59155e-16 -0.0500005 -0.000981702 -5.9662e-13 -0.000183817 0 3.96941e-10
460 27 0.001 -0.0780952 -4.55353e-15 -0.0500001 0.000960933 -2.5025e-10 -0.00118586 0 1.56788e-10
461 27 0.001 -0.0771429 -8.83226e-15 -0.05 0.000240375 9.15013e-10 0.000113557 0 6.17164e-12
462 27 0.001 -0.0761905 1.38942e-13 -0.05 2.04423e-05 -1.27718e-09 0.000202971 0 3.54949e-14
463 27 0.001 -0.0752381 1.34387e-13 -0.05 8.59033e-07 7.69787e-10 -1.79914e-05 0 5.9336e-17
464 27 0.001 -0.0742857 -1.32191e-13 -0.05 2.69813e-08 -2.5344e-09 -9.43021e-06 0 7.36176e-20
465 27 0.001 -0.0733333 -6.09798e-13 -0.05 7.20999e-09 -3.53169e-09 1.07682e-06 0 1.71399e-21
466 27 0.001 -0.072381 -6.33163e-13 -0.05 -3.66361e-09 1.80968e-08 2.02867e-07 0 4.65784e-22
467 27 0.001 -0.0714286 2.09316e-12 -0.05 1.01798e-10 -1.27134e-08 -4.44469e-08 0 3.40329e-23
468 27 0.001 -0.0704762 -3.22563e-13 -0.05 1.17333e-09 -9.04173e-09 -4.31298e-09 0 6.01106e-23
469 27 0.001 -0.0695238 -1.12906e-12 -0.05 -1.78406e-10 4.14794e-08 -1.18223e-08 0 1.5681e-22
470 27 0.001 -0.0685714 7.73346e-13 -0.05 -1.916e-09 -6.44418e-08 -8.8989e-08 0 1.07187e-22
471 27 0.001 -0.067619 -6.37614e-13 -0.05 -2.67396e-09 4.13263e-08 4.43178e-07 0 6.33772e-22
472 27 0.001 -0.0666667 3.31139e-13 -0.05 2.23567e-09 -1.13462e-08 1.44771e-06 0 6.67552e-22
473 27 0.001 -0.0657143 4.32759e-14 -0.05 -2.10534e-08 2.71473e-09 -1.44112e-05 0 3.41092e-20
474 27 0.001 -0.0647619 -3.90939e-14 -0.05 -1.0179e-06 1.41421e-10 -2.70485e-05 0 7.79938e-17
475 27 0.001 -0.0638095 1.47822e-15 -0.05 -2.46111e-05 -4.15606e-10 0.000312474 0 5.11722e-14
476 27 0.001 -0.0628572 7.53278e-16 -0.05 -0.000292772 1.04329e-10 0.000168203 0 9.10085e-12
477 27 0.001 -0.0619049 -3.1359e-16 -0.0500001 -0.00119761 -4.45754e-12 -0.00185345 0 2.41393e-10
478 27 0.001 -0.060953 4.69559e-16 -0.0500007 0.00107211 1.45943e-11 -0.00020506 0 5.53871e-10
5 5 0.001 -0.06 1.49364e-14 -0.0500001 -3.85817e-05 1.66358e-11 1.97565e-05 0 6.47114e-10
360 26 0.001 -0.0599974 4.25715e-16 -0.0489999 0.00516954 1.2556e-11 0.000342109 0 1.17545e-10
599 29 0.001 -0.0601984 4.1331e-16 -0.04902 -0.00505048 1.31469e-11 -0.000639391 0 1.13947e-10
699 31 0.001 -0.0590471 1.12573e-14 -0.0500005 -0.000964815 -1.31809e-09 -0.000182146 0 3.92042e-10
700 31 0.001 -0.0580952 -2.82677e-14 -0.0500001 0.000961878 7.22873e-09 -0.00118896 0 1.57007e-10
701 31 0.001 -0.0571429 4.55088e-13 -0.05 0.000240407 4.09642e-08 0.00011423 0 6.1755e-12
702 31 0.001 -0.0561905 -2.56888e-12 -0.05 2.05412e-05 -2.91556e-07 0.000369629 0 3.5666e-14
703 31 0.001 -0.0552381 -2.09762e-11 -0.05 8.08006e-07 8.03977e-07 -0.00101083 0 5.39137e-17
704 31 0.001 -0.0542857 4.70745e-11 -0.0500001 1.63454e-07 -1.07096e-06 -0.00072199 0 3.92995e-17
705 31 0.001 -0.0533333 -1.6654e-11 -0.0499997 -1.95462e-05 6.09197e-07 0.0145029 0 1.04378e-16
706 31 0.001 -0.052381 -1.31282e-11 -0.0499982 -9.04498e-05 -1.06326e-08 -0.0512367 0 3.64052e-13
707 31 0.001 -0.0514286 6.46268e-12 -0.0500041 -3.37293e-08 -1.45737e-07 0.0765532 0 7.27777e-13
708 31 0.001 -0.0504762 -2.02329e-12 -0.0499982 9.04469e-05 5.8861e-08 -0.0512507 0 3.63856e-13
709 31 0.001 -0.0495238 -2.11869e-12 -0.0499997 1.95712e-05 7.02097e-08 0.0145462 0 1.06436e-16
710 31 0.001 -0.0485714 6.71922e-12 -0.0500001 -1.24767e-07 -1.46329e-07 -0.000781475 0 4.02781e-17
711 31 0.001 -0.047619 -2.46946e-12 -0.05 3.03112e-08 1.01216e-07 -0.000936093 0 2.06316e-20
712 31 0.001 -0.0466667 -1.6773e-13 -0.05 -9.28629e-09 1.25623e-08 0.000138517 0 5.66826e-21
713 31 0.001 -0.0457143 1.76388e-13 -0.05 -1.07114e-08 -8.22969e-08 -6.20087e-06 0 2.69748e-20
714 31 0.001 -0.0447619 -1.87621e-12 -0.05 -1.02179e-06 5.03569e-08 -2.80016e-05 0 7.83534e-17
715 31 0.001 -0.0438095 1.7608e-13 -0.05 -2.46084e-05 -6.65007e-10 0.000312563 0 5.11634e-14
716 31 0.001 -0.0428572 1.07305e-12 -0.05 -0.000292774 -1.11758e-08 0.000168204 0 9.10089e-12
717 31 0.001 -0.0419049 -9.94754e-14 -0.0500001 -0.00119761 8.06599e-09 -0.00185345 0 2.41394e-10
718 31 0.001 -0.040953 -4.75213e-14 -0.0500007 0.00107211 -2.0766e-09 -0.00020506 0 5.53871e-10
7 7 0.001 -0.04 3.01866e-14 -0.0500001 -3.85817e-05 -1.38582e-11 1.97649e-05 0 6.47114e-10
600 30 0.001 -0.0399974 5.04714e-16 -0.0489999 0.00516954 3.09097e-11 0.000342109 0 1.17545e-10
839 33 0.001 -0.0401984 5.19109e-16 -0.04902 -0.00505048 3.05824e-11 -0.000639391 0 1.13947e-10
939 35 0.001 -0.0390471 1.32211e-14 -0.0500005 -0.000964815 -8.13807e-11 -0.000182238 0 3.92042e-10
940 35 0.001 -0.0380952 -2.4386e-14 -0.0500001 0.000961878 9.93716e-11 -0.0011868 0 1.57007e-10
941 35 0.001 -0.0371429 -1.04316e-14 -0.05 0.000240408 1.38498e-10 0.000113607 0 6.1755e-12
942 35 0.001 -0.0361905 1.50719e-14 -0.05 2.05401e-05 -2.13487e-10 0.000203004 0 3.56657e-14
943 35 0.001 -0.0352381 1.68723e-15 -0.05 8.46748e-07 -4.40197e-10 -1.79833e-05 0 5.39089e-17
944 35 0.001 -0.0342857 -1.345e-14 -0.05 1.91077e-08 1.31267e-09 -9.44138e-06 0 2.94519e-20
945 35 0.001 -0.0333333 1.51854e-13 -0.05 4.84576e-10 1.77188e-09 1.08003e-06 0 1.17031e-22
946 35 0.001 -0.032381 7.85144e-14 -0.05 1.50605e-09 -8.73181e-09 2.03157e-07 0 2.7536e-22
947 35 0.001 -0.0314286 -1.43594e-12 -0.05 -9.25697e-11 -5.49373e-08 -5.00164e-08 0 2.46516e-22
948 35 0.001 -0.0304762 5.67121e-12 -0.05 -1.84136e-09 4.4359e-07 1.20871e-08 0 6.93885e-23
949 35 0.001 -0.0295238 2.36354e-11 -0.05 5.69885e-09 -1.13706e-06 -5.11154e-08 0 1.99947e-23
950 35 0.001 -0.0285714 -1.81251e-10 -0.05 -5.37095e-10 -2.52345e-08 -3.90929e-08 0 2.00177e-21
951 35 0.001 -0.027619 -2.53107e-10 -0.05 -1.01835e-08 6.06e-06 4.20439e-07 0 7.07603e-21
952 35 0.001 -0.0266667 8.08946e-10 -0.05 9.26402e-09 -1.10528e-05 1.19788e-06 0 6.28234e-21
953 35 0.001 -0.0257143 -2.40308e-10 -0.05 -2.60148e-08 7.05736e-06 -1.39685e-05 0 3.64259e-20
954 35 0.001 -0.0247619 -1.94808e-10 -0.05 -1.02171e-06 -3.21206e-07 -2.7176e-05 0 7.88922e-17
955 35 0.001 -0.0238095 2.65786e-11 -0.05 -2.46022e-05 -1.53586e-06 0.000312372 0 5.1147e-14
956 35 0.001 -0.0228572 6.86551e-12 -0.05 -0.000292811 5.90927e-07 0.000168158 0 9.1026e-12
957 35 0.001 -0.0219049 -9.73437e-13 -0.0500001 -0.00119865 -3.20402e-09 -0.00185253 0 2.41672e-10
9 9 0.001 -0.02 2.58873e-14 -0.0500001 -5.96338e-05 1.28261e-09 1.39177e-05 0 6.46925e-10
840 34 0.001 -0.0199974 1.78823e-16 -0.0489999 0.00516391 3.01603e-11 0.000338351 0 1.18064e-10
958 35 0.001 -0.020953 -3.84492e-14 -0.0500007 0.00105535 -1.6815e-08 -0.000206674 0 5.48332e-10
1079 37 0.001 -0.0201984 1.64488e-16 -0.04902 -0.00511756 2.84345e-11 -0.000653204 0 1.14003e-10
1179 39 0.001 -0.0190471 7.68401e-16 -0.0500005 -0.000981587 -2.89852e-11 -0.000183809 0 3.96911e-10
1180 39 0.001 -0.0180952 -1.24109e-14 -0.0500001 0.000960941 1.11438e-10 -0.00118587 0 1.56789e-10
1181 39 0.001 -0.0171429 4.88228e-16 -0.05 0.000240371 6.15533e-12 0.000113559 0 6.17148e-12
1182 39 0.001 -0.0161905 2.29765e-14 -0.05 2.04452e-05 -1.70822e-10 0.000202963 0 3.55033e-14
1183 39 0.001 -0.0152381 -7.95399e-16 -0.05 8.52126e-07 1.15074e-10 -1.79732e-05 0 5.89573e-17
1184 39 0.001 -0.0142857 -1.01783e-14 -0.05 3.07818e-08 -5.38687e-10 -9.45026e-06 0 9.54072e-20
1185 39 0.001 -0.0133333 -2.97099e-14 -0.05 9.07593e-09 1.46226e-10 1.12871e-06 0 2.40443e-21
1186 39 0.001 -0.012381 1.85049e-13 -0.05 -3.99493e-09 1.97163e-08 8.05226e-08 0 1.1866e-21
1187 39 0.001 -0.0114286 1.76158e-12 -0.05 6.38586e-09 -4.59056e-08 8.89287e-08 0 8.64744e-22
1188 39 0.001 -0.0104762 -1.08277e-11 -0.05 6.04478e-09 -1.21011e-07 -7.51622e-08 0 5.06872e-21
1189 39 0.001 -0.00952381 -2.85392e-11 -0.05 -1.42514e-08 7.41218e-07 -2.78156e-09 0 6.18125e-21
1190 39 0.001 -0.00857143 7.49024e-11 -0.05 6.59213e-10 -1.20445e-06 -3.30398e-08 0 1.66012e-21
1191 39 0.001 -0.00761905 -2.84818e-11 -0.05 -2.05645e-09 7.86032e-07 2.9106e-07 0 9.64937e-22
1192 39 0.001 -0.00666667 -1.08689e-11 -0.05 7.8347e-09 -1.43123e-07 1.63663e-06 0 1.72325e-21
1193 39 0.001 -0.00571429 1.7147e-12 -0.05 -2.84876e-08 -7.00035e-08 -1.45198e-05 0 4.36804e-20
1194 39 0.001 -0.0047619 2.16703e-13 -0.05 -1.01622e-06 4.03421e-08 -2.70203e-05 0 7.80612e-17
1195 39 0.001 -0.00380952 -3.42535e-14 -0.05 -2.46108e-05 -1.79067e-09 0.00031244 0 5.11683e-14
1196 39 0.001 -0.00285715 -2.90917e-19 -0.05 -0.000292806 -7.44541e-10 0.000168152 0 9.10256e-12
1197 39 0.001 -0.00190486 2.58594e-16 -0.0500001 -0.00119865 8.92662e-11 -0.00185253 0 2.41672e-10
1198 39 0.001 -0.000952964 -1.55075e-17 -0.0500007 0.00105535 -1.93999e-12 -0.000206674 0 5.48332e-10
1319 41 0.001 -0.00019837 2.65434e-17 -0.04902 -0.00511756 -7.76108e-13 -0.000653204 0 1.14003e-10
11 11 0.001 -2.33117e-08 -4.21094e-17 -0.0500001 -5.96251e-05 9.71475e-13 1.39178e-05 0 6.46928e-10
1080 38 0.001 2.56566e-06 1.33771e-17 -0.0489999 0.00516391 -3.14195e-13 0.000338351 0 1.18064e-10
1419 43 0.001 0.000952852 3.74549e-17 -0.0500005 -0.000981574 -2.11865e-11 -0.000183809 0 3.96905e-10
1420 43 0.001 0.00190485 -6.43563e-16 -0.0500001 0.00096084 -3.10638e-10 -0.00118587 0 1.56782e-10
1421 43 0.001 0.00285715 8.97138e-15 -0.05 0.000240375 1.12424e-08 0.000113554 0 6.1741e-12
1422 43 0.001 0.00380952 2.61465e-14 -0.05 2.05368e-05 -5.30254e-08 0.000203209 0 3.56636e-14
1423 43 0.001 0.0047619 -3.61772e-12 -0.05 8.4992e-07 -1.82402e-07 -2.05825e-05 0 5.43039e-17
1424 43 0.001 0.00571429 1.38102e-11 -0.05 2.00261e-08 1.30016e-06 -2.88308e-05 0 2.57101e-20
1425 43 0.001 0.00666667 8.95263e-11 -0.05 6.20301e-10 -3.51525e-06 0.000148496 0 1.06895e-21
1426 43 0.001 0.00761905 -2.00113e-10 -0.05 -6.34741e-09 4.86115e-06 0.000125074 0 4.47836e-20
1427 43 0.001 0.00857143 9.31494e-11 -0.0500001 -4.93459e-07 -3.35885e-06 -0.00231405 0 7.86194e-20
1428 43 0.001 0.00952381 8.43567e-12 -0.0500003 -2.27956e-06 1.05319e-06 0.00815195 0 2.33692e-16
1429 43 0.001 0.0104762 -2.49197e-12 -0.0499994 -2.81671e-09 -1.77524e-07 -0.0121769 0 4.66247e-16
1430 43 0.001 0.0114286 5.44107e-12 -0.0500003 2.29223e-06 6.51362e-07 0.00815165 0 2.32644e-16
1431 43 0.001 0.012381 5.88943e-11 -0.0500001 4.88861e-07 -2.11959e-06 -0.00231299 0 8.28537e-20
1432 43 0.001 0.0133333 -1.25226e-10 -0.05 -3.21129e-10 3.11177e-06 0.000124089 0 3.0013e-20
1433 43 0.001 0.0142857 5.71601e-11 -0.05 -2.38311e-08 -2.22594e-06 0.00013751 0 3.80505e-20
1434 43 0.001 0.0152381 5.85284e-12 -0.05 -1.01934e-06 7.13143e-07 -5.03618e-05 0 7.8421e-17
1435 43 0.001 0.0161905 -1.00032e-12 -0.05 -2.46077e-05 -4.97552e-08 0.00031116 0 5.11646e-14
1436 43 0.001 0.0171428 1.6458e-13 -0.05 -0.000292806 -2.27839e-08 0.00016833 0 9.10255e-12
1437 43 0.001 0.0180951 -6.95442e-15 -0.0500001 -0.00119865 3.77597e-09 -0.00185254 0 2.41672e-10
1438 43 0.001 0.019047 -1.3509e-14 -0.0500007 0.00105535 -3.2364e-10 -0.000206673 0 5.48331e-10
13 13 0.001 0.02 3.51977e-15 -0.0500001 -5.96398e-05 -1.65757e-11 1.39174e-05 0 6.46921e-10
1320 42 0.001 0.0200026 1.1357e-16 -0.0489999 0.00516391 6.57275e-12 0.000338351 0 1.18064e-10
1559 45 0.001 0.0198016 7.90822e-17 -0.04902 -0.00511756 3.46561e-12 -0.000653204 0 1.14003e-10
1659 47 0.001 0.0209529 1.15847e-16 -0.0500005 -0.000981567 3.64846e-12 -0.000183809 0 3.96909e-10
1660 47 0.001 0.0219048 -7.04515e-17 -0.0500001 0.000961037 -3.95898e-13 -0.00118587 0 1.56784e-10
1661 47 0.001 0.0228571 -8.36399e-18 -0.05 0.000240079 -1.53095e-12 0.000113557 0 6.16627e-12
1662 47 0.001 0.0238095 1.33525e-17 -0.05 2.06426e-05 4.73334e-13 0.000202969 0 3.61292e-14
1663 47 0.001 0.0247619 -1.49809e-19 -0.05 8.68293e-07 -1.62959e-14 -1.79895e-05 0 5.31641e-17
1664 47 0.001 0.0257143 -4.66208e-19 -0.05 -1.82353e-10 -6.59684e-15 -9.42535e-06 0 6.82408e-21
1665 47 0.001 0.0266667 4.88741e-20 -0.05 1.02531e-08 -5.59849e-15 1.06712e-06 0 6.66454e-21
1666 47 0.001 0.027619 2.21364e-21 -0.05 8.29574e-10 1.14472e-15 2.11382e-07 0 3.45332e-21
1667 47 0.001 0.0285714 -1.65164e-21 -0.05 -1.5563e-08 -1.63628e-16 -5.0132e-08 0 1.26343e-20
1668 47 0.001 0.0295238 9.26794e-23 -0.05 1.91637e-08 1.33858e-16 1.60653e-08 0 1.57041e-20
1669 47 0.001 0.0304762 2.75101e-22 -0.05 -9.93021e-09 -2.7042e-16 -5.51928e-08 0 5.47588e-21
1670 47 0.001 0.0314286 -3.05514e-22 -0.05 2.14593e-09 2.36576e-18 -3.08767e-08 0 3.15795e-22
1671 47 0.001 0.032381 -1.2081e-21 -0.05 4.36038e-10 4.72873e-16 3.08427e-07 0 3.48193e-23
1672 47 0.001 0.0333333 3.61248e-20 -0.05 -7.87009e-10 3.16821e-15 1.64397e-06 0 1.5928e-22
1673 47 0.001 0.0342857 -5.44392e-20 -0.05 -2.13237e-08 -2.36333e-14 -1.45287e-05 0 3.05849e-20
1674 47 0.001 0.0352381 -1.27684e-18 -0.05 -1.02074e-06 1.28904e-13 -2.70293e-05 0 7.85043e-17
1675 47 0.001 0.0361905 9.03552e-18 -0.05 -2.46076e-05 6.15614e-14 0.00031248 0 5.11638e-14
1676 47 0.001 0.0371428 -7.73951e-18 -0.05 -0.000292774 -2.30412e-12 0.000168201 0 9.10089e-12
1677 47 0.001 0.0380951 -2.39579e-16 -0.0500001 -0.00119761 -4.93338e-12 -0.00185345 0 2.41394e-10
1678 47 0.001 0.039047 4.72765e-16 -0.0500007 0.00107211 1.60216e-11 -0.00020506 0 5.53871e-10
15 15 0.001 0.04 1.46733e-14 -0.0500001 -3.85817e-05 -2.49523e-11 1.97649e-05 0 6.47114e-10
1560 46 0.001 0.0400026 3.65665e-16 -0.0489999 0.00516954 1.35074e-11 0.000342109 0 1.17545e-10
1799 49 0.001 0.0398016 3.65487e-16 -0.04902 -0.00505048 1.35492e-11 -0.000639391 0 1.13947e-10
1899 51 0.001 0.0409529 1.30424e-14 -0.0500005 -0.000964815 -1.03299e-10 -0.000182238 0 3.92042e-10
1900 51 0.001 0.0419048 -2.42838e-14 -0.0500001 0.000961878 1.11553e-10 -0.0011868 0 1.57007e-10
1901 51 0.001 0.0428571 -1.04356e-14 -0.05 0.000240408 1.34629e-10 0.000113607 0 6.1755e-12
1902 51 0.001 0.0438095 1.49597e-14 -0.05 2.054e-05 -2.3388e-10 0.000203004 0 3.56658e-14
1903 51 0.001 0.0447619 2.95051e-15 -0.05 8.46541e-07 6.17213e-11 -1.79819e-05 0 5.39216e-17
1904 51 0.001 0.0457143 -3.40645e-15 -0.05 1.80188e-08 -2.04614e-10 -9.44162e-06 0 3.09654e-20
1905 51 0.001 0.0466667 4.62479e-15 -0.05 7.4232e-09 5.17639e-10 1.07152e-06 0 1.23361e-21
1906 51 0.001 0.047619 1.43904e-13 -0.05 -2.7337e-10 -1.49672e-09 2.52225e-07 0 2.36851e-21
1907 51 0.001 0.0485714 -3.3501e-15 -0.05 -1.05715e-08 -1.06877e-10 -1.24178e-07 0 4.7361e-21
1908 51 0.001 0.0495238 -3.90098e-13 -0.05 6.18797e-09 3.42234e-09 3.14229e-08 0 3.45766e-21
1909 51 0.001 0.0504762 2.26398e-13 -0.05 -2.62478e-09 -1.83906e-09 -1.03389e-08 0 7.45713e-22
1910 51 0.001 0.0514286 2.05746e-14 -0.05 3.869e-09 -3.18256e-10 -3.50794e-08 0 9.11507e-22
1911 51 0.001 0.052381 1.45568e-16 -0.05 -3.18053e-09 9.29894e-11 2.5509e-07 0 5.44012e-22
1912 51 0.001 0.0533333 -8.98587e-17 -0.05 -3.81936e-09 -4.5145e-11 1.69379e-06 0 1.93425e-21
1913 51 0.001 0.0542857 -3.90624e-20 -0.05 -1.58059e-08 -1.16661e-12 -1.4552e-05 0 2.72182e-20
1914 51 0.001 0.0552381 -1.04597e-18 -0.05 -1.0212e-06 3.06359e-13 -2.70162e-05 0 7.84105e-17
1915 51 0.001 0.0561905 -8.18733e-19 -0.05 -2.46085e-05 4.44764e-15 0.000312444 0 5.11652e-14
1916 51 0.001 0.0571428 9.9909e-19 -0.05 -0.000292805 -1.4944e-12 0.000168248 0 9.10244e-12
1917 51 0.001 0.0580951 2.74113e-17 -0.0500001 -0.00119865 2.35272e-11 -0.00185312 0 2.41672e-10
17 17 0.001 0.06 -2.683e-14 -0.0500001 -5.92892e-05 -1.07627e-09 5.08841e-05 0 6.46494e-10
1800 50 0.001 0.0600026 -5.24387e-17 -0.0489999 0.00516392 -3.67061e-11 0.000340402 0 1.17839e-10
1918 51 0.001 0.059047 -4.72797e-17 -0.0500007 0.00105535 -4.275e-11 -0.000205778 0 5.48333e-10
2039 53 0.001 0.0598016 -8.19452e-17 -0.04902 -0.00511783 -3.455e-11 -0.000651208 0 1.13791e-10
2139 55 0.001 0.0609529 6.92055e-14 -0.0500005 -0.000981023 6.17625e-08 -0.00154332 0 3.96901e-10
2140 55 0.001 0.0619048 1.11831e-12 -0.0500001 0.000958567 -1.21989e-07 0.00583299 0 1.56738e-10
2141 55 0.001 0.0628571 -4.64399e-12 -0.0499996 0.000347594 -3.39463e-08 0.0393907 0 6.32148e-12
2142 55 0.001 0.0638095 -1.22713e-11 -0.0500023 -0.00378858 3.87544e-07 -0.29537 0 2.83933e-10
2143 55 0.001 0.0647622 3.06997e-11 -0.0500232 0.0339602 -7.57062e-07 -0.0335815 0 6.04397e-08
2144 55 0.001 0.0656984 -3.01759e-13 -0.0498975 -0.108001 3.02221e-06 1.55946 0 3.70977e-05
2145 55 0.001 0.0666882 8.94282e-11 -0.0493236 1.37275 -1.09263e-05 -8.57602 0 0.00207425
2146 55 0.001 0.067619 -3.08673e-09 -0.0515076 -4.2107e-06 -1.19075e-05 14.6015 0 0.00407447
2147 55 0.001 0.0685499 2.83865e-08 -0.0493236 -1.37251 0.00114182 -8.57535 0 0.00207425
2148 55 0.001 0.0695396 2.15526e-07 -0.0498972 0.107964 -0.00558846 1.55418 0 3.70479e-05
2149 55 0.001 0.0704759 -4.73885e-07 -0.0500237 -0.034343 0.00923841 -0.0242667 0 5.89961e-08
2150 55 0.001 0.0714286 1.85384e-07 -0.0500021 0.00398786 -0.00631351 -0.301606 0 3.13496e-10
2151 55 0.001 0.072381 6.19948e-08 -0.0499996 -9.75102e-05 0.00138346 0.0406517 0 1.10283e-13
2152 55 0.001 0.0733333 -1.37723e-08 -0.05 1.92831e-06 0.000392662 0.00678604 0 2.96274e-17
2153 55 0.001 0.0742857 -8.39752e-10 -0.05 -3.47691e-08 -0.000289777 -0.00114989 0 1.03583e-19
2154 55 0.001 0.0752381 1.88386e-10 -0.05 -1.81804e-06 5.38389e-05 -1.68777e-05 0 2.44104e-16
2155 55 0.001 0.0761905 -4.92991e-13 -0.05 -5.10422e-05 2.52304e-06 8.96915e-06 0 2.13114e-13
2156 55 0.001 0.0771428 -3.70425e-13 -0.05 -0.000641338 -7.06298e-07 -7.25112e-06 0 4.28823e-11
2157 55 0.001 0.078095 1.30081e-14 -0.05 -0.00155574 1.58788e-08 1.24382e-06 0 7.43836e-10
2158 55 0.001 0.0790466 -6.34099e-17 -0.05 0.000441421 7.47835e-10 -0.00550964 0 7.68152e-10
2279 57 0.001 0.079799 -5.14969e-17 -0.0490196 0.00235218 5.08615e-13 -0.00687641 0 8.45603e-10
19 19 0.001 0.0799992 -1.80953e-16 -0.05 0.0011224 -5.0139e-11 0.00241319 0 7.02408e-10
2040 54 0.001 0.0800081 -2.17275e-16 -0.049 -0.0011919 1.02039e-12 -0.00195691 0 1.50459e-12
22 21 0.001 -0.1 2.78926e-18 -0.048 -0.00069698 -1.18543e-14 0.000556043 0 5.35081e-11
121 22 0.001 -0.0799974 4.18461e-17 -0.0479996 0.00777895 -8.55768e-13 0.000403393 0 7.46791e-11
358 25 0.001 -0.0803947 -2.63136e-17 -0.0480394 -0.00686745 -5.89055e-12 -0.000963071 0 7.40744e-11
598 29 0.001 -0.0603947 -2.27174e-16 -0.0480394 -0.00715757 -4.56695e-12 -0.00102113 0 7.40759e-11
361 26 0.001 -0.0599974 -2.76079e-16 -0.0479996 0.00777638 -2.86155e-12 0.000403619 0 7.46473e-11
601 30 0.001 -0.0399974 -2.35993e-16 -0.0479996 0.00777638 -1.34578e-11 0.000403619 0 7.46473e-11
838 33 0.001 -0.0403947 -2.54722e-16 -0.0480394 -0.00715757 -1.28908e-11 -0.00102113 0 7.40759e-11
841 34 0.001 -0.0199974 -9.81671e-17 -0.0479996 0.00777894 -1.3938e-11 0.000403407 0 7.46791e-11
1078 37 0.001 -0.0203947 -6.69953e-17 -0.0480394 -0.00685981 -8.70041e-12 -0.000961553 0 7.40742e-11
1318 41 0.001 -0.000394727 -3.84739e-17 -0.0480394 -0.00685981 1.90598e-12 -0.000961553 0 7.40743e-11
1081 38 0.001 2.59538e-06 -2.36877e-17 -0.0479996 0.00777894 5.68349e-13 0.000403407 0 7.46791e-11
1321 42 0.001 0.0200026 -7.6004e-17 -0.0479996 0.00777895 -6.66257e-12 0.000403407 0 7.46791e-11
1558 45 0.001 0.0196053 -2.36881e-17 -0.0480394 -0.00685981 -1.27655e-12 -0.000961553 0 7.40742e-11
1561 46 0.001 0.0400026 -1.6845e-16 -0.0479996 0.00777638 -5.39021e-12 0.000403619 0 7.46473e-11
1798 49 0.001 0.0396053 -1.65405e-16 -0.0480394 -0.00715757 -5.51108e-12 -0.00102113 0 7.40759e-11
1801 50 0.001 0.0600026 4.97357e-17 -0.0479996 0.00777895 2.14735e-11 0.000403414 0 7.46783e-11
2038 53 0.001 0.0596053 7.80913e-17 -0.0480394 -0.0068598 1.62312e-11 -0.000961545 0 7.40734e-11
2278 57 0.001 0.0796049 9.86293e-17 -0.0480393 -0.0110404 -1.74039e-12 -0.000100105 0 2.19152e-10
2041 54 0.001 0.0800086 2.56721e-16 -0.048 0.00262896 5.12014e-13 0.00259935 0 4.34372e-16
23 21 0.001 -0.1 4.16111e-19 -0.047 9.18148e-05 4.90065e-14 0.000100173 0 9.81423e-13
24 21 0.001 -0.1 -1.81759e-18 -0.046 9.73967e-05 -9.90076e-14 5.63017e-06 0 2.59463e-15
122 22 0.001 -0.0799977 -2.24163e-17 -0.0469996 0.00668447 6.34547e-13 0.000908198 0 2.05652e-12
123 22 0.001 -0.079998 2.45409e-18 -0.0459996 0.00547531 -2.14415e-13 0.000923646 0 4.81391e-12
356 25 0.001 -0.0807863 2.57292e-18 -0.0460785 -0.00566581 -5.12776e-13 -0.000193669 0 4.72689e-12
357 25 0.001 -0.0805906 1.03007e-17 -0.0470589 -0.00685718 3.41809e-12 -0.000449375 0 2.05564e-12
596 29 0.001 -0.0607863 1.24659e-17 -0.0460785 -0.00560805 9.98977e-14 -0.000182132 0 4.72701e-12
597 29 0.001 -0.0605906 -6.25883e-18 -0.0470589 -0.00679789 -1.52337e-12 -0.000437525 0 2.056e-12
362 26 0.001 -0.0599977 3.16701e-17 -0.0469996 0.00668423 -3.43974e-12 0.000908121 0 2.05622e-12
363 26 0.001 -0.059998 8.82319e-18 -0.0459996 0.00547538 9.83054e-13 0.000923666 0 4.81382e-12
836 33 0.001 -0.0407863 3.11012e-18 -0.0460785 -0.00560805 1.50827e-13 -0.000182132 0 4.72701e-12
602 30 0.001 -0.0399977 -1.37188e-17 -0.0469996 0.00668423 -1.60489e-12 0.000908121 0 2.05622e-12
603 30 0.001 -0.039998 1.35662e-18 -0.0459996 0.00547538 2.06152e-13 0.000923666 0 4.81382e-12
837 33 0.001 -0.0405906 -7.64551e-18 -0.0470589 -0.00679789 -1.82036e-12 -0.000437525 0 2.056e-12
842 34 0.001 -0.0199977 -1.68855e-19 -0.0469996 0.00668444 -8.02411e-13 0.000908199 0 2.05653e-12
843 34 0.001 -0.019998 4.72369e-18 -0.0459996 0.00547532 3.69625e-14 0.000923628 0 4.81389e-12
1076 37 0.001 -0.0207863 -3.13891e-18 -0.0460785 -0.00565724 5.58111e-13 -0.00019196 0 4.72683e-12
1077 37 0.001 -0.0205906 -8.30606e-18 -0.0470589 -0.00691749 -4.41763e-12 -0.00046142 0 2.05555e-12
1316 41 0.001 -0.00078634 1.49337e-18 -0.0460785 -0.00565724 1.07957e-12 -0.00019196 0 4.72683e-12
1317 41 0.001 -0.000590615 1.15866e-17 -0.0470589 -0.00691749 -2.1762e-12 -0.00046142 0 2.05555e-12
1082 38 0.001 2.33111e-06 1.0746e-17 -0.0469996 0.00668444 -5.81582e-13 0.000908199 0 2.05653e-12
1083 38 0.001 1.99318e-06 9.12103e-19 -0.0459996 0.00547532 4.81163e-13 0.000923628 0 4.81389e-12
1556 45 0.001 0.0192137 -1.144e-17 -0.0460785 -0.00565724 1.60628e-13 -0.00019196 0 4.72683e-12
1557 45 0.001 0.0194094 2.44976e-18 -0.0470589 -0.00691749 -4.66448e-13 -0.00046142 0 2.05555e-12
1322 42 0.001 0.0200023 7.87729e-18 -0.0469996 0.00668444 1.68752e-12 0.000908199 0 2.05653e-12
1323 42 0.001 0.020002 4.27323e-18 -0.0459996 0.00547532 4.08817e-13 0.000923628 0 4.81389e-12
1562 46 0.001 0.0400023 -1.22631e-17 -0.0469996 0.00668423 -1.11672e-12 0.000908121 0 2.05622e-12
1563 46 0.001 0.040002 1.12379e-18 -0.0459996 0.00547538 1.32606e-13 0.000923666 0 4.81382e-12
1796 49 0.001 0.0392137 2.87704e-18 -0.0460785 -0.00560805 -7.13697e-16 -0.000182132 0 4.72701e-12
1797 49 0.001 0.0394094 -1.59563e-17 -0.0470589 -0.00679789 -9.3163e-13 -0.000437525 0 2.056e-12
1802 50 0.001 0.0600023 -2.12581e-17 -0.0469996 0.00668444 -1.39843e-12 0.0009082 0 2.05653e-12
1803 50 0.001 0.060002 2.82801e-18 -0.0459996 0.00547532 -5.72465e-13 0.000923629 0 4.81389e-12
2036 53 0.001 0.0592137 -1.26485e-17 -0.0460785 -0.0056582 8.84555e-15 -0.000192152 0 4.72683e-12
2037 53 0.001 0.0594094 -9.81573e-18 -0.0470589 -0.00691763 6.91225e-13 -0.000461447 0 2.05555e-12
2276 57 0.001 0.0792137 3.35167e-18 -0.0460785 -0.00485875 -7.40301e-13 -2.12736e-05 0 5.24319e-12
2277 57 0.001 0.0794095 -6.4869e-17 -0.0470589 -0.00688788 1.74925e-12 -8.8272e-05 0 9.17058e-12
2042 54 0.001 0.0800075 1.98878e-16 -0.047 0.00369793 -5.73246e-12 0.00260271 0 9.77379e-16
2043 54 0.001 0.0800062 -2.48445e-16 -0.046 0.00248982 7.01905e-12 0.00234264 0 1.14042e-15
25 21 0.001 -0.1 -1.94016e-19 -0.045 -1.03445e-05 4.27572e-14 1.41264e-07 0 1.68451e-18
124 22 0.001 -0.0799984 -1.16087e-18 -0.0449997 0.00436481 6.47383e-14 0.000793489 0 8.41475e-12
355 25 0.001 -0.080982 -6.02855e-18 -0.0450981 -0.00444939 -2.71552e-13 -8.18324e-05 0 8.32478e-12
595 29 0.001 -0.060982 2.18853e-18 -0.0450981 -0.00443266 3.9806e-14 -7.84933e-05 0 8.32485e-12
364 26 0.001 -0.0599984 -1.33149e-18 -0.0449997 0.00436482 -7.31092e-14 0.000793498 0 8.41479e-12
835 33 0.001 -0.040982 -2.37697e-19 -0.0450981 -0.00443266 6.92236e-14 -7.84933e-05 0 8.32485e-12
604 30 0.001 -0.0399984 5.30347e-19 -0.0449997 0.00436482 2.59554e-14 0.000793498 0 8.41479e-12
844 34 0.001 -0.0199984 8.19585e-19 -0.0449997 0.00436482 5.91597e-15 0.000793491 0 8.4147e-12
1075 37 0.001 -0.020982 3.75791e-19 -0.0450981 -0.00442439 1.47712e-13 -7.6844e-05 0 8.32481e-12
1315 41 0.001 -0.000982005 1.90004e-18 -0.0450981 -0.00442439 2.54579e-14 -7.6844e-05 0 8.32481e-12
1084 38 0.001 1.58518e-06 -2.3032e-19 -0.0449997 0.00436482 -2.97398e-13 0.000793491 0 8.4147e-12
1555 45 0.001 0.019018 -5.35287e-19 -0.0450981 -0.00442439 1.12867e-13 -7.6844e-05 0 8.32481e-12
1324 42 0.001 0.0200016 -5.41407e-19 -0.0449997 0.00436482 3.42429e-14 0.000793491 0 8.4147e-12
1795 49 0.001 0.039018 -2.4153e-19 -0.0450981 -0.00443266 7.87509e-14 -7.84933e-05 0 8.32485e-12
1564 46 0.001 0.0400016 5.26522e-19 -0.0449997 0.00436482 2.2977e-14 0.000793498 0 8.41479e-12
1804 50 0.001 0.0600016 1.65666e-18 -0.0449997 0.00436482 1.04654e-13 0.000793492 0 8.41471e-12
2035 53 0.001 0.059018 3.79722e-19 -0.0450981 -0.0044282 2.06255e-14 -7.76038e-05 0 8.32482e-12
2275 57 0.001 0.079018 -4.63143e-18 -0.0450981 -0.00436428 -2.05635e-13 -7.55328e-05 0 8.34166e-12
2044 54 0.001 0.080005 1.99283e-17 -0.045 0.00137427 -2.96027e-12 0.00193532 0 1.43839e-15
26 21 0.001 -0.1 1.47774e-19 -0.044 -3.80065e-06 6.92863e-15 -6.56751e-09 0 3.40403e-22
27 21 0.001 -0.1 1.41466e-20 -0.043 4.53771e-07 1.53381e-15 -8.73807e-09 0 2.35502e-26
353 25 0.001 -0.0813733 1.80915e-16 -0.0431372 -0.00201612 -6.73091e-12 3.79319e-05 0 9.67622e-12
125 22 0.001 -0.0799989 5.18802e-19 -0.0439998 0.00316004 -2.53688e-14 0.000620433 0 9.91223e-12
126 22 0.001 -0.0799993 2.26512e-19 -0.0429998 0.00197149 2.55202e-14 0.000432447 0 9.71446e-12
354 25 0.001 -0.0811776 2.25571e-17 -0.0441176 -0.00321992 3.57282e-12 -1.15399e-05 0 9.83766e-12
593 29 0.001 -0.0613733 -1.75847e-18 -0.0431372 -0.00201725 3.33032e-14 3.77063e-05 0 9.67624e-12
594 29 0.001 -0.0611776 -3.42167e-19 -0.0441176 -0.00321897 -1.08504e-14 -1.13497e-05 0 9.83768e-12
365 26 0.001 -0.0599989 9.59997e-20 -0.0439998 0.00316004 -1.35922e-14 0.000620436 0 9.91225e-12
366 26 0.001 -0.0599993 -1.7781e-18 -0.0429998 0.00197149 1.63179e-14 0.000432448 0 9.71446e-12
833 33 0.001 -0.0413733 -2.65689e-18 -0.0431372 -0.00201725 5.25508e-14 3.77063e-05 0 9.67624e-12
834 33 0.001 -0.0411776 1.10176e-18 -0.0441176 -0.00321897 -4.97167e-14 -1.13497e-05 0 9.83768e-12
605 30 0.001 -0.0399989 7.67222e-19 -0.0439998 0.00316004 -2.77576e-14 0.000620436 0 9.91225e-12
606 30 0.001 -0.0399993 -3.06186e-18 -0.0429998 0.00197149 4.66046e-14 0.000432448 0 9.71446e-12
1073 37 0.001 -0.0213733 1.69874e-16 -0.0431372 -0.00203502 -1.5661e-11 3.41611e-05 0 9.67628e-12
1074 37 0.001 -0.0211776 2.74213e-17 -0.0441176 -0.00321256 3.34716e-12 -1.0071e-05 0 9.83772e-12
845 34 0.001 -0.0199989 -1.57435e-18 -0.0439998 0.00316004 2.63008e-14 0.000620438 0 9.91223e-12
846 34 0.001 -0.0199993 1.59393e-18 -0.0429998 0.00197149 -2.92545e-14 0.00043245 0 9.71447e-12
1313 41 0.001 -0.00137328 1.66439e-16 -0.0431372 -0.00203502 -1.56e-11 3.41611e-05 0 9.67628e-12
1314 41 0.001 -0.00117764 2.77984e-17 -0.0441176 -0.00321256 3.27176e-12 -1.00711e-05 0 9.83772e-12
1085 38 0.001 1.1455e-06 4.83582e-19 -0.0439998 0.00316004 7.10144e-14 0.000620438 0 9.91223e-12
1086 38 0.001 7.16988e-07 -9.5905e-19 -0.0429998 0.00197149 1.47166e-14 0.00043245 0 9.71447e-12
1553 45 0.001 0.0186267 1.66506e-16 -0.0431372 -0.00203502 -1.55971e-11 3.41611e-05 0 9.67628e-12
1554 45 0.001 0.0188224 2.98505e-17 -0.0441176 -0.00321256 3.26775e-12 -1.0071e-05 0 9.83772e-12
1325 42 0.001 0.0200011 1.82591e-19 -0.0439998 0.00316004 -3.51262e-14 0.000620438 0 9.91223e-12
1326 42 0.001 0.0200007 -1.45539e-18 -0.0429998 0.00197149 6.22042e-14 0.00043245 0 9.71447e-12
1793 49 0.001 0.0386267 -2.65689e-18 -0.0431372 -0.00201725 5.25596e-14 3.77063e-05 0 9.67624e-12