ITEM: TIMESTEP
6
ITEM: NUMBER OF ATOMS
2279
ITEM: BOX BOUNDS ff ff ff
-1.1000000000000000e-01 1.1000000000000000e-01
-6.0000000000000001e-03 6.0000000000000001e-03
-5.5000000000000000e-02 5.5000000000000000e-02
ITEM: ATOMS id type radius x y z fx fy fz c_bendingE c_stretchingE
1 1 0.001 -0.1 0 -0.05 0.000180294 -3.66801e-16 0.000325374 0 4.11318e-11
21 21 0.001 -0.1 6.17859e-20 -0.0489999 -0.000693274 8.07112e-15 0.000337154 0 3.98851e-11
219 23 0.001 -0.0990475 -1.20111e-19 -0.0500002 0.000320233 -4.68054e-15 -0.000656456 0 3.47219e-11
220 23 0.001 -0.0980952 -1.41188e-18 -0.05 0.00044855 8.04144e-15 -0.000593186 0 1.50492e-11
221 23 0.001 -0.0971429 5.68071e-20 -0.05 6.60238e-05 1.53434e-14 0.000147306 0 3.85808e-13
222 23 0.001 -0.0961905 6.24354e-19 -0.05 3.10573e-06 -1.73963e-14 3.98826e-05 0 7.37219e-16
223 23 0.001 -0.0952381 4.34201e-20 -0.05 8.22411e-08 3.58331e-15 -6.2704e-06 0 5.68069e-19
224 23 0.001 -0.0942857 7.70255e-21 -0.05 -6.7135e-10 -8.38528e-16 -7.39858e-07 0 1.30141e-21
225 23 0.001 -0.0933333 1.81702e-21 -0.05 3.70448e-09 -9.17252e-17 1.07792e-07 0 5.85841e-22
226 23 0.001 -0.092381 -2.62491e-19 -0.05 2.85916e-09 -1.03233e-11 -1.2377e-08 0 1.46996e-22
227 23 0.001 -0.0914286 -3.49041e-13 -0.05 2.92982e-10 -9.80487e-08 -9.97952e-09 0 3.37136e-22
228 23 0.001 -0.0904762 1.68752e-12 -0.05 -4.52449e-09 5.43673e-07 -1.63863e-08 0 3.20232e-22
229 23 0.001 -0.0895238 5.03589e-11 -0.05 3.63068e-10 -1.81117e-06 1.80998e-09 0 2.42047e-22
230 23 0.001 -0.0885714 -1.03394e-10 -0.05 2.9067e-09 2.73101e-06 -4.08588e-08 0 1.15453e-22
231 23 0.001 -0.087619 5.03871e-11 -0.05 4.40676e-09 -1.82499e-06 3.14905e-08 0 8.98529e-22
232 23 0.001 -0.0866667 1.64331e-12 -0.05 -8.19326e-09 5.70394e-07 2.53783e-07 0 1.26401e-21
233 23 0.001 -0.0857143 -3.46172e-13 -0.05 -3.02528e-11 -1.08547e-07 -1.86646e-06 0 7.20268e-22
234 23 0.001 -0.0847619 1.28885e-14 -0.05 -7.91678e-08 -3.45611e-09 -1.53524e-05 0 4.54548e-19
235 23 0.001 -0.0838095 -2.8967e-19 -0.05 -4.46693e-06 1.20568e-09 9.96299e-05 0 1.46087e-15
236 23 0.001 -0.0828571 -1.88897e-18 -0.05 -0.000109265 -6.46676e-11 0.000358347 0 1.01115e-12
237 23 0.001 -0.0819048 6.87869e-18 -0.05 -0.00100037 1.13092e-12 -0.00144579 0 8.59382e-11
3 3 0.001 -0.08 -2.34331e-17 -0.05 -7.17304e-05 -2.92287e-14 -0.000307533 0 1.85573e-10
120 22 0.001 -0.0799987 -1.58557e-19 -0.049 0.00868492 -2.77305e-14 0.000476508 0 2.68488e-11
238 23 0.001 -0.0809527 1.06449e-19 -0.0500004 -0.000713003 8.02197e-17 -0.0016976 0 1.86288e-10
359 25 0.001 -0.0801972 6.7048e-18 -0.0490198 -0.0080556 -2.59749e-13 -0.00111913 0 2.63267e-11
459 27 0.001 -0.0790474 1.84242e-17 -0.0500003 0.000542048 1.10724e-11 -0.00112916 0 1.28105e-10
460 27 0.001 -0.0780952 -2.4856e-17 -0.05 0.000811836 -1.00728e-10 -0.000932048 0 5.62209e-11
461 27 0.001 -0.0771429 -4.06068e-15 -0.05 9.11445e-05 -1.02721e-10 0.000236128 0 7.04589e-13
462 27 0.001 -0.0761905 3.42772e-14 -0.05 3.62084e-06 1.87012e-09 6.43946e-05 0 1.00083e-15
463 27 0.001 -0.0752381 2.01188e-13 -0.05 1.00637e-07 -6.38497e-09 -1.01285e-05 0 8.81461e-19
464 27 0.001 -0.0742857 -3.47548e-13 -0.05 8.02084e-10 5.19095e-09 -1.18221e-06 0 2.02592e-21
465 27 0.001 -0.0733333 -1.39339e-14 -0.05 6.94197e-09 2.0236e-09 1.82078e-07 0 7.85342e-22
466 27 0.001 -0.072381 -2.31753e-13 -0.05 -3.68951e-09 4.81452e-09 -2.35381e-08 0 2.13291e-22
467 27 0.001 -0.0714286 7.79211e-13 -0.05 1.50304e-10 -1.79012e-08 -3.89527e-09 0 1.32063e-23
468 27 0.001 -0.0704762 -4.94893e-13 -0.05 8.86313e-10 3.0122e-08 2.11515e-09 0 2.25688e-23
469 27 0.001 -0.0695238 9.22126e-14 -0.05 1.77843e-10 -3.55396e-08 -4.13628e-08 0 1.21935e-22
470 27 0.001 -0.0685714 1.843e-13 -0.05 -2.28644e-09 1.39043e-08 1.59688e-09 0 9.97927e-23
471 27 0.001 -0.067619 -4.17503e-13 -0.05 -3.74122e-09 5.49888e-09 5.3892e-08 0 5.6395e-22
472 27 0.001 -0.0666667 2.56108e-13 -0.05 3.64796e-09 -5.73545e-09 1.4232e-07 0 5.65493e-22
473 27 0.001 -0.0657143 -3.47375e-14 -0.05 2.03653e-09 3.22234e-09 -1.76928e-06 0 3.1031e-23
474 27 0.001 -0.0647619 -3.26134e-15 -0.05 -8.38191e-08 -9.73295e-10 -1.5384e-05 0 4.6456e-19
475 27 0.001 -0.0638095 4.16813e-16 -0.05 -4.46684e-06 7.31745e-11 9.96383e-05 0 1.46124e-15
476 27 0.001 -0.0628571 -7.14343e-18 -0.05 -0.000109262 7.87608e-12 0.000358382 0 1.01112e-12
477 27 0.001 -0.0619048 -3.69672e-17 -0.05 -0.00100025 -4.71762e-12 -0.00144606 0 8.59207e-11
478 27 0.001 -0.0609527 5.61006e-17 -0.0500004 -0.000708106 8.29732e-12 -0.00169716 0 1.87131e-10
5 5 0.001 -0.06 5.77047e-15 -0.05 -5.4581e-05 2.12055e-11 -0.000303436 0 1.85663e-10
360 26 0.001 -0.0599987 5.663e-17 -0.049 0.00868653 6.24334e-12 0.000477514 0 2.68035e-11
599 29 0.001 -0.0601972 4.55019e-17 -0.0490198 -0.00797959 8.19433e-12 -0.00110389 0 2.63243e-11
699 31 0.001 -0.0590474 1.83529e-14 -0.0500003 0.000546984 -2.90789e-10 -0.00112874 0 1.27388e-10
700 31 0.001 -0.0580952 -3.32463e-14 -0.05 0.000811809 4.71056e-10 -0.000932323 0 5.62294e-11
701 31 0.001 -0.0571429 4.06339e-15 -0.05 9.11499e-05 -2.13426e-10 0.000236164 0 7.05424e-13
702 31 0.001 -0.0561905 9.35553e-15 -0.05 3.7603e-06 1.35233e-10 6.439e-05 0 1.02834e-15
703 31 0.001 -0.0552381 1.47413e-17 -0.05 5.98213e-08 -2.13009e-06 0.000131009 0 2.65772e-19
704 31 0.001 -0.0542857 -2.62665e-16 -0.05 1.69913e-09 4.27638e-06 -0.00194756 0 7.78817e-22
705 31 0.001 -0.0533333 2.0482e-12 -0.05 -4.32255e-06 -2.22686e-06 0.00885568 0 8.43483e-17
706 31 0.001 -0.052381 -4.09647e-12 -0.0499993 -1.5824e-05 1.62135e-07 -0.0350036 0 6.91754e-15
707 31 0.001 -0.0514286 2.53174e-12 -0.0500015 -2.35448e-08 -1.18579e-07 0.0559065 0 1.36449e-14
708 31 0.001 -0.0504762 -9.54389e-13 -0.0499993 1.58439e-05 5.95885e-08 -0.0350034 0 6.89653e-15
709 31 0.001 -0.0495238 4.75257e-13 -0.05 4.31891e-06 -3.30032e-07 0.00871279 0 8.48314e-17
710 31 0.001 -0.0485714 -2.11816e-14 -0.05 1.24189e-08 6.09522e-07 -0.0016612 0 2.86459e-21
711 31 0.001 -0.047619 -2.35137e-14 -0.05 -3.64453e-09 -3.00796e-07 -1.44131e-06 0 1.62977e-21
712 31 0.001 -0.0466667 4.87138e-13 -0.05 -1.43493e-08 5.33345e-09 2.46665e-07 0 7.03595e-21
713 31 0.001 -0.0457143 8.85698e-13 -0.05 2.15793e-08 -3.70715e-08 -1.85161e-06 0 1.10146e-20
714 31 0.001 -0.0447619 -2.86775e-12 -0.05 -9.62803e-08 6.27524e-08 -1.53644e-05 0 5.30933e-19
715 31 0.001 -0.0438095 1.25134e-12 -0.05 -4.45693e-06 -4.20228e-08 9.9639e-05 0 1.4585e-15
716 31 0.001 -0.0428571 3.62894e-13 -0.05 -0.000109269 9.40627e-09 0.000358384 0 1.01116e-12
717 31 0.001 -0.0419048 -7.71883e-14 -0.05 -0.00100025 1.09011e-09 -0.00144606 0 8.59207e-11
718 31 0.001 -0.0409527 -2.1931e-15 -0.0500004 -0.000708107 -9.96221e-10 -0.00169716 0 1.87131e-10
7 7 0.001 -0.04 7.3427e-15 -0.05 -5.4581e-05 1.09253e-10 -0.000303436 0 1.85663e-10
600 30 0.001 -0.0399987 4.19048e-17 -0.049 0.00868653 8.52171e-12 0.000477514 0 2.68035e-11
839 33 0.001 -0.0401972 4.15412e-17 -0.0490198 -0.00797959 8.54122e-12 -0.00110389 0 2.63243e-11
939 35 0.001 -0.0390474 1.83553e-14 -0.0500003 0.000546984 -2.88235e-10 -0.00112874 0 1.27388e-10
940 35 0.001 -0.0380952 -3.32476e-14 -0.05 0.000811809 4.6951e-10 -0.000932323 0 5.62294e-11
941 35 0.001 -0.0371429 4.06351e-15 -0.05 9.11499e-05 -2.13261e-10 0.000236164 0 7.05424e-13
942 35 0.001 -0.0361905 9.35525e-15 -0.05 3.76036e-06 -5.97071e-11 6.43905e-05 0 1.02834e-15
943 35 0.001 -0.0352381 1.52919e-17 -0.05 5.96985e-08 6.7889e-11 -1.01048e-05 0 2.65133e-19
944 35 0.001 -0.0342857 -2.62953e-16 -0.05 3.52091e-09 -1.79429e-11 -1.20993e-06 0 6.94669e-22
945 35 0.001 -0.0333333 6.15656e-17 -0.05 -2.68222e-09 1.5657e-10 1.93298e-07 0 4.15082e-22
946 35 0.001 -0.032381 2.90069e-15 -0.05 6.17112e-09 2.65322e-08 -6.29913e-08 0 1.27196e-21
947 35 0.001 -0.0314286 -2.55324e-14 -0.05 -6.25528e-09 -9.2606e-08 8.02796e-08 0 1.82873e-21
948 35 0.001 -0.0304762 1.4246e-13 -0.05 6.53869e-09 1.73261e-07 -6.58117e-08 0 2.00311e-21
949 35 0.001 -0.0295238 5.5768e-12 -0.05 -5.37661e-09 3.97795e-07 1.04954e-08 0 3.0797e-21
950 35 0.001 -0.0285714 -3.05905e-11 -0.05 1.29862e-08 -3.26797e-06 -1.14474e-07 0 8.9233e-21
951 35 0.001 -0.027619 -3.35264e-10 -0.05 -2.42514e-08 1.06351e-05 3.21334e-07 0 1.65914e-20
952 35 0.001 -0.0266667 7.20269e-10 -0.05 1.99441e-08 -1.57878e-05 -2.56545e-07 0 1.25296e-20
953 35 0.001 -0.0257143 -3.32818e-10 -0.05 -5.75321e-09 1.07635e-05 -1.53541e-06 0 2.94828e-21
954 35 0.001 -0.0247619 -3.55404e-11 -0.05 -9.39541e-08 -3.37738e-06 -1.53052e-05 0 5.71747e-19
955 35 0.001 -0.0238095 8.2845e-12 -0.05 -4.44526e-06 4.21581e-07 9.95315e-05 0 1.45421e-15
956 35 0.001 -0.0228571 1.92413e-14 -0.05 -0.000109284 1.30123e-07 0.000358361 0 1.01127e-12
957 35 0.001 -0.0219048 -5.34395e-14 -0.05 -0.00100036 -2.28666e-08 -0.00144579 0 8.59379e-11
9 9 0.001 -0.02 1.92387e-15 -0.05 -7.15894e-05 3.96833e-11 -0.000307503 0 1.85574e-10
840 34 0.001 -0.0199987 1.79792e-17 -0.049 0.00868493 2.12842e-12 0.000476509 0 2.68487e-11
958 35 0.001 -0.0209527 -3.75921e-15 -0.0500004 -0.000712993 4.83879e-10 -0.0016976 0 1.86289e-10
1079 37 0.001 -0.0201972 1.33744e-17 -0.0490198 -0.00804621 2.22534e-12 -0.00111725 0 2.63266e-11
1179 39 0.001 -0.0190474 4.68371e-16 -0.0500003 0.000542055 -1.50598e-12 -0.00112916 0 1.28104e-10
1180 39 0.001 -0.0180952 -4.511e-15 -0.05 0.000811848 -8.89168e-11 -0.00093205 0 5.62214e-11
1181 39 0.001 -0.0171429 -1.16675e-14 -0.05 9.11313e-05 4.28579e-10 0.000236133 0 7.04495e-13
1182 39 0.001 -0.0161905 3.24471e-14 -0.05 3.63097e-06 -7.04867e-10 6.43805e-05 0 1.00381e-15
1183 39 0.001 -0.0152381 -1.36981e-14 -0.05 8.89653e-08 4.85301e-10 -1.00984e-05 0 8.1164e-19
1184 39 0.001 -0.0142857 -3.39374e-15 -0.05 6.31725e-09 -1.28926e-11 -1.18346e-06 0 6.37283e-21
1185 39 0.001 -0.0133333 3.00432e-17 -0.05 1.03773e-08 -2.2417e-10 1.30519e-07 0 1.52615e-21
1186 39 0.001 -0.012381 6.40296e-16 -0.05 -5.62308e-09 5.41689e-10 -1.18178e-08 0 1.22531e-21
1187 39 0.001 -0.0114286 1.67636e-13 -0.05 7.61162e-09 5.50039e-08 5.09236e-08 0 6.33487e-22
1188 39 0.001 -0.0104762 -7.78021e-13 -0.05 7.26043e-09 -2.75848e-07 -5.80744e-08 0 3.26816e-21
1189 39 0.001 -0.00952381 -2.33909e-11 -0.05 -1.75776e-08 8.56057e-07 -3.55312e-09 0 4.6455e-21
1190 39 0.001 -0.00857143 4.8002e-11 -0.05 2.58358e-09 -1.2654e-06 -5.73934e-09 0 1.56204e-21
1191 39 0.001 -0.00761905 -2.33711e-11 -0.05 -3.08976e-09 8.29817e-07 -7.98908e-09 0 4.24486e-22
1192 39 0.001 -0.00666667 -8.0597e-13 -0.05 8.92481e-09 -2.40219e-07 2.79093e-07 0 1.12534e-21
1193 39 0.001 -0.00571429 1.83505e-13 -0.05 -6.60495e-09 3.79897e-08 -1.87665e-06 0 9.6244e-22
1194 39 0.001 -0.0047619 -7.49306e-15 -0.05 -8.20484e-08 2.77668e-09 -1.53477e-05 0 4.72806e-19
1195 39 0.001 -0.00380952 -2.2589e-19 -0.05 -4.46338e-06 -6.39411e-10 9.96253e-05 0 1.45932e-15
1196 39 0.001 -0.00285714 -4.3654e-18 -0.05 -0.000109272 3.60805e-11 0.000358351 0 1.01123e-12
1197 39 0.001 -0.00190479 6.84868e-18 -0.05 -0.00100036 -8.62249e-13 -0.00144579 0 8.59378e-11
1198 39 0.001 -0.000952704 -1.36464e-19 -0.0500004 -0.000712994 2.40905e-14 -0.0016976 0 1.86289e-10
1319 41 0.001 -0.000197206 6.14249e-18 -0.0490198 -0.00804621 -1.18855e-13 -0.00111725 0 2.63266e-11
11 11 0.001 -6.16299e-09 -1.37637e-17 -0.05 -7.15855e-05 -3.22532e-15 -0.000307503 0 1.85574e-10
1080 38 0.001 1.27105e-06 -6.03163e-18 -0.049 0.00868493 1.96793e-12 0.000476509 0 2.68487e-11
1419 43 0.001 0.000952643 -5.33328e-20 -0.0500003 0.000542098 -8.26164e-14 -0.00112916 0 1.28098e-10
1420 43 0.001 0.00190479 2.16405e-18 -0.05 0.000811699 4.03468e-12 -0.00093205 0 5.62155e-11
1421 43 0.001 0.00285714 -5.15283e-20 -0.05 9.11446e-05 -8.11905e-11 0.00023613 0 7.05353e-13
1422 43 0.001 0.00380952 -6.93256e-16 -0.05 3.75467e-06 5.57275e-10 6.4391e-05 0 1.02798e-15
1423 43 0.001 0.0047619 2.37747e-14 -0.05 6.69657e-08 1.84076e-09 -1.01217e-05 0 3.0267e-19
1424 43 0.001 0.00571429 -1.75123e-13 -0.05 8.38898e-10 -5.99588e-09 -1.1891e-06 0 2.53433e-23
1425 43 0.001 0.00666667 -1.78061e-12 -0.05 2.94013e-09 9.58191e-06 1.53261e-06 0 1.00606e-21
1426 43 0.001 0.00761905 3.96953e-12 -0.05 -1.42362e-08 -1.91693e-05 0.000261961 0 3.86353e-21
1427 43 0.001 0.00857143 -1.91353e-12 -0.05 -1.02396e-07 9.60591e-06 -0.0013847 0 5.99707e-20
1428 43 0.001 0.00952381 -2.20932e-13 -0.0500001 -3.94591e-07 -1.59685e-08 0.00556743 0 4.48438e-18
1429 43 0.001 0.0104762 9.06397e-15 -0.0499998 -2.98368e-09 7.20746e-09 -0.00889216 0 8.73461e-18
1430 43 0.001 0.0114286 -2.09237e-14 -0.0500001 4.05213e-07 -2.64035e-08 0.00556741 0 4.36807e-18
1431 43 0.001 0.012381 -2.22742e-12 -0.05 1.04722e-07 6.10581e-06 -0.00138754 0 6.07382e-20
1432 43 0.001 0.0133333 4.65001e-12 -0.05 1.3146e-09 -1.21729e-05 0.000267945 0 6.82248e-25
1433 43 0.001 0.0142857 -1.97554e-12 -0.05 -4.9201e-10 6.1066e-06 -3.35282e-06 0 1.68916e-24
1434 43 0.001 0.0152381 -5.36199e-13 -0.05 -8.78057e-08 -1.91547e-08 -1.53731e-05 0 5.07653e-19
1435 43 0.001 0.0161905 1.58881e-13 -0.05 -4.45776e-06 -1.50217e-09 9.96396e-05 0 1.45827e-15
1436 43 0.001 0.0171429 5.88228e-14 -0.05 -0.000109274 1.33795e-09 0.000358345 0 1.01124e-12
1437 43 0.001 0.0180952 -1.58768e-14 -0.05 -0.00100036 2.15863e-10 -0.00144579 0 8.59376e-11
1438 43 0.001 0.0190473 -3.65813e-15 -0.0500004 -0.000712996 -1.41024e-10 -0.0016976 0 1.86289e-10
13 13 0.001 0.02 1.43347e-15 -0.05 -7.15926e-05 4.95772e-12 -0.000307503 0 1.85573e-10
1320 42 0.001 0.0200013 1.11665e-17 -0.049 0.00868493 1.63025e-12 0.000476509 0 2.68487e-11
1559 45 0.001 0.0198028 -5.78138e-19 -0.0490198 -0.00804621 1.9487e-12 -0.00111725 0 2.63266e-11
1659 47 0.001 0.0209526 1.4692e-17 -0.0500003 0.000542033 2.02456e-12 -0.00112916 0 1.28108e-10
1660 47 0.001 0.0219048 -1.37065e-17 -0.05 0.000812076 -1.37225e-12 -0.000932049 0 5.62231e-11
1661 47 0.001 0.0228571 2.62182e-18 -0.05 9.06269e-05 -1.90033e-13 0.00023613 0 7.02061e-13
1662 47 0.001 0.0238095 1.33699e-18 -0.05 4.00059e-06 3.71334e-13 6.43865e-05 0 1.13315e-15
1663 47 0.001 0.0247619 -9.265e-20 -0.05 4.27754e-08 -3.61622e-14 -1.01088e-05 0 4.8905e-20
1664 47 0.001 0.0257143 -5.64917e-21 -0.05 -2.28264e-08 -2.51277e-15 -1.20544e-06 0 1.44825e-20
1665 47 0.001 0.0266667 1.86723e-21 -0.05 1.91315e-08 2.2353e-16 1.88432e-07 0 1.13189e-20
1666 47 0.001 0.027619 -4.75856e-22 -0.05 8.52509e-10 9.51715e-18 -1.43567e-08 0 5.00016e-21
1667 47 0.001 0.0285714 -6.54378e-23 -0.05 -2.40184e-08 1.30875e-18 -1.13175e-08 0 1.54347e-20
1668 47 0.001 0.0295238 3.74692e-23 -0.05 2.84061e-08 -7.49383e-19 -1.46145e-08 0 1.83464e-20
1669 47 0.001 0.0304762 5.82292e-24 -0.05 -1.39328e-08 9.42799e-19 -8.33377e-09 0 5.997e-21
1670 47 0.001 0.0314286 -8.59785e-23 -0.05 1.73343e-09 -3.98946e-19 -1.17763e-08 0 3.17717e-22
1671 47 0.001 0.032381 2.19741e-23 -0.05 2.63158e-09 6.19781e-19 -1.26077e-08 0 2.30107e-22
1672 47 0.001 0.0333333 -1.64967e-21 -0.05 -3.67556e-09 -8.98521e-16 2.87329e-07 0 5.80802e-22
1673 47 0.001 0.0342857 -1.13774e-20 -0.05 6.64982e-09 1.26782e-14 -1.86549e-06 0 1.52119e-21
1674 47 0.001 0.0352381 -1.18362e-19 -0.05 -9.31475e-08 -1.25379e-13 -1.53693e-05 0 5.31005e-19
1675 47 0.001 0.0361905 -6.09685e-19 -0.05 -4.45667e-06 7.1207e-13 9.96401e-05 0 1.45851e-15
1676 47 0.001 0.0371429 2.75536e-18 -0.05 -0.000109269 -1.41437e-12 0.000358384 0 1.01116e-12
1677 47 0.001 0.0380952 -3.08904e-17 -0.05 -0.00100025 -3.13745e-12 -0.00144606 0 8.59207e-11
1678 47 0.001 0.0390473 5.65883e-17 -0.0500004 -0.000708107 8.22901e-12 -0.00169716 0 1.87131e-10
15 15 0.001 0.04 5.76481e-15 -0.05 -5.4581e-05 2.14435e-11 -0.000303436 0 1.85663e-10
1560 46 0.001 0.0400013 3.99752e-17 -0.049 0.00868653 6.5467e-12 0.000477514 0 2.68035e-11
1799 49 0.001 0.0398028 3.96085e-17 -0.0490198 -0.00797959 6.56116e-12 -0.00110389 0 2.63243e-11
1899 51 0.001 0.0409526 1.83528e-14 -0.0500003 0.000546984 -2.90794e-10 -0.00112874 0 1.27388e-10
1900 51 0.001 0.0419048 -3.32461e-14 -0.05 0.000811809 4.71032e-10 -0.000932323 0 5.62294e-11
1901 51 0.001 0.0428571 4.06332e-15 -0.05 9.11499e-05 -2.13409e-10 0.000236164 0 7.05424e-13
1902 51 0.001 0.0438095 9.35553e-15 -0.05 3.7603e-06 -5.97433e-11 6.439e-05 0 1.02834e-15
1903 51 0.001 0.0447619 1.47413e-17 -0.05 5.98319e-08 6.80803e-11 -1.0104e-05 0 2.65772e-19
1904 51 0.001 0.0457143 -2.62665e-16 -0.05 1.68254e-09 -1.82543e-11 -1.21036e-06 0 7.78817e-22
1905 51 0.001 0.0466667 -1.27498e-18 -0.05 5.47006e-09 -1.04166e-10 1.93106e-07 0 2.01643e-22
1906 51 0.001 0.047619 3.93829e-18 -0.05 3.99743e-09 1.04276e-08 -5.58108e-08 0 2.67705e-21
1907 51 0.001 0.0485714 6.44563e-15 -0.05 -1.80269e-08 1.07782e-08 8.93251e-08 0 7.2188e-21
1908 51 0.001 0.0495238 -6.44416e-15 -0.05 1.35524e-08 -5.2551e-08 -1.06248e-07 0 6.14429e-21
1909 51 0.001 0.0504762 3.46528e-23 -0.05 -8.72809e-09 3.14473e-08 1.9308e-08 0 2.54522e-21
1910 51 0.001 0.0514286 -4.25634e-21 -0.05 7.74928e-09 1.77198e-12 -1.20372e-08 0 1.70212e-21
1911 51 0.001 0.052381 2.36477e-20 -0.05 -3.65293e-09 -4.85166e-16 -1.44911e-08 0 7.07653e-22
1912 51 0.001 0.0533333 -3.55789e-20 -0.05 -7.66156e-09 9.42566e-16 2.9952e-07 0 2.79583e-21
1913 51 0.001 0.0542857 -4.69581e-20 -0.05 1.45568e-08 -1.37894e-15 -1.8838e-06 0 5.38468e-21
1914 51 0.001 0.0552381 -1.34215e-19 -0.05 -9.47917e-08 1.05942e-14 -1.5356e-05 0 5.30065e-19
1915 51 0.001 0.0561905 7.71266e-19 -0.05 -4.45684e-06 -2.00475e-14 9.96335e-05 0 1.45848e-15
1916 51 0.001 0.0571429 -2.05961e-19 -0.05 -0.00010927 6.93691e-15 0.000358347 0 1.01118e-12
1917 51 0.001 0.0580952 -7.44636e-19 -0.05 -0.00100037 -3.19135e-15 -0.00144579 0 8.59382e-11
17 17 0.001 0.06 1.37512e-17 -0.05 -7.15851e-05 -1.31601e-15 -0.000307503 0 1.85574e-10
1800 50 0.001 0.0600013 2.0729e-19 -0.049 0.00868492 1.79035e-12 0.000476509 0 2.68487e-11
1918 51 0.001 0.0590473 7.27615e-20 -0.0500004 -0.000712991 1.75701e-14 -0.0016976 0 1.8629e-10
2039 53 0.001 0.0598028 -1.12349e-17 -0.0490198 -0.00804621 -1.36162e-12 -0.00111725 0 2.63266e-11
2139 55 0.001 0.0609526 -3.20478e-20 -0.0500003 0.000542099 -6.13085e-10 -0.00112916 0 1.28098e-10
2140 55 0.001 0.0619048 -3.65493e-18 -0.05 0.000811697 6.0809e-08 -0.000932986 0 5.62154e-11
2141 55 0.001 0.0628571 4.5165e-18 -0.05 9.11775e-05 -1.78375e-07 0.00595482 0 7.05358e-13
2142 55 0.001 0.0638095 -6.44467e-12 -0.05 -4.50904e-05 4.60205e-07 -0.0320798 0 6.30228e-15
2143 55 0.001 0.0647619 1.28851e-11 -0.0500021 0.00342758 -6.69485e-07 -0.581521 0 1.28137e-09
2144 55 0.001 0.0657131 -6.41986e-12 -0.0499905 -0.426312 3.75159e-07 2.37141 0 5.40196e-06
2145 55 0.001 0.0666653 -3.94196e-14 -0.0496096 0.585033 5.19628e-06 -8.28952 0 0.000332478
2146 55 0.001 0.067619 2.21158e-13 -0.0507957 1.67573e-05 -0.000109943 13.0521 0 0.000654155
2147 55 0.001 0.0685728 -4.95516e-13 -0.0496096 -0.584864 0.000810839 -8.2891 0 0.000332473
2148 55 0.001 0.069525 9.50007e-08 -0.0499904 0.426315 -0.00548615 2.36775 0 5.39679e-06
2149 55 0.001 0.0704762 -1.89948e-07 -0.0500023 -0.00362669 0.00973791 -0.574808 0 1.27336e-09
2150 55 0.001 0.0714286 9.48957e-08 -0.0499999 5.78657e-05 -0.0061367 -0.0367942 0 9.12977e-15
2151 55 0.001 0.072381 5.04023e-11 -0.05 7.69747e-07 0.00152027 0.00747768 0 8.88325e-20
2152 55 0.001 0.0733333 1.59921e-12 -0.05 -8.21098e-09 -0.000337742 -0.000559228 0 1.26407e-21
2153 55 0.001 0.0742857 -3.04681e-13 -0.05 -1.73716e-10 -3.7047e-06 8.30728e-06 0 7.64552e-22
2154 55 0.001 0.0752381 4.91626e-18 -0.05 -1.11532e-07 -2.64955e-08 2.68188e-07 0 8.74634e-19
2155 55 0.001 0.0761905 -1.31051e-19 -0.05 -7.68068e-06 1.97429e-09 1.04685e-06 0 4.20515e-15
2156 55 0.001 0.0771429 -5.77942e-21 -0.05 -0.000239156 -2.8588e-11 -5.12428e-06 0 4.59594e-12
2157 55 0.001 0.0780952 -2.9594e-19 -0.05 -0.00222591 4.45083e-14 -4.33169e-06 0 5.18277e-10
2158 55 0.001 0.0790468 2.14204e-18 -0.05 0.0015207 -7.02699e-14 -0.00551476 0 7.40346e-10
2279 57 0.001 0.079801 -1.9455e-17 -0.0490196 0.00089978 4.4111e-13 -0.00585247 0 3.83368e-10
19 19 0.001 0.0799997 -2.15838e-17 -0.05 -0.000510532 -1.49963e-14 0.00146578 0 4.86723e-10
2040 54 0.001 0.0800045 -1.19781e-16 -0.049 0.00203967 2.93163e-12 -0.00184843 0 1.28557e-13
22 21 0.001 -0.1 1.99206e-18 -0.048 -0.000505612 -2.17121e-14 0.00042654 0 1.88723e-11
121 22 0.001 -0.0799988 4.62295e-20 -0.0479998 0.0101196 1.61034e-14 0.00105238 0 2.08754e-11
358 25 0.001 -0.0803934 -1.13874e-17 -0.0480393 -0.00954644 4.22389e-13 -0.00084232 0 2.07714e-11
598 29 0.001 -0.0603934 -2.26608e-17 -0.0480393 -0.00975193 -5.38127e-12 -0.000883425 0 2.07716e-11
361 26 0.001 -0.0599988 -4.75874e-17 -0.0479998 0.0101188 -2.60489e-12 0.0010524 0 2.08737e-11
601 30 0.001 -0.0399988 -1.75742e-17 -0.0479998 0.0101188 -4.13453e-12 0.0010524 0 2.08737e-11
838 33 0.001 -0.0403934 -1.77765e-17 -0.0480393 -0.00975193 -4.1185e-12 -0.000883425 0 2.07716e-11
841 34 0.001 -0.0199988 -8.64908e-18 -0.0479998 0.0101196 -9.88283e-13 0.00105238 0 2.08754e-11
1078 37 0.001 -0.0203934 -1.54593e-18 -0.0480393 -0.00953568 -6.68728e-13 -0.000840171 0 2.07714e-11
1318 41 0.001 -0.000393407 -8.09588e-18 -0.0480393 -0.00953568 1.46981e-13 -0.000840171 0 2.07714e-11
1081 38 0.001 1.24902e-06 1.12975e-17 -0.0479998 0.0101196 -3.70402e-12 0.00105238 0 2.08754e-11
1321 42 0.001 0.0200012 -4.91742e-18 -0.0479998 0.0101196 -7.70731e-13 0.00105238 0 2.08754e-11
1558 45 0.001 0.0196066 1.19624e-17 -0.0480393 -0.00953568 -1.16717e-12 -0.000840171 0 2.07714e-11
1561 46 0.001 0.0400012 -1.66061e-17 -0.0479998 0.0101188 -3.15847e-12 0.0010524 0 2.08737e-11
1798 49 0.001 0.0396066 -1.68078e-17 -0.0480393 -0.00975193 -3.14189e-12 -0.000883425 0 2.07716e-11
1801 50 0.001 0.0600012 -3.0836e-19 -0.0479998 0.0101196 -3.12687e-12 0.00105238 0 2.08754e-11
2038 53 0.001 0.0596066 1.64709e-17 -0.0480393 -0.00953567 1.90602e-12 -0.000840168 0 2.07714e-11
2278 57 0.001 0.0796065 2.82881e-17 -0.0480393 -0.0144219 -1.14621e-12 -0.000257495 0 1.23973e-10
2041 54 0.001 0.0800044 2.33304e-16 -0.048 0.00622775 -6.79458e-12 0.0026101 0 2.82296e-17
23 21 0.001 -0.1 5.51438e-20 -0.047 0.000132806 1.50455e-14 2.77971e-05 0 6.13747e-14
24 21 0.001 -0.1 -1.02923e-18 -0.046 2.91754e-05 -1.54822e-14 5.96777e-07 0 2.66544e-17
122 22 0.001 -0.0799989 6.56196e-20 -0.0469998 0.00879015 -6.60258e-15 0.00142023 0 3.76559e-13
123 22 0.001 -0.079999 -1.88483e-20 -0.0459998 0.00746214 4.05078e-15 0.00131848 0 1.19448e-12
356 25 0.001 -0.0807853 -2.37351e-19 -0.0460784 -0.00761695 5.78281e-14 -0.000181822 0 1.17356e-12
357 25 0.001 -0.0805894 5.96308e-18 -0.0470589 -0.00905519 -2.63554e-13 -0.000368029 0 3.72123e-13
596 29 0.001 -0.0607853 3.10426e-18 -0.0460784 -0.0075919 1.49782e-13 -0.000176815 0 1.17357e-12
597 29 0.001 -0.0605894 -4.22731e-18 -0.0470589 -0.00898941 5.16685e-13 -0.00035488 0 3.72136e-13
362 26 0.001 -0.0599989 1.13563e-17 -0.0469998 0.00879013 -4.68915e-13 0.00142021 0 3.7655e-13
363 26 0.001 -0.059999 1.45541e-18 -0.0459998 0.00746215 8.51633e-14 0.00131849 0 1.19448e-12
836 33 0.001 -0.0407853 -1.72342e-18 -0.0460784 -0.0075919 5.14993e-14 -0.000176815 0 1.17357e-12
602 30 0.001 -0.0399989 -2.81643e-18 -0.0469998 0.00879013 -1.08701e-13 0.00142021 0 3.7655e-13
603 30 0.001 -0.039999 4.76981e-20 -0.0459998 0.00746215 7.32832e-15 0.00131849 0 1.19448e-12
837 33 0.001 -0.0405894 -9.98219e-19 -0.0470589 -0.00898941 -1.50042e-13 -0.00035488 0 3.72136e-13
842 34 0.001 -0.0199989 -5.43185e-19 -0.0469998 0.00879014 -5.93558e-14 0.00142023 0 3.7656e-13
843 34 0.001 -0.019999 2.02854e-19 -0.0459998 0.00746215 1.39965e-14 0.00131847 0 1.19448e-12
1076 37 0.001 -0.0207853 -1.65088e-18 -0.0460784 -0.00760566 4.75462e-13 -0.000179567 0 1.17356e-12
1077 37 0.001 -0.0205894 -1.63087e-18 -0.0470589 -0.00909584 -7.82909e-13 -0.000376154 0 3.72118e-13
1316 41 0.001 -0.000785297 1.77942e-18 -0.0460784 -0.00760566 -3.76487e-14 -0.000179567 0 1.17356e-12
1317 41 0.001 -0.000589385 9.7954e-19 -0.0470589 -0.00909584 -3.36727e-14 -0.000376154 0 3.72118e-13
1082 38 0.001 1.12978e-06 -5.18102e-18 -0.0469998 0.00879014 2.00968e-12 0.00142023 0 3.7656e-13
1083 38 0.001 9.67624e-07 -4.47511e-19 -0.0459998 0.00746215 -1.51173e-13 0.00131847 0 1.19448e-12
1556 45 0.001 0.0192147 -2.5261e-18 -0.0460784 -0.00760566 4.90784e-15 -0.000179567 0 1.17356e-12
1557 45 0.001 0.0194106 -4.75219e-18 -0.0470589 -0.00909584 1.33947e-13 -0.000376154 0 3.72118e-13
1322 42 0.001 0.0200011 -4.42651e-19 -0.0469998 0.00879014 -4.1663e-14 0.00142023 0 3.7656e-13
1323 42 0.001 0.020001 -3.01257e-19 -0.0459998 0.00746215 2.42133e-14 0.00131847 0 1.19448e-12
1562 46 0.001 0.0400011 -2.81645e-18 -0.0469998 0.00879013 -1.01279e-13 0.00142021 0 3.7655e-13
1563 46 0.001 0.040001 4.76981e-20 -0.0459998 0.00746215 6.08901e-15 0.00131849 0 1.19448e-12
1796 49 0.001 0.0392147 -1.72342e-18 -0.0460784 -0.0075919 5.02586e-14 -0.000176815 0 1.17357e-12
1797 49 0.001 0.0394106 -9.9824e-19 -0.0470589 -0.00898941 -1.42609e-13 -0.00035488 0 3.72136e-13
1802 50 0.001 0.0600011 1.05284e-19 -0.0469998 0.00879014 1.46561e-12 0.00142023 0 3.7656e-13
1803 50 0.001 0.060001 1.48489e-19 -0.0459998 0.00746215 -1.21755e-13 0.00131847 0 1.19448e-12
2036 53 0.001 0.0592147 -2.03983e-18 -0.0460784 -0.00760629 -2.34344e-13 -0.000179693 0 1.17356e-12
2037 53 0.001 0.0594106 -4.99291e-18 -0.0470589 -0.00909588 -4.91924e-13 -0.000376163 0 3.72118e-13
2276 57 0.001 0.0792147 1.64462e-18 -0.0460784 -0.00716136 -4.09104e-13 -9.44545e-05 0 1.20016e-12
2277 57 0.001 0.0794106 -1.92597e-17 -0.0470588 -0.00816822 1.02867e-12 -8.40282e-05 0 8.84288e-13
2042 54 0.001 0.0800038 -1.46738e-16 -0.047 0.00564999 6.46781e-12 0.00261058 0 4.90547e-17
2043 54 0.001 0.0800032 1.84178e-17 -0.046 0.00377815 -2.41788e-12 0.00235233 0 6.40944e-17
25 21 0.001 -0.1 -5.73097e-20 -0.045 -4.74473e-06 5.82189e-15 -5.97073e-09 0 2.3541e-21
124 22 0.001 -0.0799992 -4.72322e-20 -0.0449999 0.0059392 9.15959e-16 0.00110509 0 2.02843e-12
355 25 0.001 -0.0809812 -4.79238e-19 -0.045098 -0.00604597 -6.32194e-14 -8.35979e-05 0 2.00713e-12
595 29 0.001 -0.0609812 7.49862e-20 -0.045098 -0.00603851 8.35616e-14 -8.21067e-05 0 2.00713e-12
364 26 0.001 -0.0599992 -7.13388e-19 -0.0449999 0.0059392 1.49065e-14 0.00110509 0 2.02843e-12
835 33 0.001 -0.0409812 8.52062e-19 -0.045098 -0.00603851 -2.32803e-14 -8.21067e-05 0 2.00713e-12
604 30 0.001 -0.0399992 2.9227e-19 -0.0449999 0.0059392 5.43079e-15 0.00110509 0 2.02843e-12
844 34 0.001 -0.0199992 4.22523e-19 -0.0449999 0.0059392 -1.86927e-14 0.00110509 0 2.02843e-12
1075 37 0.001 -0.0209812 1.85725e-19 -0.045098 -0.00603535 -1.48053e-13 -8.14756e-05 0 2.00713e-12
1315 41 0.001 -0.000981175 -1.2069e-21 -0.045098 -0.00603535 -1.35104e-14 -8.14755e-05 0 2.00713e-12
1084 38 0.001 7.69435e-07 2.18217e-19 -0.0449999 0.0059392 1.54955e-15 0.00110509 0 2.02843e-12
1555 45 0.001 0.0190188 -2.82804e-21 -0.045098 -0.00603535 -6.42284e-14 -8.14756e-05 0 2.00713e-12
1324 42 0.001 0.0200008 4.1157e-19 -0.0449999 0.0059392 -2.22154e-14 0.00110509 0 2.02843e-12
1795 49 0.001 0.0390188 8.52062e-19 -0.045098 -0.00603851 -2.32803e-14 -8.21067e-05 0 2.00713e-12
1564 46 0.001 0.0400008 2.9227e-19 -0.0449999 0.0059392 5.43081e-15 0.00110509 0 2.02843e-12
1804 50 0.001 0.0600008 -4.3022e-19 -0.0449999 0.0059392 1.71311e-13 0.00110509 0 2.02843e-12
2035 53 0.001 0.0590188 2.85389e-19 -0.045098 -0.0060365 -1.21395e-14 -8.17048e-05 0 2.00713e-12
2275 57 0.001 0.0790188 -2.23946e-19 -0.045098 -0.0060286 1.42322e-13 -8.70632e-05 0 2.00718e-12
2044 54 0.001 0.0800026 8.58913e-18 -0.045 0.00314959 9.92127e-14 0.00194488 0 1.05903e-16
26 21 0.001 -0.1 3.19985e-20 -0.044 -4.5562e-07 3.81721e-15 -1.18073e-08 0 4.40135e-26
27 21 0.001 -0.1 3.11551e-22 -0.043 6.7133e-08 1.61866e-17 -1.1833e-08 0 1.63223e-31
353 25 0.001 -0.0813729 3.56108e-17 -0.0431372 -0.00274459 3.55489e-12 4.42978e-05 0 2.29827e-12
125 22 0.001 -0.0799994 -1.81169e-19 -0.0439999 0.00429444 4.76128e-15 0.000848318 0 2.36686e-12
126 22 0.001 -0.0799997 5.81061e-19 -0.0429999 0.00268095 -1.81003e-14 0.000581083 0 2.30762e-12
354 25 0.001 -0.081177 -9.53231e-19 -0.0441176 -0.00437789 2.9343e-13 -1.06125e-05 0 2.34895e-12
593 29 0.001 -0.0613729 -5.92315e-19 -0.0431372 -0.00274356 9.95842e-15 4.45049e-05 0 2.29827e-12
594 29 0.001 -0.061177 -5.54273e-20 -0.0441176 -0.0043777 -6.32945e-15 -1.05741e-05 0 2.34895e-12
365 26 0.001 -0.0599994 3.86738e-19 -0.0439999 0.00429444 -2.23234e-14 0.000848319 0 2.36686e-12
366 26 0.001 -0.0599997 -3.55779e-19 -0.0429999 0.00268095 1.12062e-14 0.000581083 0 2.30762e-12
833 33 0.001 -0.0413729 -2.60501e-20 -0.0431372 -0.00274356 -4.92361e-15 4.45048e-05 0 2.29827e-12
834 33 0.001 -0.041177 -1.65762e-19 -0.0441176 -0.0043777 1.06284e-14 -1.05741e-05 0 2.34895e-12
605 30 0.001 -0.0399994 3.24121e-20 -0.0439999 0.00429444 -7.90466e-15 0.000848319 0 2.36686e-12
606 30 0.001 -0.0399997 -3.65875e-19 -0.0429999 0.00268095 7.63824e-15 0.000581083 0 2.30762e-12
1073 37 0.001 -0.0213729 3.08915e-17 -0.0431372 -0.00275497 2.93378e-12 4.22245e-05 0 2.29827e-12
1074 37 0.001 -0.021177 5.51971e-19 -0.0441176 -0.00437287 4.98462e-13 -9.60981e-06 0 2.34896e-12
845 34 0.001 -0.0199994 -8.25541e-19 -0.0439999 0.00429444 2.7671e-14 0.000848319 0 2.36686e-12
846 34 0.001 -0.0199997 9.83496e-19 -0.0429999 0.00268095 -2.67843e-14 0.000581084 0 2.30762e-12
1313 41 0.001 -0.00137291 3.03623e-17 -0.0431372 -0.00275497 2.90355e-12 4.22246e-05 0 2.29827e-12
1314 41 0.001 -0.00117704 7.88546e-19 -0.0441176 -0.00437288 4.67024e-13 -9.60989e-06 0 2.34896e-12
1085 38 0.001 5.5594e-07 1.01536e-19 -0.0439999 0.00429444 -3.70427e-15 0.000848319 0 2.36686e-12
1086 38 0.001 3.4816e-07 -2.48573e-19 -0.0429999 0.00268095 6.33452e-15 0.000581084 0 2.30762e-12
1553 45 0.001 0.0186271 3.0679e-17 -0.0431372 -0.00275497 2.86607e-12 4.22245e-05 0 2.29827e-12
1554 45 0.001 0.018823 8.91304e-19 -0.0441176 -0.00437288 5.22533e-13 -9.60982e-06 0 2.34896e-12
1325 42 0.001 0.0200006 -6.6374e-19 -0.0439999 0.00429444 2.42509e-14 0.000848319 0 2.36686e-12
1326 42 0.001 0.0200003 1.0001e-18 -0.0429999 0.00268095 -2.54109e-14 0.000581084 0 2.30762e-12
1793 49 0.001 0.0386271 -2.60501e-20 -0.0431372 -0.00274356 -4.92361e-15 4.45048e-05 0 2.29827e-12
1794 49 0.001 0.038823 -1.65762e-19 -0.0441176 -0.0043777 1.06284e-14 -1.05741e-05 0 2.34895e-12
1565 46 0.001 0.0400006 3.24121e-20 -0.0439999 0.00429444 -7.90466e-15 0.000848319 0 2.36686e-12