ITEM: TIMESTEP
11
ITEM: NUMBER OF ATOMS
2279
ITEM: BOX BOUNDS ff ff ff
-1.1000000000000000e-01 1.1000000000000000e-01
-6.0000000000000001e-03 6.0000000000000001e-03
-5.5000000000000000e-02 5.5000000000000000e-02
ITEM: ATOMS id type radius x y z fx fy fz c_bendingE c_stretchingE
1 1 0.001 -0.1 0 -0.05 0.000642243 7.21107e-15 0.000753657 0 2.1372e-10
21 21 0.001 -0.1 8.8295e-19 -0.0489997 0.000152313 4.01721e-15 -0.000806436 0 1.81609e-10
219 23 0.001 -0.0990473 -1.14909e-18 -0.0500004 -0.000758312 -2.77172e-13 0.000221743 0 1.57915e-10
220 23 0.001 -0.0980951 -1.23746e-17 -0.0500001 0.000417842 4.39175e-13 -0.000724272 0 6.01486e-11
221 23 0.001 -0.0971428 1.0832e-16 -0.05 0.000215282 3.70991e-11 -7.1737e-05 0 6.56677e-12
222 23 0.001 -0.0961905 -2.64391e-16 -0.05 3.17724e-05 -1.69786e-10 0.000188935 0 9.92758e-14
223 23 0.001 -0.0952381 -1.00772e-14 -0.05 2.18967e-06 -6.25808e-10 -2.28219e-06 0 4.05396e-16
224 23 0.001 -0.0942857 5.50106e-14 -0.05 9.02873e-08 5.10625e-09 -1.3759e-05 0 6.84164e-19
225 23 0.001 -0.0933333 3.3227e-13 -0.05 4.60515e-09 -7.50359e-09 1.03968e-06 0 2.41898e-21
226 23 0.001 -0.092381 -1.79182e-12 -0.05 2.46488e-09 -7.68638e-08 4.29401e-07 0 2.55335e-22
227 23 0.001 -0.0914286 -4.94841e-12 -0.05 -8.10783e-11 2.9821e-07 -4.06596e-08 0 4.31952e-22
228 23 0.001 -0.0904762 4.61342e-11 -0.05 -2.91009e-09 -2.60405e-07 -1.13787e-08 0 3.95022e-22
229 23 0.001 -0.0895238 2.9154e-11 -0.05 -6.37727e-11 -6.23919e-07 -2.38615e-08 0 4.24708e-22
230 23 0.001 -0.0885714 -1.37545e-10 -0.05 3.37439e-09 1.37841e-06 -1.25283e-07 0 3.3666e-22
231 23 0.001 -0.087619 2.81245e-11 -0.05 6.8858e-10 -7.22861e-07 1.14692e-06 0 6.54035e-22
232 23 0.001 -0.0866667 4.61688e-11 -0.05 -6.28338e-09 -2.87475e-07 2.45808e-06 0 1.95469e-21
233 23 0.001 -0.0857143 -3.31241e-12 -0.05 -1.19366e-07 4.63563e-07 -3.38685e-05 0 1.08927e-18
234 23 0.001 -0.0847619 -2.58284e-12 -0.05 -3.40067e-06 -1.55012e-07 -4.35172e-06 0 9.41046e-16
235 23 0.001 -0.0838095 1.88345e-13 -0.05 -5.57393e-05 -2.06596e-08 0.000460998 0 2.92492e-13
236 23 0.001 -0.0828572 3.76056e-14 -0.0499999 -0.000446231 1.0491e-08 -0.000165811 0 2.55786e-11
237 23 0.001 -0.0819049 -4.523e-15 -0.0500002 -0.00103521 -2.36128e-10 -0.0017275 0 3.39875e-10
3 3 0.001 -0.08 3.00362e-16 -0.0500002 -2.5674e-05 1.79322e-11 0.000261424 0 1.07622e-09
120 22 0.001 -0.0799964 -1.59399e-17 -0.0489999 0.00334814 3.65834e-13 0.00023069 0 2.26945e-10
238 23 0.001 -0.0809531 4.72303e-17 -0.050001 0.0016841 -9.1296e-11 0.000374301 0 8.01361e-10
359 25 0.001 -0.0801993 4.73641e-17 -0.0490201 -0.00357819 4.37857e-12 -0.000443452 0 2.1733e-10
459 27 0.001 -0.079047 7.44193e-16 -0.0500006 -0.00155861 -7.65734e-11 0.00018675 0 6.02695e-10
460 27 0.001 -0.0780951 -1.30226e-14 -0.0500001 0.000813765 -8.64575e-11 -0.00110613 0 2.17474e-10
461 27 0.001 -0.0771428 6.68143e-15 -0.05 0.000363637 1.26155e-09 -9.98036e-05 0 1.71321e-11
462 27 0.001 -0.0761905 1.87469e-13 -0.05 4.61173e-05 -2.63732e-09 0.000299588 0 2.00951e-13
463 27 0.001 -0.0752381 8.81403e-14 -0.05 2.82761e-06 4.78049e-09 -3.4456e-06 0 6.66776e-16
464 27 0.001 -0.0742857 -3.07035e-14 -0.05 1.11118e-07 -1.00756e-08 -2.20664e-05 0 1.03458e-18
465 27 0.001 -0.0733333 -1.04537e-12 -0.05 8.1111e-09 6.80777e-09 1.63848e-06 0 3.60515e-21
466 27 0.001 -0.072381 -4.19955e-13 -0.05 -2.32564e-09 6.74436e-09 7.50586e-07 0 3.06162e-22
467 27 0.001 -0.0714286 2.17042e-12 -0.05 -1.70007e-10 -6.45855e-09 -1.05493e-07 0 2.06905e-23
468 27 0.001 -0.0704762 3.22103e-13 -0.05 1.11277e-09 -6.84496e-09 -4.19782e-09 0 7.55469e-23
469 27 0.001 -0.0695238 -1.752e-12 -0.05 -4.10048e-10 1.14151e-08 -3.29216e-08 0 1.45332e-22
470 27 0.001 -0.0685714 4.5078e-13 -0.05 -1.63615e-09 -8.27548e-09 -1.37298e-07 0 9.54191e-23
471 27 0.001 -0.067619 -1.99432e-13 -0.05 -1.58804e-09 5.57125e-09 1.24371e-06 0 5.04555e-22
472 27 0.001 -0.0666667 1.36996e-13 -0.05 -1.10175e-09 -8.38187e-10 2.33805e-06 0 1.22066e-21
473 27 0.001 -0.0657143 1.62899e-13 -0.05 -1.17231e-07 -2.95672e-09 -3.38249e-05 0 1.03737e-18
474 27 0.001 -0.0647619 -6.30619e-14 -0.05 -3.40265e-06 2.2435e-09 -4.34907e-06 0 9.41026e-16
475 27 0.001 -0.0638095 -6.0809e-15 -0.05 -5.57367e-05 -7.25079e-10 0.000461072 0 2.92467e-13
476 27 0.001 -0.0628572 3.40381e-15 -0.0499999 -0.000446101 1.11164e-10 -0.000165842 0 2.55672e-11
477 27 0.001 -0.0619049 -6.03844e-16 -0.0500002 -0.00103243 2.46887e-11 -0.00172897 0 3.38957e-10
478 27 0.001 -0.0609531 1.07815e-15 -0.050001 0.00171203 1.21643e-11 0.000377125 0 8.13637e-10
5 5 0.001 -0.06 2.19438e-14 -0.0500002 -3.54335e-06 -4.42901e-11 0.000267976 0 1.076e-09
360 26 0.001 -0.0599964 9.86976e-16 -0.0489999 0.00335773 1.59216e-11 0.000237326 0 2.25438e-10
599 29 0.001 -0.0601993 9.62718e-16 -0.0490201 -0.00351109 2.15823e-11 -0.000429047 0 2.17119e-10
699 31 0.001 -0.059047 -2.15656e-14 -0.0500006 -0.00153071 -4.58538e-09 0.00018887 0 5.91611e-10
700 31 0.001 -0.0580951 1.30024e-13 -0.0500001 0.000816482 3.49336e-08 -0.00111366 0 2.18205e-10
701 31 0.001 -0.0571428 2.191e-12 -0.05 0.000363768 -1.02547e-07 -5.42895e-06 0 1.71451e-11
702 31 0.001 -0.0561905 -1.16391e-11 -0.05 4.61829e-05 -7.98977e-08 0.000400984 0 2.01328e-13
703 31 0.001 -0.0552381 -1.62094e-11 -0.05 2.66336e-06 6.36552e-07 -0.00207294 0 6.55021e-16
704 31 0.001 -0.0542857 5.32045e-11 -0.0500001 -4.27945e-06 -8.8254e-07 0.00565318 0 1.14164e-16
705 31 0.001 -0.0533333 -1.45678e-11 -0.0499991 -3.22773e-06 4.47988e-07 9.2489e-05 0 7.72809e-15
706 31 0.001 -0.052381 -1.93386e-11 -0.0499987 -3.82607e-05 5.10367e-08 -0.0302362 0 3.48421e-13
707 31 0.001 -0.0514286 5.65559e-12 -0.050004 -5.81657e-09 -1.52481e-07 0.0527023 0 6.81398e-13
708 31 0.001 -0.0504762 -1.37926e-12 -0.0499987 3.82563e-05 4.36172e-08 -0.0302459 0 3.48204e-13
709 31 0.001 -0.0495238 -2.15541e-12 -0.0499991 3.26349e-06 6.92066e-08 0.000132515 0 7.73023e-15
710 31 0.001 -0.0485714 7.73279e-12 -0.0500001 4.36264e-06 -1.25623e-07 0.00561126 0 1.17937e-16
711 31 0.001 -0.047619 -1.55515e-12 -0.05 1.64643e-07 8.39971e-08 -0.00206503 0 7.50538e-20
712 31 0.001 -0.0466667 -1.19307e-12 -0.05 -1.13294e-08 -2.55278e-08 0.000160616 0 4.93261e-21
713 31 0.001 -0.0457143 -1.05254e-12 -0.05 -1.15023e-07 1.8878e-08 3.83614e-05 0 1.0187e-18
714 31 0.001 -0.0447619 -4.28603e-13 -0.05 -3.39993e-06 -2.73595e-08 -1.72235e-05 0 9.40955e-16
715 31 0.001 -0.0438095 -6.61269e-13 -0.05 -5.5739e-05 3.11055e-08 0.000460544 0 2.92462e-13
716 31 0.001 -0.0428572 1.33757e-12 -0.0499999 -0.0004461 -2.35767e-08 -0.000165751 0 2.55672e-11
717 31 0.001 -0.0419049 5.68057e-14 -0.0500002 -0.00103243 8.16277e-09 -0.00172898 0 3.38957e-10
718 31 0.001 -0.0409531 -1.2359e-13 -0.050001 0.00171203 -1.13185e-09 0.000377125 0 8.13638e-10
7 7 0.001 -0.04 4.6145e-14 -0.0500002 -3.54315e-06 -2.95385e-10 0.000267877 0 1.076e-09
600 30 0.001 -0.0399964 1.50054e-15 -0.0489999 0.00335773 3.8947e-11 0.000237328 0 2.25437e-10
839 33 0.001 -0.0401993 1.54579e-15 -0.0490201 -0.00351109 3.83785e-11 -0.000429046 0 2.17119e-10
939 35 0.001 -0.039047 7.24009e-15 -0.0500006 -0.00153071 5.15585e-11 0.000189498 0 5.91611e-10
940 35 0.001 -0.0380951 -1.50353e-14 -0.0500001 0.000816481 -1.02096e-10 -0.00110763 0 2.18205e-10
941 35 0.001 -0.0371428 -1.77376e-14 -0.05 0.000363766 3.2611e-10 -9.98385e-05 0 1.71452e-11
942 35 0.001 -0.0361905 1.40116e-14 -0.05 4.61765e-05 -4.02917e-10 0.000299679 0 2.01325e-13
943 35 0.001 -0.0352381 -5.53862e-15 -0.05 2.8415e-06 -9.01571e-10 -3.44615e-06 0 6.54953e-16
944 35 0.001 -0.0342857 1.46872e-15 -0.05 9.69641e-08 3.271e-09 -2.20741e-05 0 7.30726e-19
945 35 0.001 -0.0333333 3.28809e-13 -0.05 4.0596e-09 3.48038e-09 1.63711e-06 0 7.31951e-22
946 35 0.001 -0.032381 -1.22007e-13 -0.05 -1.31555e-09 -5.3204e-08 7.40748e-07 0 2.85359e-24
947 35 0.001 -0.0314286 -2.93639e-12 -0.05 3.32326e-09 1.3574e-07 -7.27874e-08 0 5.01308e-23
948 35 0.001 -0.0304762 1.75945e-11 -0.05 -5.66274e-09 3.24762e-07 -1.79955e-08 0 5.30602e-22
949 35 0.001 -0.0295238 1.63072e-11 -0.05 1.06052e-08 -1.86948e-06 -7.25984e-08 0 1.61007e-21
950 35 0.001 -0.0285714 -2.97106e-10 -0.05 -8.33506e-09 2.69731e-06 -3.60202e-08 0 1.21143e-21
951 35 0.001 -0.027619 -3.65098e-11 -0.05 2.06646e-10 3.12686e-07 1.08407e-06 0 1.40424e-21
952 35 0.001 -0.0266667 5.89359e-10 -0.05 -1.58222e-09 -3.20614e-06 2.60637e-06 0 1.35499e-21
953 35 0.001 -0.0257143 4.46899e-13 -0.05 -1.19468e-07 4.13718e-07 -3.41596e-05 0 1.05213e-18
954 35 0.001 -0.0247619 -3.17288e-10 -0.05 -3.40194e-06 3.2688e-06 -4.15875e-06 0 9.42481e-16
955 35 0.001 -0.0238095 7.84692e-12 -0.05 -5.57401e-05 -2.91092e-06 0.000460963 0 2.92472e-13
956 35 0.001 -0.0228572 2.41193e-11 -0.0499999 -0.000446229 7.76123e-07 -0.000165815 0 2.55787e-11
957 35 0.001 -0.0219049 -1.64941e-12 -0.0500002 -0.0010352 1.56867e-07 -0.0017275 0 3.39871e-10
9 9 0.001 -0.02 1.40529e-13 -0.0500002 -2.4717e-05 2.01311e-09 0.000261646 0 1.07621e-09
840 34 0.001 -0.0199964 1.06938e-15 -0.0489999 0.00334826 1.72592e-10 0.000230749 0 2.26933e-10
958 35 0.001 -0.0209531 -4.23978e-13 -0.050001 0.00168443 -5.45817e-08 0.000374335 0 8.01488e-10
1079 37 0.001 -0.0201993 9.63772e-16 -0.0490201 -0.00354599 1.59277e-10 -0.000436986 0 2.17326e-10
1179 39 0.001 -0.019047 4.83035e-16 -0.0500006 -0.00155829 1.19336e-10 0.000186774 0 6.0258e-10
1180 39 0.001 -0.0180951 -1.56828e-14 -0.0500001 0.000813778 1.11891e-10 -0.00110615 0 2.17477e-10
1181 39 0.001 -0.0171428 9.97765e-15 -0.05 0.00036364 -2.46735e-10 -9.98053e-05 0 1.7132e-11
1182 39 0.001 -0.0161905 1.10894e-14 -0.05 4.61146e-05 2.18539e-10 0.000299589 0 2.00951e-13
1183 39 0.001 -0.0152381 1.13306e-14 -0.05 2.82519e-06 7.75567e-11 -3.43947e-06 0 6.66422e-16
1184 39 0.001 -0.0142857 -2.43804e-14 -0.05 1.12829e-07 -2.1141e-09 -2.20684e-05 0 1.09445e-18
1185 39 0.001 -0.0133333 -1.17538e-13 -0.05 9.11372e-09 1.57918e-09 1.61641e-06 0 4.59778e-21
1186 39 0.001 -0.012381 8.73015e-13 -0.05 -9.78713e-10 3.66087e-08 7.46782e-07 0 4.42782e-22
1187 39 0.001 -0.0114286 2.06788e-12 -0.05 4.7592e-09 -1.36974e-07 -3.02093e-08 0 7.5111e-22
1188 39 0.001 -0.0104762 -2.12229e-11 -0.05 3.57498e-09 1.18823e-07 -6.42438e-08 0 4.2961e-21
1189 39 0.001 -0.00952381 -1.3569e-11 -0.05 -9.26584e-09 2.96456e-07 -2.51396e-08 0 4.44098e-21
1190 39 0.001 -0.00857143 6.36397e-11 -0.05 -2.00277e-09 -6.66309e-07 -1.19118e-07 0 1.16142e-21
1191 39 0.001 -0.00761905 -1.26786e-11 -0.05 -3.43461e-10 3.74926e-07 1.16017e-06 0 1.13532e-21
1192 39 0.001 -0.00666667 -2.16089e-11 -0.05 3.03484e-09 1.1665e-07 2.4528e-06 0 6.93441e-22
1193 39 0.001 -0.00571429 1.52165e-12 -0.05 -1.22024e-07 -2.17263e-07 -3.3872e-05 0 1.06918e-18
1194 39 0.001 -0.0047619 1.20443e-12 -0.05 -3.40195e-06 7.25255e-08 -4.35429e-06 0 9.4121e-16
1195 39 0.001 -0.00380952 -8.65825e-14 -0.05 -5.5741e-05 9.62978e-09 0.000461001 0 2.92497e-13
1196 39 0.001 -0.00285716 -1.79206e-14 -0.0499999 -0.000446229 -4.87311e-09 -0.000165811 0 2.55787e-11
1197 39 0.001 -0.00190494 2.18088e-15 -0.0500002 -0.0010352 1.03962e-10 -0.00172751 0 3.39871e-10
1198 39 0.001 -0.000953116 -1.96203e-17 -0.050001 0.00168443 4.4191e-11 0.000374337 0 8.01489e-10
1319 41 0.001 -0.000199276 3.27887e-17 -0.0490201 -0.00354598 -2.07216e-13 -0.000436986 0 2.17326e-10
11 11 0.001 -4.06937e-08 1.14957e-16 -0.0500002 -2.47115e-05 1.81739e-11 0.000261647 0 1.07622e-09
1080 38 0.001 3.56136e-06 1.92368e-17 -0.0489999 0.00334826 -2.28755e-13 0.000230749 0 2.26933e-10
1419 43 0.001 0.000952972 -1.02601e-15 -0.0500006 -0.0015583 -6.14341e-10 0.000186774 0 6.02579e-10
1420 43 0.001 0.00190491 -3.04938e-15 -0.0500001 0.000813724 2.94748e-09 -0.00110617 0 2.17474e-10
1421 43 0.001 0.00285716 2.38393e-13 -0.05 0.000363637 2.59596e-08 -9.96882e-05 0 1.71357e-11
1422 43 0.001 0.00380952 -1.03223e-12 -0.05 4.61725e-05 -1.67759e-07 0.000300161 0 2.01301e-13
1423 43 0.001 0.0047619 -1.03609e-11 -0.05 2.84163e-06 3.92214e-07 -1.42547e-05 0 6.55754e-16
1424 43 0.001 0.00571429 5.16078e-11 -0.05 1.00239e-07 3.97388e-07 -4.41878e-05 0 7.26122e-19
1425 43 0.001 0.00666667 7.03174e-11 -0.05 -2.89971e-09 -2.67549e-06 0.000327772 0 6.61167e-22
1426 43 0.001 0.00761905 -2.20966e-10 -0.05 -1.15406e-07 3.83614e-06 -0.000891297 0 9.76375e-20
1427 43 0.001 0.00857143 7.60959e-11 -0.0500001 -8.41301e-08 -2.35837e-06 -2.13914e-05 0 5.10792e-18
1428 43 0.001 0.00952381 3.86417e-11 -0.0500002 -9.59179e-07 3.96745e-07 0.00481051 0 2.23723e-16
1429 43 0.001 0.0104762 -7.86196e-12 -0.0499994 -1.19632e-09 2.95956e-07 -0.00838212 0 4.36682e-16
1430 43 0.001 0.0114286 2.41797e-11 -0.0500002 9.69766e-07 2.00436e-07 0.00481021 0 2.22737e-16
1431 43 0.001 0.012381 4.90186e-11 -0.0500001 7.69935e-08 -1.49759e-06 -1.9694e-05 0 4.85107e-18
1432 43 0.001 0.0133333 -1.38316e-10 -0.05 1.10963e-07 2.52264e-06 -0.000893212 0 8.40367e-20
1433 43 0.001 0.0142857 4.60426e-11 -0.05 -1.16625e-07 -1.93688e-06 0.000301 0 1.06366e-18
1434 43 0.001 0.0152381 2.54506e-11 -0.05 -3.40258e-06 4.38616e-07 -3.39799e-05 0 9.4195e-16
1435 43 0.001 0.0161905 -2.83968e-12 -0.05 -5.57401e-05 2.38544e-07 0.000452167 0 2.92495e-13
1436 43 0.001 0.0171428 -2.5983e-13 -0.0499999 -0.000446228 -1.1596e-07 -0.000164965 0 2.55787e-11
1437 43 0.001 0.0180951 7.21122e-14 -0.0500002 -0.0010352 4.20923e-09 -0.00172754 0 3.39871e-10
1438 43 0.001 0.0190469 -2.56323e-14 -0.050001 0.00168442 9.91686e-10 0.000374328 0 8.01486e-10
13 13 0.001 0.02 3.31247e-15 -0.0500002 -2.47186e-05 -1.35596e-10 0.000261647 0 1.07621e-09
1320 42 0.001 0.0200036 2.85406e-16 -0.0489999 0.00334826 -5.04329e-12 0.000230749 0 2.26933e-10
1559 45 0.001 0.0198007 2.09685e-16 -0.0490201 -0.00354599 -3.56712e-12 -0.000436985 0 2.17326e-10
1659 47 0.001 0.020953 2.65788e-16 -0.0500006 -0.00155824 1.36275e-12 0.000186774 0 6.0257e-10
1660 47 0.001 0.0219049 -1.25134e-16 -0.0500001 0.000813759 1.44696e-12 -0.00110615 0 2.17466e-10
1661 47 0.001 0.0228572 -3.67276e-17 -0.05 0.000363545 -1.81571e-12 -9.98038e-05 0 1.71278e-11
1662 47 0.001 0.0238095 2.31843e-17 -0.05 4.61566e-05 1.46994e-13 0.00029959 0 2.01891e-13
1663 47 0.001 0.0247619 1.76884e-18 -0.05 2.88855e-06 1.22142e-13 -3.44629e-06 0 6.65006e-16
1664 47 0.001 0.0257143 -1.1525e-18 -0.05 8.74777e-08 2.83416e-14 -2.2059e-05 0 5.30429e-19
1665 47 0.001 0.0266667 5.83991e-21 -0.05 3.70932e-09 -2.77027e-14 1.61076e-06 0 2.84756e-21
1666 47 0.001 0.027619 2.4763e-20 -0.05 1.97559e-10 3.0954e-15 7.8852e-07 0 1.26228e-21
1667 47 0.001 0.0285714 -5.21726e-21 -0.05 -6.33677e-09 -3.94623e-16 -1.23584e-07 0 5.42444e-21
1668 47 0.001 0.0295238 1.01069e-21 -0.05 8.34003e-09 -1.10537e-16 1.48939e-08 0 6.77254e-21
1669 47 0.001 0.0304762 -6.71452e-22 -0.05 -3.98956e-09 2.04841e-16 -4.69054e-08 0 2.19813e-21
1670 47 0.001 0.0314286 -1.14716e-21 -0.05 1.10598e-09 -5.51296e-16 -1.4674e-07 0 8.91529e-23
1671 47 0.001 0.032381 3.78543e-21 -0.05 -7.34843e-10 3.33472e-15 1.18338e-06 0 6.58793e-24
1672 47 0.001 0.0333333 1.22258e-19 -0.05 -9.40047e-10 8.5652e-15 2.46079e-06 0 4.17018e-22
1673 47 0.001 0.0342857 -5.67761e-19 -0.05 -1.20702e-07 -4.01269e-14 -3.38846e-05 0 1.04608e-18
1674 47 0.001 0.0352381 9.41351e-19 -0.05 -3.40109e-06 1.08496e-15 -4.35825e-06 0 9.41741e-16
1675 47 0.001 0.0361905 1.6046e-17 -0.05 -5.57379e-05 1.50264e-12 0.000461088 0 2.92464e-13
1676 47 0.001 0.0371428 -4.84758e-17 -0.0499999 -0.0004461 -4.54214e-12 -0.000165846 0 2.55672e-11
1677 47 0.001 0.0380951 -5.16551e-16 -0.0500002 -0.00103243 -3.59129e-12 -0.00172897 0 3.38957e-10
1678 47 0.001 0.0390469 1.11264e-15 -0.050001 0.00171203 1.49773e-11 0.000377126 0 8.13638e-10
15 15 0.001 0.04 1.89665e-14 -0.0500002 -3.54315e-06 -4.24953e-11 0.000267877 0 1.076e-09
1560 46 0.001 0.0400036 8.84041e-16 -0.0489999 0.00335773 1.35751e-11 0.000237328 0 2.25437e-10
1799 49 0.001 0.0398007 9.04881e-16 -0.0490201 -0.00351109 1.3004e-11 -0.000429046 0 2.17119e-10
1899 51 0.001 0.040953 6.48729e-15 -0.0500006 -0.00153071 2.06151e-11 0.000189498 0 5.91611e-10
1900 51 0.001 0.0419049 -1.4616e-14 -0.0500001 0.000816481 -8.73345e-11 -0.00110763 0 2.18205e-10
1901 51 0.001 0.0428572 -1.78579e-14 -0.05 0.000363766 2.82245e-10 -9.98384e-05 0 1.71452e-11
1902 51 0.001 0.0438095 1.35819e-14 -0.05 4.61764e-05 -2.78721e-10 0.000299678 0 2.01326e-13
1903 51 0.001 0.0447619 6.36991e-15 -0.05 2.84104e-06 -1.02019e-10 -3.4446e-06 0 6.55013e-16
1904 51 0.001 0.0457143 -9.68143e-15 -0.05 9.70945e-08 1.4133e-10 -2.20747e-05 0 7.41083e-19
1905 51 0.001 0.0466667 2.49757e-14 -0.05 8.82814e-09 1.55315e-09 1.62609e-06 0 2.61782e-21
1906 51 0.001 0.047619 2.03823e-13 -0.05 -2.88259e-09 -3.62329e-09 7.70572e-07 0 1.71528e-21
1907 51 0.001 0.0485714 -1.14071e-13 -0.05 -4.02502e-09 -2.72444e-08 -1.13016e-07 0 1.71919e-21
1908 51 0.001 0.0495238 -3.6056e-13 -0.05 -1.94061e-10 7.45965e-08 1.96931e-08 0 1.09716e-21
1909 51 0.001 0.0504762 1.99075e-13 -0.05 2.1343e-09 -6.22476e-08 -9.09383e-08 0 2.53183e-23
1910 51 0.001 0.0514286 5.78948e-14 -0.05 5.05517e-10 1.86908e-08 -8.7169e-08 0 2.71678e-22
1911 51 0.001 0.052381 -2.13822e-15 -0.05 -2.35618e-09 -1.5224e-09 1.17711e-06 0 2.93972e-22
1912 51 0.001 0.0533333 -8.63318e-16 -0.05 -2.74649e-09 -1.66508e-10 2.44893e-06 0 2.16261e-21
1913 51 0.001 0.0542857 -1.82812e-17 -0.05 -1.17794e-07 1.45972e-12 -3.3887e-05 0 1.0302e-18
1914 51 0.001 0.0552381 8.43379e-18 -0.05 -3.40041e-06 3.11214e-12 -4.35815e-06 0 9.41297e-16
1915 51 0.001 0.0561905 -1.47165e-17 -0.05 -5.57418e-05 -2.02184e-12 0.000461046 0 2.92493e-13
1916 51 0.001 0.0571428 -2.04532e-17 -0.0499999 -0.000446229 -2.49194e-12 -0.000165531 0 2.55786e-11
1917 51 0.001 0.0580951 5.8404e-16 -0.0500002 -0.0010352 8.88667e-11 -0.00172983 0 3.39871e-10
17 17 0.001 0.06 -1.14758e-13 -0.0500002 -2.37036e-05 9.84152e-10 0.000123687 0 1.07335e-09
1800 50 0.001 0.0600036 -9.40738e-16 -0.0489999 0.00334845 -1.39297e-10 0.00023913 0 2.2539e-10
1918 51 0.001 0.0590469 -1.04347e-15 -0.050001 0.00168455 -1.64014e-10 0.000377998 0 8.01534e-10
2039 53 0.001 0.0598007 -8.77119e-16 -0.0490201 -0.00354699 -1.2651e-10 -0.000428828 0 2.1588e-10
2139 55 0.001 0.060953 9.00079e-13 -0.0500007 -0.00155568 2.19962e-08 -0.00348164 0 6.02532e-10
2140 55 0.001 0.0619049 4.55748e-13 -0.05 0.000792478 -7.26576e-08 0.0242478 0 2.16401e-10
2141 55 0.001 0.0628572 -9.44784e-12 -0.0499985 0.000931974 3.26861e-08 0.0232508 0 1.80335e-11
2142 55 0.001 0.0638094 -6.73829e-12 -0.0500101 -0.0075532 5.76272e-08 -0.446968 0 2.93971e-09
2143 55 0.001 0.0647631 2.5382e-11 -0.0500398 0.000574679 1.58993e-07 0.648134 0 4.74522e-09
2144 55 0.001 0.065685 6.70536e-11 -0.0497958 0.246243 3.85832e-06 0.600302 0 3.79087e-05
2145 55 0.001 0.0667351 -5.79998e-11 -0.0493361 0.798459 -2.79914e-05 -7.16249 0 0.00235095
2146 55 0.001 0.067619 -5.78836e-09 -0.0516395 5.62339e-05 0.000170705 12.6329 0 0.00462622
2147 55 0.001 0.068503 7.41733e-08 -0.0493361 -0.798326 0.000747658 -7.1619 0 0.00235104
2148 55 0.001 0.0695531 1.62092e-07 -0.0497956 -0.246755 -0.00402534 0.596051 0 3.78726e-05
2149 55 0.001 0.070475 -4.40678e-07 -0.0500403 -0.00045985 0.00602468 0.655057 0 5.43752e-09
2150 55 0.001 0.0714287 9.20451e-08 -0.0500099 0.0078023 -0.0033185 -0.451136 0 3.11986e-09
2151 55 0.001 0.0723809 1.4252e-07 -0.0499984 -0.000562303 -0.000416667 0.0235007 0 1.45007e-12
2152 55 0.001 0.0733333 -1.88166e-08 -0.0499998 2.05472e-05 0.00125154 0.0255004 0 1.34117e-14
2153 55 0.001 0.0742857 -6.74549e-09 -0.05 -7.9299e-07 -0.000404356 -0.00320181 0 4.96737e-18
2154 55 0.001 0.0752381 1.11816e-09 -0.05 -6.67128e-06 -2.72197e-05 -0.000469827 0 3.54021e-15
2155 55 0.001 0.0761905 7.83599e-11 -0.05 -0.000119066 2.46597e-05 7.55251e-05 0 1.30263e-12
2156 55 0.001 0.0771428 -1.87083e-11 -0.05 -0.000893002 -3.02694e-06 -4.27455e-06 0 1.06537e-10
2157 55 0.001 0.0780949 1.92564e-13 -0.05 -0.000736367 -2.33269e-07 2.60228e-06 0 7.69764e-10
2158 55 0.001 0.0790464 1.83497e-13 -0.05 0.000129555 4.16411e-08 -0.00550559 0 7.18278e-10
2279 57 0.001 0.0797979 -7.63048e-17 -0.0490196 0.00168893 -2.69497e-11 -0.00746678 0 1.16147e-09
19 19 0.001 0.0799991 -2.08936e-14 -0.05 0.00105353 -1.43866e-09 0.00311028 0 1.02274e-09
2040 54 0.001 0.0800104 -1.64721e-16 -0.049 -0.00140392 -2.70754e-11 -0.00204143 0 4.01221e-12
22 21 0.001 -0.1 2.90038e-18 -0.0479999 -0.000687665 -1.26922e-14 0.000502946 0 7.54203e-11
121 22 0.001 -0.0799963 2.98491e-17 -0.0479995 0.00640807 -9.72947e-13 0.000100054 0 1.32236e-10
358 25 0.001 -0.0803958 -7.96981e-17 -0.0480394 -0.00543954 -5.98511e-12 -0.000982168 0 1.30696e-10
598 29 0.001 -0.0603958 -4.78909e-16 -0.0480394 -0.00573676 -1.20898e-11 -0.00104168 0 1.30698e-10
361 26 0.001 -0.0599963 -5.55227e-16 -0.0479995 0.00640408 -3.27786e-12 0.000100657 0 1.32113e-10
601 30 0.001 -0.0399963 -7.08114e-16 -0.0479995 0.00640408 -1.31593e-11 0.000100657 0 1.32113e-10
838 33 0.001 -0.0403958 -7.61249e-16 -0.0480394 -0.00573676 -1.22012e-11 -0.00104168 0 1.30698e-10
841 34 0.001 -0.0199963 -5.84073e-16 -0.0479995 0.00640803 -9.27422e-11 0.000100082 0 1.32236e-10
1078 37 0.001 -0.0203958 -3.41577e-16 -0.0480394 -0.00544101 -6.04467e-11 -0.000982479 0 1.30695e-10
1318 41 0.001 -0.000395778 -3.77307e-17 -0.0480394 -0.00544101 2.10693e-13 -0.000982479 0 1.30695e-10
1081 38 0.001 3.68479e-06 -3.38576e-17 -0.0479995 0.00640803 1.32304e-12 0.000100082 0 1.32236e-10
1321 42 0.001 0.0200037 -2.03084e-16 -0.0479995 0.00640803 1.18459e-11 0.000100082 0 1.32236e-10
1558 45 0.001 0.0196042 -7.90175e-17 -0.0480394 -0.00544101 9.28379e-12 -0.000982479 0 1.30695e-10
1561 46 0.001 0.0400037 -3.91042e-16 -0.0479995 0.00640408 -3.753e-12 0.000100657 0 1.32113e-10
1798 49 0.001 0.0396042 -4.13914e-16 -0.0480394 -0.00573676 -2.94775e-12 -0.00104168 0 1.30698e-10
1801 50 0.001 0.0600037 6.07869e-16 -0.0479995 0.00640802 7.28646e-11 0.00010028 0 1.32198e-10
2038 53 0.001 0.0596042 4.27299e-16 -0.0480394 -0.00544112 4.53429e-11 -0.000982303 0 1.30659e-10
2278 57 0.001 0.0796035 1.27356e-16 -0.0480393 -0.00759591 1.36538e-11 -8.73116e-05 0 2.18355e-10
2041 54 0.001 0.0800118 1.60157e-17 -0.048 0.000390229 1.61969e-11 0.00258863 0 1.83922e-15
23 21 0.001 -0.1 1.02286e-18 -0.047 -1.15463e-05 -2.58598e-14 0.000168574 0 3.31856e-12
24 21 0.001 -0.1 -2.83375e-18 -0.046 0.000151796 5.87554e-14 1.53342e-05 0 2.12108e-14
122 22 0.001 -0.0799967 -1.57695e-17 -0.0469994 0.00568658 1.73584e-12 0.000601035 0 5.12332e-12
123 22 0.001 -0.0799972 1.23437e-18 -0.0459995 0.00445347 -1.08644e-12 0.000706313 0 9.09159e-12
356 25 0.001 -0.0807872 9.47429e-19 -0.0460785 -0.00467953 -6.75124e-14 -0.00021774 0 8.92295e-12
357 25 0.001 -0.0805916 3.72357e-17 -0.0470589 -0.0057069 2.17352e-12 -0.000531686 0 5.1359e-12
596 29 0.001 -0.0607872 2.16106e-17 -0.0460785 -0.0045985 1.81251e-13 -0.000201567 0 8.92341e-12
597 29 0.001 -0.0605916 -3.7154e-17 -0.0470589 -0.00568345 4.96689e-13 -0.000526997 0 5.13755e-12
362 26 0.001 -0.0599967 6.38528e-18 -0.0469994 0.00568586 -3.89941e-12 0.000600917 0 5.12162e-12
363 26 0.001 -0.0599972 2.8118e-17 -0.0459995 0.00445361 4.39823e-13 0.000706337 0 9.09126e-12
836 33 0.001 -0.0407872 1.67898e-17 -0.0460785 -0.0045985 5.43788e-13 -0.000201567 0 8.92341e-12
602 30 0.001 -0.0399967 -3.83172e-17 -0.0469994 0.00568586 -5.01359e-12 0.000600917 0 5.12162e-12
603 30 0.001 -0.0399972 6.60179e-18 -0.0459995 0.00445361 5.97631e-13 0.000706337 0 9.09126e-12
837 33 0.001 -0.0405916 -2.71515e-17 -0.0470589 -0.00568345 -5.43451e-12 -0.000526997 0 5.13755e-12
842 34 0.001 -0.0199967 1.86056e-17 -0.0469994 0.00568653 3.71937e-12 0.000601037 0 5.12335e-12
843 34 0.001 -0.0199972 1.17184e-17 -0.0459995 0.00445348 6.80956e-13 0.000706281 0 9.09152e-12
1076 37 0.001 -0.0207872 6.84719e-18 -0.0460785 -0.0046792 -4.14361e-13 -0.000217679 0 8.92271e-12
1077 37 0.001 -0.0205916 -1.04866e-16 -0.0470589 -0.00577235 -1.21182e-11 -0.000544749 0 5.13556e-12
1316 41 0.001 -0.000787176 1.40734e-17 -0.0460785 -0.0046792 -1.28542e-12 -0.000217679 0 8.92271e-12
1317 41 0.001 -0.000591605 -8.72285e-18 -0.0470589 -0.00577236 6.68874e-13 -0.000544749 0 5.13556e-12
1082 38 0.001 3.29709e-06 9.3243e-18 -0.0469994 0.00568653 -1.84051e-12 0.000601037 0 5.12335e-12
1083 38 0.001 2.81283e-06 8.43305e-18 -0.0459995 0.00445348 7.03555e-13 0.000706281 0 9.09152e-12
1556 45 0.001 0.0192128 -1.62282e-17 -0.0460785 -0.0046792 9.23399e-13 -0.000217679 0 8.92271e-12
1557 45 0.001 0.0194084 1.15963e-18 -0.0470589 -0.00577235 -6.2495e-12 -0.000544749 0 5.13556e-12
1322 42 0.001 0.0200033 2.28682e-17 -0.0469994 0.00568653 -7.49423e-12 0.000601037 0 5.12335e-12
1323 42 0.001 0.0200028 1.44518e-17 -0.0459995 0.00445348 9.05108e-13 0.000706281 0 9.09152e-12
1562 46 0.001 0.0400033 -4.24812e-17 -0.0469994 0.00568586 -2.3993e-12 0.000600917 0 5.12162e-12
1563 46 0.001 0.0400028 4.59191e-18 -0.0459995 0.00445361 2.10479e-13 0.000706337 0 9.09126e-12
1796 49 0.001 0.0392128 1.34074e-17 -0.0460785 -0.0045985 9.22435e-14 -0.000201567 0 8.92341e-12
1797 49 0.001 0.0394084 -4.245e-17 -0.0470589 -0.00568345 -2.68436e-12 -0.000526997 0 5.13755e-12
1802 50 0.001 0.0600033 -9.48681e-17 -0.0469994 0.00568653 -1.4466e-12 0.000601039 0 5.12332e-12
1803 50 0.001 0.0600028 -3.29267e-18 -0.0459995 0.00445348 -1.10036e-12 0.000706281 0 9.09151e-12
2036 53 0.001 0.0592128 -2.03196e-17 -0.0460785 -0.00468052 -1.47439e-13 -0.000217943 0 8.92272e-12
2037 53 0.001 0.0594084 3.11661e-17 -0.0470589 -0.00577258 1.18847e-11 -0.000544792 0 5.13553e-12
2276 57 0.001 0.0792129 4.18126e-18 -0.0460785 -0.00377783 -1.78675e-12 6.78167e-06 0 1.10112e-11
2277 57 0.001 0.0794085 -8.28834e-17 -0.0470589 -0.00681987 2.39413e-13 -0.000164962 0 2.59378e-11
2042 54 0.001 0.0800103 4.89187e-16 -0.047 0.00281893 -5.85202e-12 0.00259748 0 3.70324e-15
2043 54 0.001 0.0800085 -2.04005e-16 -0.046 0.00226082 4.00014e-12 0.00233575 0 4.86667e-15
25 21 0.001 -0.1 -7.71539e-20 -0.045 -6.84263e-06 -2.67953e-14 6.47678e-07 0 3.43352e-17
124 22 0.001 -0.0799978 -1.26078e-18 -0.0449996 0.00353851 1.61644e-13 0.000627782 0 1.6425e-11
355 25 0.001 -0.0809827 -1.53379e-17 -0.0450981 -0.00362156 5.68628e-13 -8.51568e-05 0 1.62466e-11
595 29 0.001 -0.0609827 4.48712e-18 -0.0450981 -0.00359423 9.74693e-14 -7.97036e-05 0 1.62469e-11
364 26 0.001 -0.0599978 -1.35352e-18 -0.0449996 0.00353854 2.96538e-13 0.000627803 0 1.64251e-11
835 33 0.001 -0.0409827 -1.9574e-18 -0.0450981 -0.00359423 1.67764e-13 -7.97035e-05 0 1.62469e-11
604 30 0.001 -0.0399978 1.45265e-18 -0.0449996 0.00353854 7.16089e-14 0.000627803 0 1.64251e-11
844 34 0.001 -0.0199978 9.37412e-19 -0.0449996 0.00353853 -9.73215e-14 0.000627784 0 1.64248e-11
1075 37 0.001 -0.0209827 3.89384e-18 -0.0450981 -0.00358481 1.55143e-12 -7.78284e-05 0 1.62467e-11
1315 41 0.001 -0.000982668 7.2785e-18 -0.0450981 -0.00358481 2.02057e-12 -7.78284e-05 0 1.62467e-11
1084 38 0.001 2.23735e-06 -2.6406e-18 -0.0449996 0.00353853 2.41066e-13 0.000627784 0 1.64248e-11
1555 45 0.001 0.0190173 2.64593e-18 -0.0450981 -0.00358481 1.28643e-12 -7.78284e-05 0 1.62467e-11
1324 42 0.001 0.0200022 -2.92239e-19 -0.0449996 0.00353853 3.07295e-13 0.000627784 0 1.64248e-11
1795 49 0.001 0.0390173 -1.83358e-18 -0.0450981 -0.00359423 1.66958e-13 -7.97035e-05 0 1.62469e-11
1564 46 0.001 0.0400022 1.36678e-18 -0.0449996 0.00353854 6.84855e-14 0.000627803 0 1.64251e-11
1804 50 0.001 0.0600022 5.43895e-18 -0.0449996 0.00353853 -1.0328e-13 0.000627785 0 1.64248e-11
2035 53 0.001 0.0590173 3.2647e-19 -0.0450981 -0.00359117 -1.49659e-13 -7.90965e-05 0 1.62467e-11
2275 57 0.001 0.0790173 -1.42756e-17 -0.0450981 -0.00342578 1.42395e-12 -5.73046e-05 0 1.63605e-11
2044 54 0.001 0.0800068 -1.26121e-16 -0.045 0.000771093 9.5818e-13 0.00192778 0 4.98844e-15
26 21 0.001 -0.1 2.68076e-19 -0.044 -9.3446e-06 -2.4904e-15 8.56365e-09 0 1.84889e-20
27 21 0.001 -0.1 6.22452e-20 -0.043 8.11416e-07 1.74987e-15 -6.93317e-09 0 3.82055e-24
353 25 0.001 -0.0813736 1.42133e-16 -0.0431372 -0.00163758 -2.75856e-11 3.54802e-05 0 1.91124e-11
125 22 0.001 -0.0799984 1.14282e-18 -0.0439997 0.00256833 -3.63395e-14 0.000500653 0 1.95184e-11
126 22 0.001 -0.079999 -9.30501e-19 -0.0429998 0.00160733 5.66335e-14 0.000356081 0 1.91864e-11
354 25 0.001 -0.0811781 1.1404e-16 -0.0441177 -0.00261402 6.04432e-12 -1.26155e-05 0 1.93722e-11
593 29 0.001 -0.0613736 -2.77098e-18 -0.0431372 -0.00164375 8.14831e-13 3.42486e-05 0 1.91125e-11
594 29 0.001 -0.0611781 -7.55094e-19 -0.0441177 -0.00261245 -2.28425e-13 -1.23008e-05 0 1.93723e-11
365 26 0.001 -0.0599984 -2.0403e-18 -0.0439997 0.00256833 -3.4147e-13 0.000500659 0 1.95184e-11
366 26 0.001 -0.059999 -1.25594e-18 -0.0429998 0.00160732 8.75484e-13 0.000356083 0 1.91864e-11
833 33 0.001 -0.0413736 -3.57008e-18 -0.0431372 -0.00164375 5.09646e-14 3.42486e-05 0 1.91125e-11
834 33 0.001 -0.0411781 1.81819e-18 -0.0441177 -0.00261245 -7.89478e-14 -1.23008e-05 0 1.93723e-11
605 30 0.001 -0.0399984 6.3739e-19 -0.0439997 0.00256833 -3.22624e-14 0.000500659 0 1.95184e-11
606 30 0.001 -0.039999 -4.47146e-18 -0.0429998 0.00160732 -1.77416e-13 0.000356083 0 1.91864e-11
1073 37 0.001 -0.0213736 -6.46536e-17 -0.0431372 -0.00166384 -6.58585e-11 3.02454e-05 0 1.91126e-11
1074 37 0.001 -0.0211781 1.14241e-16 -0.0441177 -0.00260569 4.13803e-12 -1.0956e-05 0 1.93724e-11
845 34 0.001 -0.0199984 -1.4196e-18 -0.0439997 0.00256834 4.69622e-13 0.000500663 0 1.95184e-11
846 34 0.001 -0.019999 1.30453e-18 -0.0429998 0.00160731 -9.3884e-13 0.000356085 0 1.91865e-11
1313 41 0.001 -0.00137359 -6.89212e-17 -0.0431372 -0.00166384 -6.57167e-11 3.02454e-05 0 1.91126e-11
1314 41 0.001 -0.00117812 1.13442e-16 -0.0441177 -0.00260569 4.01011e-12 -1.0956e-05 0 1.93724e-11
1085 38 0.001 1.61696e-06 -2.12103e-19 -0.0439997 0.00256834 -1.87929e-13 0.000500663 0 1.95184e-11
1086 38 0.001 1.01181e-06 2.05144e-18 -0.0429998 0.00160731 -4.58939e-14 0.000356085 0 1.91865e-11
1553 45 0.001 0.0186264 -6.95002e-17 -0.0431372 -0.00166384 -6.59593e-11 3.02454e-05 0 1.91126e-11
1554 45 0.001 0.0188219 1.17179e-16 -0.0441177 -0.00260569 4.22645e-12 -1.0956e-05 0 1.93724e-11
1325 42 0.001 0.0200016 -4.18777e-19 -0.0439997 0.00256834 -5.83375e-13 0.000500663 0 1.95184e-11
1326 42 0.001 0.020001 -1.7792e-18 -0.0429998 0.00160731 9.34521e-13 0.000356085 0 1.91865e-11