ITEM: TIMESTEP
0
ITEM: NUMBER OF ATOMS
1472
ITEM: BOX BOUNDS ff ff ff
-6.0000000000000005e-02 6.0000000000000005e-02
-6.0000000000000001e-03 6.0000000000000001e-03
-5.5000000000000000e-02 5.5000000000000000e-02
ITEM: ATOMS id type radius x y z fx fy fz c_bendingE c_stretchingE
1 1 0.001 -0.05 0 -0.05 -0.962329 -0.516261 1.30597 0 5.2842e-06
13 13 0.001 -0.050132 0.0008802 -0.0495261 0.20227 1.71464 -3.2364 0 6.51293e-06
433 15 0.001 -0.0490476 0 -0.05 0.0341607 0 0 0 4.05546e-06
434 15 0.001 -0.0480952 0 -0.05 -0.0312975 0 0 0 4.05546e-06
435 15 0.001 -0.0471429 0 -0.05 -0.0123411 0 0 0 4.05546e-06
436 15 0.001 -0.0461905 0 -0.05 0.0654575 0 0 0 4.05546e-06
437 15 0.001 -0.0452381 0 -0.05 -0.0654575 0 0 0 4.05546e-06
438 15 0.001 -0.0442857 0 -0.05 0.0218192 0 0 0 4.05546e-06
439 15 0.001 -0.0433333 0 -0.05 -0.0218192 0 0 0 4.05546e-06
440 15 0.001 -0.042381 0 -0.05 0.0654577 0 0 0 4.05546e-06
441 15 0.001 -0.0414286 0 -0.05 -0.0872774 0 0 0 4.05546e-06
442 15 0.001 -0.0404762 0 -0.05 0.0872774 0 0 0 4.05546e-06
443 15 0.001 -0.0395238 0 -0.05 -0.0654577 0 0 0 4.05546e-06
444 15 0.001 -0.0385714 0 -0.05 0.0218192 0 0 0 4.05546e-06
445 15 0.001 -0.037619 0 -0.05 -0.0218192 0 0 0 4.05546e-06
446 15 0.001 -0.0366667 0 -0.05 0.0654575 0 0 0 4.05546e-06
447 15 0.001 -0.0357143 0 -0.05 -0.0654575 0 0 0 4.05546e-06
448 15 0.001 -0.0347619 0 -0.05 1.3261e-17 0 0 0 4.05546e-06
449 15 0.001 -0.0338095 0 -0.05 0.0654575 0 0 0 4.05546e-06
450 15 0.001 -0.0328571 0 -0.05 -0.0872767 0 0 0 4.05546e-06
451 15 0.001 -0.0319048 0 -0.05 0.0749355 0 0 0 4.05546e-06
223 14 0.001 -0.030132 0.0008802 -0.0495261 0.20227 1.71464 -3.2364 0 6.51293e-06
452 15 0.001 -0.0309524 0 -0.05 -0.0407749 0 0 0 4.05546e-06
3 3 0.001 -0.03 0 -0.05 -0.751536 -0.516261 1.30597 0 7.31193e-06
683 18 0.001 -0.0290476 0 -0.05 -0.0341601 0 0 0 4.05546e-06
684 18 0.001 -0.0280952 0 -0.05 0.0312968 0 0 0 4.05546e-06
685 18 0.001 -0.0271429 0 -0.05 0.0123411 0 0 0 4.05546e-06
686 18 0.001 -0.0261905 0 -0.05 -0.065457 0 0 0 4.05546e-06
687 18 0.001 -0.0252381 0 -0.05 0.065457 0 0 0 4.05546e-06
688 18 0.001 -0.0242857 0 -0.05 -1.25545e-17 0 0 0 4.05546e-06
689 18 0.001 -0.0233333 0 -0.05 -0.043638 0 0 0 4.05546e-06
690 18 0.001 -0.022381 0 -0.05 -1.84886e-07 0 0 0 4.05546e-06
691 18 0.001 -0.0214286 0 -0.05 0.0654575 0 0 0 4.05546e-06
692 18 0.001 -0.0204762 0 -0.05 -0.0654575 0 0 0 4.05546e-06
693 18 0.001 -0.0195238 0 -0.05 1.84886e-07 0 0 0 4.05546e-06
694 18 0.001 -0.0185714 0 -0.05 0.043638 0 0 0 4.05546e-06
695 18 0.001 -0.017619 0 -0.05 -0.021819 0 0 0 4.05546e-06
696 18 0.001 -0.0166667 0 -0.05 0.021819 0 0 0 4.05546e-06
697 18 0.001 -0.0157143 0 -0.05 -0.043638 0 0 0 4.05546e-06
698 18 0.001 -0.0147619 0 -0.05 1.60241e-17 0 0 0 4.05546e-06
699 18 0.001 -0.0138095 0 -0.05 0.043638 0 0 0 4.05546e-06
700 18 0.001 -0.0128571 0 -0.05 -0.021819 0 0 0 4.05546e-06
701 18 0.001 -0.0119048 0 -0.05 0.00947786 0 0 0 4.05546e-06
702 18 0.001 -0.0109524 0 -0.05 -0.0189557 0 0 0 4.05546e-06
5 5 0.001 -0.01 0 -0.05 -0.763878 -0.516261 1.30597 0 7.31193e-06
473 17 0.001 -0.010132 0.0008802 -0.0495261 0.20227 1.71464 -3.2364 0 6.51293e-06
933 21 0.001 -0.00904762 0 -0.05 -0.00947858 0 0 0 4.05546e-06
934 21 0.001 -0.00809524 0 -0.05 -0.0123418 0 0 0 4.05546e-06
935 21 0.001 -0.00714286 0 -0.05 0.00947858 0 0 0 4.05546e-06
936 21 0.001 -0.00619048 0 -0.05 0.0123418 0 0 0 4.05546e-06
937 21 0.001 -0.0052381 0 -0.05 6.81399e-15 0 0 0 4.05546e-06
938 21 0.001 -0.00428571 0 -0.05 -6.81399e-15 0 0 0 4.05546e-06
939 21 0.001 -0.00333333 0 -0.05 6.81399e-15 0 0 0 4.05546e-06
940 21 0.001 -0.00238095 0 -0.05 -0.0218196 0 0 0 4.05546e-06
941 21 0.001 -0.00142857 0 -0.05 -1.37074e-14 0 0 0 4.05546e-06
942 21 0.001 -0.00047619 0 -0.05 0.0436388 0 0 0 4.05546e-06
943 21 0.001 0.00047619 0 -0.05 -0.0654582 0 0 0 4.05546e-06
944 21 0.001 0.00142857 0 -0.05 1.7296e-07 0 0 0 4.05546e-06
945 21 0.001 0.00238095 0 -0.05 0.0218197 0 0 0 4.05546e-06
946 21 0.001 0.00333333 0 -0.05 0.043638 0 0 0 4.05546e-06
947 21 0.001 0.00428571 0 -0.05 -0.043638 0 0 0 4.05546e-06
948 21 0.001 0.0052381 0 -0.05 1.60241e-17 0 0 0 4.05546e-06
949 21 0.001 0.00619048 0 -0.05 0.043638 0 0 0 4.05546e-06
950 21 0.001 0.00714286 0 -0.05 -0.021819 0 0 0 4.05546e-06
951 21 0.001 0.00809524 0 -0.05 0.00947786 0 0 0 4.05546e-06
7 7 0.001 0.01 0 -0.05 -0.763878 -0.516261 1.30597 0 7.31193e-06
723 20 0.001 0.00986797 0.0008802 -0.0495261 0.20227 1.71464 -3.2364 0 6.51293e-06
952 21 0.001 0.00904762 0 -0.05 -0.0189557 0 0 0 4.05546e-06
1183 24 0.001 0.0109524 0 -0.05 -0.00947858 0 0 0 4.05546e-06
1184 24 0.001 0.0119048 0 -0.05 -0.0123418 0 0 0 4.05546e-06
1185 24 0.001 0.0128571 0 -0.05 0.00947858 0 0 0 4.05546e-06
1186 24 0.001 0.0138095 0 -0.05 -0.00947778 0 0 0 4.05546e-06
1187 24 0.001 0.0147619 0 -0.05 -1.37074e-14 0 0 0 4.05546e-06
1188 24 0.001 0.0157143 0 -0.05 0.0436386 0 0 0 4.05546e-06
1189 24 0.001 0.0166667 0 -0.05 -0.043638 0 0 0 4.05546e-06
1190 24 0.001 0.017619 0 -0.05 -1.84886e-07 0 0 0 4.05546e-06
1191 24 0.001 0.0185714 0 -0.05 0.0654575 0 0 0 4.05546e-06
1192 24 0.001 0.0195238 0 -0.05 -0.0654575 0 0 0 4.05546e-06
1193 24 0.001 0.0204762 0 -0.05 1.84886e-07 0 0 0 4.05546e-06
1194 24 0.001 0.0214286 0 -0.05 0.043638 0 0 0 4.05546e-06
1195 24 0.001 0.022381 0 -0.05 -0.021819 0 0 0 4.05546e-06
1196 24 0.001 0.0233333 0 -0.05 0.021819 0 0 0 4.05546e-06
1197 24 0.001 0.0242857 0 -0.05 -0.043638 0 0 0 4.05546e-06
1198 24 0.001 0.0252381 0 -0.05 1.60241e-17 0 0 0 4.05546e-06
1199 24 0.001 0.0261905 0 -0.05 0.043638 0 0 0 4.05546e-06
1200 24 0.001 0.0271429 0 -0.05 -0.021819 0 0 0 4.05546e-06
1201 24 0.001 0.0280952 0 -0.05 -1.38778e-17 0 0 0 4.05546e-06
9 9 0.001 0.03 0 -0.05 -0.761014 -0.516261 1.30597 0 7.31193e-06
973 23 0.001 0.029868 0.0008802 -0.0495261 0.20227 1.71464 -3.2364 0 6.51293e-06
1202 24 0.001 0.0290476 0 -0.05 -1.38778e-17 0 0 0 4.05546e-06
1433 27 0.001 0.0309524 0 -0.05 -0.0246822 0 0 0 4.05546e-06
1434 27 0.001 0.0319048 0 -0.05 -2.10215e-07 0 0 0 4.05546e-06
1435 27 0.001 0.0328571 0 -0.05 0.0465018 0 0 0 4.05546e-06
1436 27 0.001 0.0338095 0 -0.05 -0.0559797 0 0 0 4.05546e-06
1437 27 0.001 0.0347619 0 -0.05 1.3261e-17 0 0 0 4.05546e-06
1438 27 0.001 0.0357143 0 -0.05 0.0654575 0 0 0 4.05546e-06
1439 27 0.001 0.0366667 0 -0.05 -0.0654575 0 0 0 4.05546e-06
1440 27 0.001 0.037619 0 -0.05 1.3261e-17 0 0 0 4.05546e-06
1441 27 0.001 0.0385714 0 -0.05 0.0654575 0 0 0 4.05546e-06
1442 27 0.001 0.0395238 0 -0.05 -0.0654575 0 0 0 4.05546e-06
1443 27 0.001 0.0404762 0 -0.05 0.0218192 0 0 0 4.05546e-06
1444 27 0.001 0.0414286 0 -0.05 -0.0218197 0 0 0 4.05546e-06
1445 27 0.001 0.042381 0 -0.05 0.0436395 0 0 0 4.05546e-06
1446 27 0.001 0.0433333 0 -0.05 -1.23935e-17 0 0 0 4.05546e-06
1447 27 0.001 0.0442857 0 -0.05 -0.0436395 0 0 0 4.05546e-06
1448 27 0.001 0.0452381 0 -0.05 0.0218197 0 0 0 4.05546e-06
1449 27 0.001 0.0461905 0 -0.05 1.38778e-17 0 0 0 4.05546e-06
1450 27 0.001 0.0471429 0 -0.05 -0.0218192 0 0 0 4.05546e-06
1451 27 0.001 0.0480952 0 -0.05 0.0531164 0 0 0 4.05546e-06
1452 27 0.001 0.0490476 0 -0.05 -0.0312972 0 0 0 4.05546e-06
11 11 0.001 0.05 0 -0.05 -0.596723 -0.516261 1.30597 0 5.2842e-06
1223 26 0.001 0.049868 0.0008802 -0.0495261 0.20227 1.71464 -3.2364 0 6.51293e-06
14 13 0.001 -0.0505165 0.00168292 -0.0490521 1.26366 -1.95396 4.41793 0 6.51293e-06
224 14 0.001 -0.0305165 0.00168292 -0.0490521 1.26366 -1.95396 4.41793 0 6.51293e-06
474 17 0.001 -0.0105165 0.00168292 -0.0490521 1.26366 -1.95396 4.41793 0 6.51293e-06
724 20 0.001 0.0094835 0.00168292 -0.0490521 1.26366 -1.95396 4.41793 0 6.51293e-06
974 23 0.001 0.0294835 0.00168292 -0.0490521 1.26366 -1.95396 4.41793 0 6.51293e-06
1224 26 0.001 0.0494835 0.00168292 -0.0490521 1.26366 -1.95396 4.41793 0 6.51293e-06
17 13 0.001 -0.0527546 0.00298995 -0.0476303 -0.00167748 -0.0204388 3.17928e-12 0 6.51293e-06
15 13 0.001 -0.0511196 0.00233752 -0.0485782 -1.71854 0.383403 -3.23623 0 6.51293e-06
16 13 0.001 -0.0518882 0.00278636 -0.0481043 0.958674 0.387995 1.18153 0 6.51293e-06
226 14 0.001 -0.0318882 0.00278636 -0.0481043 0.958674 0.387995 1.18153 0 6.51293e-06
227 14 0.001 -0.0327546 0.00298995 -0.0476303 -0.00167748 -0.0204388 2.22455e-12 0 6.51293e-06
225 14 0.001 -0.0311196 0.00233752 -0.0485782 -1.71854 0.383403 -3.23623 0 6.51293e-06
477 17 0.001 -0.0127546 0.00298995 -0.0476303 -0.00167748 -0.0204388 1.42519e-12 0 6.51293e-06
475 17 0.001 -0.0111196 0.00233752 -0.0485782 -1.71854 0.383403 -3.23623 0 6.51293e-06
476 17 0.001 -0.0118882 0.00278636 -0.0481043 0.958674 0.387995 1.18153 0 6.51293e-06
727 20 0.001 0.0072454 0.00298995 -0.0476303 -0.00167748 -0.0204388 1.41076e-12 0 6.51293e-06
725 20 0.001 0.00888043 0.00233752 -0.0485782 -1.71854 0.383403 -3.23623 0 6.51293e-06
726 20 0.001 0.00811185 0.00278636 -0.0481043 0.958674 0.387995 1.18153 0 6.51293e-06
976 23 0.001 0.0281118 0.00278636 -0.0481043 0.958674 0.387995 1.18153 0 6.51293e-06
977 23 0.001 0.0272454 0.00298995 -0.0476303 -0.00167748 -0.0204388 1.56841e-12 0 6.51293e-06
975 23 0.001 0.0288804 0.00233752 -0.0485782 -1.71854 0.383403 -3.23623 0 6.51293e-06
1227 26 0.001 0.0472454 0.00298995 -0.0476303 -0.00167748 -0.0204388 3.17928e-12 0 6.51293e-06
1225 26 0.001 0.0488804 0.00233752 -0.0485782 -1.71854 0.383403 -3.23623 0 6.51293e-06
1226 26 0.001 0.0481118 0.00278636 -0.0481043 0.958674 0.387995 1.18153 0 6.51293e-06
19 13 0.001 -0.0544741 0.00261284 -0.0466825 0.010077 -0.017861 1.85256e-12 0 6.51293e-06
20 13 0.001 -0.0551759 0.00206533 -0.0462085 0.0148739 -0.0141183 5.48631e-13 0 6.51293e-06
18 13 0.001 -0.0536427 0.00293036 -0.0471564 0.00439309 -0.0200315 -3.67305e-12 0 6.51293e-06
230 14 0.001 -0.0351759 0.00206533 -0.0462085 0.0148739 -0.0141183 2.26217e-12 0 6.51293e-06
228 14 0.001 -0.0336427 0.00293036 -0.0471564 0.00439309 -0.0200315 -1.49679e-12 0 6.51293e-06
229 14 0.001 -0.0344741 0.00261284 -0.0466825 0.010077 -0.017861 -5.40235e-13 0 6.51293e-06
480 17 0.001 -0.0151759 0.00206533 -0.0462085 0.0148739 -0.0141183 1.40483e-12 0 6.51293e-06
478 17 0.001 -0.0136427 0.00293036 -0.0471564 0.00439309 -0.0200315 -1.46624e-12 0 6.51293e-06
479 17 0.001 -0.0144741 0.00261284 -0.0466825 0.010077 -0.017861 1.13781e-13 0 6.51293e-06
729 20 0.001 0.00552586 0.00261284 -0.0466825 0.010077 -0.017861 -2.97054e-14 0 6.51293e-06
730 20 0.001 0.00482413 0.00206533 -0.0462085 0.0148739 -0.0141183 1.56732e-12 0 6.51293e-06
728 20 0.001 0.00635735 0.00293036 -0.0471564 0.00439309 -0.0200315 -1.39623e-12 0 6.51293e-06
980 23 0.001 0.0248241 0.00206533 -0.0462085 0.0148739 -0.0141183 1.22028e-12 0 6.51293e-06
978 23 0.001 0.0263573 0.00293036 -0.0471564 0.00439309 -0.0200315 -1.4849e-12 0 6.51293e-06
979 23 0.001 0.0255259 0.00261284 -0.0466825 0.010077 -0.017861 1.66183e-13 0 6.51293e-06
1230 26 0.001 0.0448241 0.00206533 -0.0462085 0.0148739 -0.0141183 5.49075e-13 0 6.51293e-06
1228 26 0.001 0.0463573 0.00293036 -0.0471564 0.00439309 -0.0200315 -3.67295e-12 0 6.51293e-06
1229 26 0.001 0.0455259 0.00261284 -0.0466825 0.010077 -0.017861 1.85124e-12 0 6.51293e-06
23 13 0.001 -0.0559731 -0.000400803 -0.0447867 0.0203237 0.00273983 1.15417e-12 0 6.51293e-06
233 14 0.001 -0.0359731 -0.000400803 -0.0447867 0.0203237 0.00273983 1.46293e-12 0 6.51293e-06
483 17 0.001 -0.0159731 -0.000400803 -0.0447867 0.0203237 0.00273983 1.2564e-12 0 6.51293e-06
733 20 0.001 0.00402689 -0.000400803 -0.0447867 0.0203237 0.00273983 1.32282e-12 0 6.51293e-06
983 23 0.001 0.0240269 -0.000400803 -0.0447867 0.0203237 0.00273983 1.42382e-12 0 6.51293e-06
1233 26 0.001 0.0440269 -0.000400803 -0.0447867 0.0203237 0.00273983 1.15417e-12 0 6.51293e-06
21 13 0.001 -0.0556861 0.00133604 -0.0457346 0.0183616 -0.00913296 -1.2866e-12 0 6.51293e-06
22 13 0.001 -0.0559599 0.000489145 -0.0452607 0.0202331 -0.00334373 1.30826e-13 0 6.51293e-06
231 14 0.001 -0.0356861 0.00133604 -0.0457346 0.0183616 -0.00913296 -2.1186e-12 0 6.51293e-06
232 14 0.001 -0.0359599 0.000489145 -0.0452607 0.0202331 -0.00334373 3.37806e-13 0 6.51293e-06
481 17 0.001 -0.0156861 0.00133604 -0.0457346 0.0183616 -0.00913296 -1.56398e-12 0 6.51293e-06
482 17 0.001 -0.0159599 0.000489145 -0.0452607 0.0202331 -0.00334373 1.89473e-13 0 6.51293e-06
731 20 0.001 0.00431392 0.00133604 -0.0457346 0.0183616 -0.00913296 -1.66599e-12 0 6.51293e-06
732 20 0.001 0.00404015 0.000489145 -0.0452607 0.0202331 -0.00334373 2.17496e-13 0 6.51293e-06
981 23 0.001 0.0243139 0.00133604 -0.0457346 0.0183616 -0.00913296 -1.31998e-12 0 6.51293e-06
982 23 0.001 0.0240401 0.000489145 -0.0452607 0.0202331 -0.00334373 2.77244e-14 0 6.51293e-06
1231 26 0.001 0.0443139 0.00133604 -0.0457346 0.0183616 -0.00913296 -1.2866e-12 0 6.51293e-06
1232 26 0.001 0.0440401 0.000489145 -0.0452607 0.0202331 -0.00334373 1.30826e-13 0 6.51293e-06
25 13 0.001 -0.0552364 -0.00199963 -0.0438389 0.0152877 0.0136692 -3.81906e-13 0 6.51293e-06
26 13 0.001 -0.0545513 -0.00256779 -0.0433649 0.0106043 0.017553 1.56458e-12 0 6.51293e-06
235 14 0.001 -0.0352364 -0.00199963 -0.0438389 0.0152877 0.0136692 4.15005e-13 0 6.51293e-06
236 14 0.001 -0.0345513 -0.00256779 -0.0433649 0.0106043 0.017553 1.27548e-12 0 6.51293e-06
485 17 0.001 -0.0152364 -0.00199963 -0.0438389 0.0152877 0.0136692 -3.96426e-13 0 6.51293e-06
486 17 0.001 -0.0145513 -0.00256779 -0.0433649 0.0106043 0.017553 1.64191e-12 0 6.51293e-06
735 20 0.001 0.00476361 -0.00199963 -0.0438389 0.0152877 0.0136692 -6.00804e-14 0 6.51293e-06
736 20 0.001 0.00544872 -0.00256779 -0.0433649 0.0106043 0.017553 1.40365e-12 0 6.51293e-06
985 23 0.001 0.0247636 -0.00199963 -0.0438389 0.0152877 0.0136692 -3.769e-13 0 6.51293e-06
986 23 0.001 0.0254487 -0.00256779 -0.0433649 0.0106043 0.017553 2.07241e-12 0 6.51293e-06
1235 26 0.001 0.0447636 -0.00199963 -0.0438389 0.0152877 0.0136692 -3.81906e-13 0 6.51293e-06
1236 26 0.001 0.0454487 -0.00256779 -0.0433649 0.0106043 0.017553 1.56458e-12 0 6.51293e-06
24 13 0.001 -0.0557247 -0.00125547 -0.0443128 0.0186254 0.00858222 -1.00406e-12 0 6.51293e-06
234 14 0.001 -0.0357247 -0.00125547 -0.0443128 0.0186254 0.00858222 -1.76825e-12 0 6.51293e-06
484 17 0.001 -0.0157247 -0.00125547 -0.0443128 0.0186254 0.00858222 -1.14119e-12 0 6.51293e-06
734 20 0.001 0.00427534 -0.00125547 -0.0443128 0.0186254 0.00858222 -1.37217e-12 0 6.51293e-06
984 23 0.001 0.0242753 -0.00125547 -0.0443128 0.0186254 0.00858222 -1.3824e-12 0 6.51293e-06
1234 26 0.001 0.0442753 -0.00125547 -0.0443128 0.0186254 0.00858222 -1.00406e-12 0 6.51293e-06
27 13 0.001 -0.0537296 -0.00290992 -0.042891 0.00498756 0.0198918 -1.38766e-12 0 6.51293e-06
28 13 0.001 -0.0528437 -0.00299593 -0.0424171 -0.0010682 0.0204797 7.60121e-14 0 6.51293e-06
29 13 0.001 -0.0519716 -0.00281823 -0.0419431 -0.00702993 0.019265 1.15628e-12 0 6.51293e-06
30 13 0.001 -0.05119 -0.00239247 -0.0414692 -0.0123729 0.0163546 -1.44391e-12 0 6.51293e-06
237 14 0.001 -0.0337296 -0.00290992 -0.042891 0.00498756 0.0198918 -1.80331e-12 0 6.51293e-06
238 14 0.001 -0.0328437 -0.00299593 -0.0424171 -0.0010682 0.0204797 8.93369e-13 0 6.51293e-06
239 14 0.001 -0.0319716 -0.00281823 -0.0419431 -0.00702993 0.019265 5.55968e-13 0 6.51293e-06
240 14 0.001 -0.03119 -0.00239247 -0.0414692 -0.0123729 0.0163546 -1.38122e-12 0 6.51293e-06
487 17 0.001 -0.0137296 -0.00290992 -0.042891 0.00498756 0.0198918 -1.37574e-12 0 6.51293e-06
488 17 0.001 -0.0128437 -0.00299593 -0.0424171 -0.0010682 0.0204797 -1.00663e-13 0 6.51293e-06
489 17 0.001 -0.0119716 -0.00281823 -0.0419431 -0.00702993 0.019265 1.52977e-12 0 6.51293e-06
490 17 0.001 -0.01119 -0.00239247 -0.0414692 -0.0123729 0.0163546 -1.83637e-12 0 6.51293e-06
737 20 0.001 0.00627038 -0.00290992 -0.042891 0.00498756 0.0198918 -1.29847e-12 0 6.51293e-06
738 20 0.001 0.00715626 -0.00299593 -0.0424171 -0.0010682 0.0204797 -1.08656e-13 0 6.51293e-06
739 20 0.001 0.00802839 -0.00281823 -0.0419431 -0.00702993 0.019265 1.52977e-12 0 6.51293e-06
740 20 0.001 0.00881 -0.00239247 -0.0414692 -0.0123729 0.0163546 -1.83637e-12 0 6.51293e-06
987 23 0.001 0.0262704 -0.00290992 -0.042891 0.00498756 0.0198918 -1.91368e-12 0 6.51293e-06
988 23 0.001 0.0271563 -0.00299593 -0.0424171 -0.0010682 0.0204797 5.97924e-14 0 6.51293e-06
989 23 0.001 0.0280284 -0.00281823 -0.0419431 -0.00702993 0.019265 1.79169e-12 0 6.51293e-06
990 23 0.001 0.02881 -0.00239247 -0.0414692 -0.0123729 0.0163546 -2.2301e-12 0 6.51293e-06
1237 26 0.001 0.0462704 -0.00290992 -0.042891 0.00498756 0.0198918 -1.38766e-12 0 6.51293e-06
1238 26 0.001 0.0471563 -0.00299593 -0.0424171 -0.0010682 0.0204797 7.60121e-14 0 6.51293e-06
1239 26 0.001 0.0480284 -0.00281823 -0.0419431 -0.00702993 0.019265 1.15628e-12 0 6.51293e-06
1240 26 0.001 0.04881 -0.00239247 -0.0414692 -0.0123729 0.0163546 -1.44391e-12 0 6.51293e-06
31 13 0.001 -0.0505677 -0.00175612 -0.0409953 -0.0166268 0.0120046 1.15238e-12 0 6.51293e-06
241 14 0.001 -0.0305677 -0.00175612 -0.0409953 -0.0166268 0.0120046 1.32224e-12 0 6.51293e-06
491 17 0.001 -0.0105677 -0.00175612 -0.0409953 -0.0166268 0.0120046 1.32533e-12 0 6.51293e-06
741 20 0.001 0.00943229 -0.00175612 -0.0409953 -0.0166268 0.0120046 1.32533e-12 0 6.51293e-06
991 23 0.001 0.0294323 -0.00175612 -0.0409953 -0.0166268 0.0120046 1.5998e-12 0 6.51293e-06
1241 26 0.001 0.0494323 -0.00175612 -0.0409953 -0.0166268 0.0120046 1.15238e-12 0 6.51293e-06
32 13 0.001 -0.0501595 -0.0009652 -0.0405213 -0.0194172 0.00659796 -1.32902e-12 0 6.51293e-06
33 13 0.001 -0.0500013 -8.93212e-05 -0.0400474 -0.0204985 0.000610586 1.93599e-12 0 6.51293e-06
242 14 0.001 -0.0301595 -0.0009652 -0.0405213 -0.0194172 0.00659796 -1.40302e-12 0 6.51293e-06
243 14 0.001 -0.0300013 -8.93212e-05 -0.0400474 -0.0204985 0.000610586 2.04375e-12 0 6.51293e-06
492 17 0.001 -0.0101595 -0.0009652 -0.0405213 -0.0194172 0.00659796 -1.31302e-12 0 6.51293e-06
493 17 0.001 -0.0100013 -8.93212e-05 -0.0400474 -0.0204985 0.000610586 1.96269e-12 0 6.51293e-06
742 20 0.001 0.00984049 -0.0009652 -0.0405213 -0.0194172 0.00659796 -1.31302e-12 0 6.51293e-06
743 20 0.001 0.00999867 -8.93212e-05 -0.0400474 -0.0204985 0.000610586 1.96269e-12 0 6.51293e-06
992 23 0.001 0.0298405 -0.0009652 -0.0405213 -0.0194172 0.00659796 -1.43055e-12 0 6.51293e-06
993 23 0.001 0.0299987 -8.93212e-05 -0.0400474 -0.0204985 0.000610586 2.04375e-12 0 6.51293e-06
1242 26 0.001 0.0498405 -0.0009652 -0.0405213 -0.0194172 0.00659796 -1.32902e-12 0 6.51293e-06
1243 26 0.001 0.0499987 -8.93212e-05 -0.0400474 -0.0204985 0.000610586 1.93599e-12 0 6.51293e-06
34 13 0.001 -0.0501071 0.000794419 -0.0395735 -0.0197755 -0.00543053 -1.94839e-12 0 6.51293e-06
244 14 0.001 -0.0301071 0.000794419 -0.0395735 -0.0197755 -0.00543053 -2.20252e-12 0 6.51293e-06
494 17 0.001 -0.0101071 0.000794419 -0.0395735 -0.0197755 -0.00543053 -2.01638e-12 0 6.51293e-06
744 20 0.001 0.0098929 0.000794419 -0.0395735 -0.0197755 -0.00543053 -2.01638e-12 0 6.51293e-06
994 23 0.001 0.0298929 0.000794419 -0.0395735 -0.0197755 -0.00543053 -2.20252e-12 0 6.51293e-06
1244 26 0.001 0.0498929 0.000794419 -0.0395735 -0.0197755 -0.00543053 -1.94839e-12 0 6.51293e-06
36 13 0.001 -0.0510508 0.00228049 -0.0386256 -0.0133244 -0.0155891 -1.50585e-12 0 6.51293e-06
35 13 0.001 -0.0504675 0.00160823 -0.0390995 -0.0173118 -0.0109937 1.42116e-12 0 6.51293e-06
245 14 0.001 -0.0304675 0.00160823 -0.0390995 -0.0173118 -0.0109937 1.58122e-12 0 6.51293e-06
246 14 0.001 -0.0310508 0.00228049 -0.0386256 -0.0133244 -0.0155891 -1.33826e-12 0 6.51293e-06
496 17 0.001 -0.0110508 0.00228049 -0.0386256 -0.0133244 -0.0155891 -9.58525e-13 0 6.51293e-06
495 17 0.001 -0.0104675 0.00160823 -0.0390995 -0.0173118 -0.0109937 1.25166e-12 0 6.51293e-06
746 20 0.001 0.00894919 0.00228049 -0.0386256 -0.0133244 -0.0155891 -9.35654e-13 0 6.51293e-06
745 20 0.001 0.0095325 0.00160823 -0.0390995 -0.0173118 -0.0109937 1.25166e-12 0 6.51293e-06
995 23 0.001 0.0295325 0.00160823 -0.0390995 -0.0173118 -0.0109937 1.52216e-12 0 6.51293e-06
996 23 0.001 0.0289492 0.00228049 -0.0386256 -0.0133244 -0.0155891 -1.09428e-12 0 6.51293e-06
1246 26 0.001 0.0489492 0.00228049 -0.0386256 -0.0133244 -0.0155891 -1.50585e-12 0 6.51293e-06
1245 26 0.001 0.0495325 0.00160823 -0.0390995 -0.0173118 -0.0109937 1.42116e-12 0 6.51293e-06
38 13 0.001 -0.0526657 0.00298131 -0.0376777 -0.00228528 -0.0203798 -1.56705e-12 0 6.51293e-06
39 13 0.001 -0.0535551 0.00294819 -0.0372038 0.00379473 -0.0201534 -7.18509e-13 0 6.51293e-06
37 13 0.001 -0.0518057 0.00275202 -0.0381517 -0.00816414 -0.0188124 2.09546e-12 0 6.51293e-06
249 14 0.001 -0.0335551 0.00294819 -0.0372038 0.00379473 -0.0201534 -3.1046e-13 0 6.51293e-06
247 14 0.001 -0.0318057 0.00275202 -0.0381517 -0.00816414 -0.0188124 1.73273e-12 0 6.51293e-06
248 14 0.001 -0.0326657 0.00298131 -0.0376777 -0.00228528 -0.0203798 -1.42765e-12 0 6.51293e-06
499 17 0.001 -0.0135551 0.00294819 -0.0372038 0.00379473 -0.0201534 -5.18578e-13 0 6.51293e-06
498 17 0.001 -0.0126657 0.00298131 -0.0376777 -0.00228528 -0.0203798 -1.22443e-12 0 6.51293e-06
497 17 0.001 -0.0118057 0.00275202 -0.0381517 -0.00816414 -0.0188124 1.42522e-12 0 6.51293e-06
748 20 0.001 0.00733431 0.00298131 -0.0376777 -0.00228528 -0.0203798 -1.05787e-12 0 6.51293e-06
749 20 0.001 0.00644488 0.00294819 -0.0372038 0.00379473 -0.0201534 -7.02039e-13 0 6.51293e-06
747 20 0.001 0.00819431 0.00275202 -0.0381517 -0.00816414 -0.0188124 1.33122e-12 0 6.51293e-06
999 23 0.001 0.0264449 0.00294819 -0.0372038 0.00379473 -0.0201534 -1.51327e-13 0 6.51293e-06
997 23 0.001 0.0281943 0.00275202 -0.0381517 -0.00816414 -0.0188124 1.35502e-12 0 6.51293e-06
998 23 0.001 0.0273343 0.00298131 -0.0376777 -0.00228528 -0.0203798 -1.22038e-12 0 6.51293e-06
1249 26 0.001 0.0464449 0.00294819 -0.0372038 0.00379473 -0.0201534 -7.18731e-13 0 6.51293e-06
1248 26 0.001 0.0473343 0.00298131 -0.0376777 -0.00228528 -0.0203798 -1.56705e-12 0 6.51293e-06
1247 26 0.001 0.0481943 0.00275202 -0.0381517 -0.00816414 -0.0188124 2.09546e-12 0 6.51293e-06
42 13 0.001 -0.0556451 0.00141542 -0.035782 0.0180815 -0.00967561 1.75565e-12 0 6.51293e-06
252 14 0.001 -0.0356451 0.00141542 -0.035782 0.0180815 -0.00967561 1.78364e-12 0 6.51293e-06
502 17 0.001 -0.0156451 0.00141542 -0.035782 0.0180815 -0.00967561 1.76491e-12 0 6.51293e-06
752 20 0.001 0.00435489 0.00141542 -0.035782 0.0180815 -0.00967561 1.82883e-12 0 6.51293e-06
1002 23 0.001 0.0243549 0.00141542 -0.035782 0.0180815 -0.00967561 1.73368e-12 0 6.51293e-06
1252 26 0.001 0.0443549 0.00141542 -0.035782 0.0180815 -0.00967561 1.75654e-12 0 6.51293e-06
40 13 0.001 -0.0543957 0.00265557 -0.0367299 0.00954073 -0.0181531 3.13043e-12 0 6.51293e-06
41 13 0.001 -0.0551134 0.0021292 -0.0362559 0.014447 -0.0145549 -3.51275e-12 0 6.51293e-06
251 14 0.001 -0.0351134 0.0021292 -0.0362559 0.014447 -0.0145549 -3.07992e-12 0 6.51293e-06
250 14 0.001 -0.0343957 0.00265557 -0.0367299 0.00954073 -0.0181531 2.40614e-12 0 6.51293e-06
501 17 0.001 -0.0151134 0.0021292 -0.0362559 0.014447 -0.0145549 -3.28736e-12 0 6.51293e-06
500 17 0.001 -0.0143957 0.00265557 -0.0367299 0.00954073 -0.0181531 2.68787e-12 0 6.51293e-06
750 20 0.001 0.00560431 0.00265557 -0.0367299 0.00954073 -0.0181531 2.828e-12 0 6.51293e-06
751 20 0.001 0.00488659 0.0021292 -0.0362559 0.014447 -0.0145549 -3.36061e-12 0 6.51293e-06
1001 23 0.001 0.0248866 0.0021292 -0.0362559 0.014447 -0.0145549 -2.87812e-12 0 6.51293e-06
1000 23 0.001 0.0256043 0.00265557 -0.0367299 0.00954073 -0.0181531 2.07208e-12 0 6.51293e-06
1251 26 0.001 0.0448866 0.0021292 -0.0362559 0.014447 -0.0145549 -3.51264e-12 0 6.51293e-06
1250 26 0.001 0.0456043 0.00265557 -0.0367299 0.00954073 -0.0181531 3.13057e-12 0 6.51293e-06
44 13 0.001 -0.0559837 -0.000312105 -0.0348341 0.0203963 0.0021335 -4.66731e-13 0 6.51293e-06
45 13 0.001 -0.0557608 -0.00117379 -0.0343602 0.0188727 0.00802387 -8.64031e-13 0 6.51293e-06
254 14 0.001 -0.0359837 -0.000312105 -0.0348341 0.0203963 0.0021335 -4.55323e-13 0 6.51293e-06
255 14 0.001 -0.0357608 -0.00117379 -0.0343602 0.0188727 0.00802387 -7.83207e-13 0 6.51293e-06
504 17 0.001 -0.0159837 -0.000312105 -0.0348341 0.0203963 0.0021335 -3.71269e-13 0 6.51293e-06
505 17 0.001 -0.0157608 -0.00117379 -0.0343602 0.0188727 0.00802387 -9.14838e-13 0 6.51293e-06
754 20 0.001 0.00401628 -0.000312105 -0.0348341 0.0203963 0.0021335 -4.22731e-13 0 6.51293e-06
755 20 0.001 0.00423916 -0.00117379 -0.0343602 0.0188727 0.00802387 -7.57509e-13 0 6.51293e-06
1004 23 0.001 0.0240163 -0.000312105 -0.0348341 0.0203963 0.0021335 -3.91118e-13 0 6.51293e-06
1005 23 0.001 0.0242392 -0.00117379 -0.0343602 0.0188727 0.00802387 -8.54442e-13 0 6.51293e-06
1254 26 0.001 0.0440163 -0.000312105 -0.0348341 0.0203963 0.0021335 -4.66731e-13 0 6.51293e-06
1255 26 0.001 0.0442392 -0.00117379 -0.0343602 0.0188727 0.00802387 -8.64031e-13 0 6.51293e-06
43 13 0.001 -0.055944 0.000577055 -0.0353081 0.0201246 -0.00394466 1.64587e-13 0 6.51293e-06
253 14 0.001 -0.035944 0.000577055 -0.0353081 0.0201246 -0.00394466 4.14807e-14 0 6.51293e-06
503 17 0.001 -0.015944 0.000577055 -0.0353081 0.0201246 -0.00394466 1.18561e-13 0 6.51293e-06
753 20 0.001 0.00405602 0.000577055 -0.0353081 0.0201246 -0.00394466 5.91992e-14 0 6.51293e-06
1003 23 0.001 0.024056 0.000577055 -0.0353081 0.0201246 -0.00394466 3.78621e-14 0 6.51293e-06
1253 26 0.001 0.044056 0.000577055 -0.0353081 0.0201246 -0.00394466 1.64587e-13 0 6.51293e-06
46 13 0.001 -0.0552949 -0.00193216 -0.0338863 0.0156879 0.013208 2.40201e-12 0 6.51293e-06
47 13 0.001 -0.054627 -0.00252046 -0.0334123 0.0111222 0.0172295 -2.66084e-12 0 6.51293e-06
48 13 0.001 -0.0538159 -0.00288691 -0.0329384 0.0055776 0.0197345 1.53608e-12 0 6.51293e-06
49 13 0.001 -0.052933 -0.00299925 -0.0324645 -0.000457969 0.0205024 -4.83492e-13 0 6.51293e-06
256 14 0.001 -0.0352949 -0.00193216 -0.0338863 0.0156879 0.013208 2.04926e-12 0 6.51293e-06
257 14 0.001 -0.034627 -0.00252046 -0.0334123 0.0111222 0.0172295 -1.90496e-12 0 6.51293e-06
258 14 0.001 -0.0338159 -0.00288691 -0.0329384 0.0055776 0.0197345 5.7996e-13 0 6.51293e-06
259 14 0.001 -0.032933 -0.00299925 -0.0324645 -0.000457969 0.0205024 5.91163e-13 0 6.51293e-06
506 17 0.001 -0.0152949 -0.00193216 -0.0338863 0.0156879 0.013208 2.11887e-12 0 6.51293e-06
507 17 0.001 -0.014627 -0.00252046 -0.0334123 0.0111222 0.0172295 -2.19853e-12 0 6.51293e-06
508 17 0.001 -0.0138159 -0.00288691 -0.0329384 0.0055776 0.0197345 1.3992e-12 0 6.51293e-06
509 17 0.001 -0.012933 -0.00299925 -0.0324645 -0.000457969 0.0205024 -5.59768e-13 0 6.51293e-06
756 20 0.001 0.00470506 -0.00193216 -0.0338863 0.0156879 0.013208 2.02255e-12 0 6.51293e-06
757 20 0.001 0.00537296 -0.00252046 -0.0334123 0.0111222 0.0172295 -2.1887e-12 0 6.51293e-06
758 20 0.001 0.00618407 -0.00288691 -0.0329384 0.0055776 0.0197345 1.34395e-12 0 6.51293e-06
759 20 0.001 0.007067 -0.00299925 -0.0324645 -0.000457969 0.0205024 -4.5363e-13 0 6.51293e-06
1006 23 0.001 0.0247051 -0.00193216 -0.0338863 0.0156879 0.013208 2.09933e-12 0 6.51293e-06
1007 23 0.001 0.025373 -0.00252046 -0.0334123 0.0111222 0.0172295 -2.17277e-12 0 6.51293e-06
1008 23 0.001 0.0261841 -0.00288691 -0.0329384 0.0055776 0.0197345 1.21785e-12 0 6.51293e-06
1009 23 0.001 0.027067 -0.00299925 -0.0324645 -0.000457969 0.0205024 -5.96502e-14 0 6.51293e-06
1256 26 0.001 0.0447051 -0.00193216 -0.0338863 0.0156879 0.013208 2.40201e-12 0 6.51293e-06
1257 26 0.001 0.045373 -0.00252046 -0.0334123 0.0111222 0.0172295 -2.66084e-12 0 6.51293e-06
1258 26 0.001 0.0461841 -0.00288691 -0.0329384 0.0055776 0.0197345 1.53608e-12 0 6.51293e-06
1259 26 0.001 0.047067 -0.00299925 -0.0324645 -0.000457969 0.0205024 -4.83492e-13 0 6.51293e-06
50 13 0.001 -0.052056 -0.0028476 -0.0319905 -0.00645323 0.0194658 8.07885e-13 0 6.51293e-06
51 13 0.001 -0.051262 -0.0024453 -0.0315166 -0.0118805 0.0167157 -1.99117e-12 0 6.51293e-06
52 13 0.001 -0.0506211 -0.00182776 -0.0310427 -0.016262 0.0124943 2.62664e-12 0 6.51293e-06
260 14 0.001 -0.032056 -0.0028476 -0.0319905 -0.00645323 0.0194658 -6.27113e-13 0 6.51293e-06
261 14 0.001 -0.031262 -0.0024453 -0.0315166 -0.0118805 0.0167157 -3.39916e-13 0 6.51293e-06
262 14 0.001 -0.0306211 -0.00182776 -0.0310427 -0.016262 0.0124943 1.42608e-12 0 6.51293e-06
510 17 0.001 -0.012056 -0.0028476 -0.0319905 -0.00645323 0.0194658 4.27519e-13 0 6.51293e-06
511 17 0.001 -0.011262 -0.0024453 -0.0315166 -0.0118805 0.0167157 -1.10473e-12 0 6.51293e-06
512 17 0.001 -0.0106211 -0.00182776 -0.0310427 -0.016262 0.0124943 1.85024e-12 0 6.51293e-06
760 20 0.001 0.00794403 -0.0028476 -0.0319905 -0.00645323 0.0194658 3.62238e-13 0 6.51293e-06
761 20 0.001 0.00873796 -0.0024453 -0.0315166 -0.0118805 0.0167157 -1.09141e-12 0 6.51293e-06
762 20 0.001 0.00937893 -0.00182776 -0.0310427 -0.016262 0.0124943 1.85024e-12 0 6.51293e-06
1010 23 0.001 0.027944 -0.0028476 -0.0319905 -0.00645323 0.0194658 -3.23356e-13 0 6.51293e-06
1011 23 0.001 0.028738 -0.0024453 -0.0315166 -0.0118805 0.0167157 -3.9143e-13 0 6.51293e-06
1012 23 0.001 0.0293789 -0.00182776 -0.0310427 -0.016262 0.0124943 1.42608e-12 0 6.51293e-06
1260 26 0.001 0.047944 -0.0028476 -0.0319905 -0.00645323 0.0194658 8.07885e-13 0 6.51293e-06
1261 26 0.001 0.048738 -0.0024453 -0.0315166 -0.0118805 0.0167157 -1.99117e-12 0 6.51293e-06
1262 26 0.001 0.0493789 -0.00182776 -0.0310427 -0.016262 0.0124943 2.62664e-12 0 6.51293e-06
53 13 0.001 -0.0501895 -0.00104934 -0.0305687 -0.0192121 0.00717316 -2.17068e-12 0 6.51293e-06
54 13 0.001 -0.0500053 -0.000178563 -0.0300948 -0.0204712 0.00122063 8.02136e-13 0 6.51293e-06
263 14 0.001 -0.0301895 -0.00104934 -0.0305687 -0.0192121 0.00717316 -1.69794e-12 0 6.51293e-06
264 14 0.001 -0.0300053 -0.000178563 -0.0300948 -0.0204712 0.00122063 7.80279e-13 0 6.51293e-06
513 17 0.001 -0.0101895 -0.00104934 -0.0305687 -0.0192121 0.00717316 -1.81658e-12 0 6.51293e-06
514 17 0.001 -0.0100053 -0.000178563 -0.0300948 -0.0204712 0.00122063 8.13329e-13 0 6.51293e-06
763 20 0.001 0.00981049 -0.00104934 -0.0305687 -0.0192121 0.00717316 -1.81658e-12 0 6.51293e-06
764 20 0.001 0.00999468 -0.000178563 -0.0300948 -0.0204712 0.00122063 8.13329e-13 0 6.51293e-06
1013 23 0.001 0.0298105 -0.00104934 -0.0305687 -0.0192121 0.00717316 -1.69794e-12 0 6.51293e-06
1014 23 0.001 0.0299947 -0.000178563 -0.0300948 -0.0204712 0.00122063 7.80279e-13 0 6.51293e-06