ITEM: TIMESTEP
14
ITEM: NUMBER OF ATOMS
1472
ITEM: BOX BOUNDS ff ff ff
-6.0000000000000005e-02 6.0000000000000005e-02
-6.0000000000000001e-03 6.0000000000000001e-03
-5.5000000000000000e-02 5.5000000000000000e-02
ITEM: ATOMS id type radius x y z fx fy fz c_bendingE c_stretchingE
1 1 0.001 -0.0486412 -0.000175864 -0.0497774 -20.4098 7.45437 -14.0532 0 0.00420361
13 13 0.001 -0.0495332 -0.00017702 -0.0488043 0.618546 20.3528 10.3703 0 0.0114583
433 15 0.001 -0.0509215 0.00053823 -0.049633 31.1134 -9.51581 2.04055 0 0.0197563
434 15 0.001 -0.0471461 9.70577e-05 -0.0494405 -11.6906 -7.91583 -20.0936 0 0.0324125
435 15 0.001 -0.0476856 -0.000535504 -0.0532302 9.82606 10.1473 47.62 0 0.0462645
436 15 0.001 -0.0457136 0.00035953 -0.0488861 -2.80382 -9.77755 -20.79 0 0.0405195
437 15 0.001 -0.0426455 -0.000177627 -0.047723 -21.873 4.56165 -29.7596 0 0.0348321
438 15 0.001 -0.0434483 8.72754e-05 -0.0521042 6.86312 -10.1905 51.6903 0 0.0439648
439 15 0.001 -0.0433173 -0.000224513 -0.0479558 11.1059 1.14262 -48.8388 0 0.0409176
440 15 0.001 -0.0429243 -0.000204653 -0.0521701 3.77105 -4.7522 44.858 0 0.0382541
441 15 0.001 -0.0429132 -0.00137428 -0.0484051 8.69974 33.2772 -21.9235 0 0.0505775
442 15 0.001 -0.0398885 0.00263699 -0.0491726 -10.9825 -40.0659 -9.28124 0 0.0540784
443 15 0.001 -0.0384436 -9.65748e-05 -0.0520567 -25.131 11.9874 34.8125 0 0.0431938
444 15 0.001 -0.0398561 -0.000754814 -0.048003 7.68992 13.8021 -52.6686 0 0.0492966
445 15 0.001 -0.0396102 0.000423292 -0.0525192 32.1624 -4.73651 36.8127 0 0.0563519
446 15 0.001 -0.0354519 -2.82245e-05 -0.0500876 -24.6158 -6.64708 5.66969 0 0.0365428
447 15 0.001 -0.0334921 -0.000584307 -0.0480532 -11.7911 10.5658 -29.0895 0 0.0160385
448 15 0.001 -0.0339185 0.000296941 -0.0509945 -26.7815 -4.97559 12.0227 0 0.0120117
449 15 0.001 -0.0348031 -0.00024191 -0.0490169 26.0702 1.76282 -14.5837 0 0.0136268
450 15 0.001 -0.0349731 0.000356609 -0.0522422 10.1808 4.72229 27.6798 0 0.0137941
451 15 0.001 -0.0336064 0.000353315 -0.0504351 19.0331 -15.8119 -0.308302 0 0.0232784
223 14 0.001 -0.0289545 0.000135294 -0.048058 -18.7876 -0.20792 -2.29847 0 0.0163123
452 15 0.001 -0.0304624 -0.000507315 -0.0478491 -10.369 4.75999 -15.7051 0 0.0266564
3 3 0.001 -0.0282467 -0.00158346 -0.0492091 -19.777 33.8154 -7.08442 0 0.025448
683 18 0.001 -0.0308829 0.000251399 -0.0512685 32.5626 -10.2075 27.2387 0 0.0357622
684 18 0.001 -0.0279546 -4.17675e-05 -0.0483415 -14.1575 -2.84089 -42.0503 0 0.0478676
685 18 0.001 -0.0275688 0.000167174 -0.0530662 2.5779 -3.90609 54.6598 0 0.0524314
686 18 0.001 -0.0250934 -4.51354e-05 -0.0493183 9.77988 -3.11912 -30.1303 0 0.0305201
687 18 0.001 -0.0229874 -0.000281882 -0.0475929 -22.8015 1.2256 -24.2221 0 0.0312291
688 18 0.001 -0.0236031 0.000260877 -0.0520656 6.18535 -11.3816 51.5164 0 0.0449096
689 18 0.001 -0.0232127 -0.000364464 -0.0479889 4.0874 3.86458 -47.9498 0 0.0403524
690 18 0.001 -0.0229017 -0.000291558 -0.0521841 0.827718 -5.43788 45.716 0 0.0359338
691 18 0.001 -0.0233472 -0.00106937 -0.048526 20.2638 30.3259 -20.7408 0 0.0498362
692 18 0.001 -0.0192947 0.00210614 -0.0488564 -19.0257 -33.9188 -14.1412 0 0.0517789
693 18 0.001 -0.0185489 0.000103522 -0.0521639 -20.4591 8.27528 37.6925 0 0.0397658
694 18 0.001 -0.0198576 -0.000602721 -0.0480733 7.85045 15.5509 -52.1455 0 0.049104
695 18 0.001 -0.0195589 0.00049897 -0.0525829 32.5136 -7.09944 36.0119 0 0.0541962
696 18 0.001 -0.0156891 -0.000124837 -0.0499613 -26.4284 -1.0692 12.1665 0 0.0355843
697 18 0.001 -0.0134011 -0.00055172 -0.0480804 -13.8545 7.9126 -34.0102 0 0.0168647
698 18 0.001 -0.0138853 0.000312867 -0.0510112 -22.8971 -4.32301 11.1963 0 0.0123428
699 18 0.001 -0.0148509 -0.000206094 -0.0489811 25.7696 1.23987 -15.2736 0 0.0148598
700 18 0.001 -0.0149901 0.000401149 -0.0522996 8.55289 0.216023 31.2868 0 0.0152437
701 18 0.001 -0.0135577 0.000251921 -0.0504067 22.7263 -8.58679 -4.76166 0 0.0234817
702 18 0.001 -0.0103878 -0.000487772 -0.047866 -12.6923 2.42173 -12.8102 0 0.0252214
5 5 0.001 -0.00816865 -0.00134706 -0.0490635 -20.4674 30.5352 -9.87932 0 0.0237354
473 17 0.001 -0.00898976 9.11531e-05 -0.0481303 -18.9276 1.35362 -1.04364 0 0.0150992
933 21 0.001 -0.0109152 0.000241717 -0.0512658 33.0999 -8.78581 28.3507 0 0.0357021
934 21 0.001 -0.008058 -7.16009e-06 -0.0483313 -17.0236 -2.10211 -41.498 0 0.0451773
935 21 0.001 -0.00769405 0.000251153 -0.0529105 18.4703 -11.2985 43.7631 0 0.0508331
936 21 0.001 -0.00465637 -0.000191898 -0.0495756 -21.1484 13.4548 -2.08984 0 0.0297947
937 21 0.001 -0.00317496 -0.000248431 -0.0475063 5.9759 -2.25285 -42.8879 0 0.0306672
938 21 0.001 -0.00367804 0.000400816 -0.0520267 4.36003 -8.00403 52.5294 0 0.0454159
939 21 0.001 -0.00319222 -0.000178666 -0.0479665 -14.574 4.82803 -46.8933 0 0.0374342
940 21 0.001 -0.003404 0.000232876 -0.0519226 -1.64987 -3.29613 48.7159 0 0.0382684
941 21 0.001 -0.00415185 -7.71924e-05 -0.047805 30.98 0.478328 -30.2331 0 0.0443884
942 21 0.001 -2.38476e-05 -0.000250843 -0.0494884 -5.51414 3.80768 -16.527 0 0.0540197
943 21 0.001 0.00305331 -1.65142e-05 -0.0532717 -31.3993 -1.58674 64.2908 0 0.0899162
944 21 0.001 0.00100469 2.22689e-06 -0.0471169 -0.586985 0.303174 -63.8717 0 0.0772933
945 21 0.001 -0.000758381 7.08865e-05 -0.0506525 42.5943 -1.93743 5.67608 0 0.0589512
946 21 0.001 0.00427043 -4.85489e-05 -0.0530326 -27.3022 2.07062 62.4092 0 0.112121
947 21 0.001 0.00490731 0.000107558 -0.0461009 -6.48866 -2.51768 -97.5837 0 0.151548
948 21 0.001 0.00401808 -4.52433e-05 -0.0534302 20.6567 1.1218 96.0997 0 0.156708
949 21 0.001 0.00586348 6.46853e-06 -0.0464941 9.6305 -0.742564 -79.5535 0 0.127851
950 21 0.001 0.00743303 1.17447e-05 -0.0524056 2.55458 0.179783 58.6066 0 0.060873
951 21 0.001 0.00673649 2.65682e-06 -0.0493963 -18.6948 -6.33162 -25.7824 0 0.0143021
7 7 0.001 0.01 0 -0.05 10.572 -25.9878 12.5738 0 0.00988279
723 20 0.001 0.0111622 -0.00018199 -0.0476359 -21.0686 15.2586 -14.6918 0 0.021326
952 21 0.001 0.00934759 -4.11867e-05 -0.0498186 -14.2676 33.9939 11.6986 0 0.00567215
1183 24 0.001 0.0104218 1.3522e-05 -0.0475945 11.1097 -0.176968 -27.8539 0 0.0195815
1184 24 0.001 0.012883 -3.80116e-06 -0.0504441 -15.5031 0.131971 7.60088 0 0.0179483
1185 24 0.001 0.0123188 -4.27008e-06 -0.0524933 6.74605 0.0535035 45.2245 0 0.0450184
1186 24 0.001 0.013022 2.83474e-06 -0.0469226 16.2046 -0.183613 -54.9152 0 0.0684711
1187 24 0.001 0.0162703 -3.91119e-06 -0.050197 -6.94811 0.260421 14.0421 0 0.0292807
1188 24 0.001 0.0171376 8.61174e-06 -0.0522763 -3.8472 0.409223 39.195 0 0.0315864
1189 24 0.001 0.0157767 -1.7263e-05 -0.0477048 19.5713 0.392335 -52.6313 0 0.051536
1190 24 0.001 0.0171913 2.42402e-05 -0.0518757 2.33188 -1.1189 31.1183 0 0.0503598
1191 24 0.001 0.0198424 -6.0416e-06 -0.0480067 -6.14662 0.266617 -39.8643 0 0.0539159
1192 24 0.001 0.0202262 -1.80887e-05 -0.0526491 -11.7242 0.331972 64.1351 0 0.072164
1193 24 0.001 0.0204757 2.7892e-05 -0.0468769 -4.49002 -0.845968 -81.8994 0 0.111004
1194 24 0.001 0.021097 -3.32715e-05 -0.0535922 2.05405 0.864398 95.416 0 0.149347
1195 24 0.001 0.0215284 3.52004e-05 -0.0461082 2.88792 -0.885432 -98.6806 0 0.160622
1196 24 0.001 0.022225 -2.99478e-05 -0.0532949 13.5279 0.736419 80.6912 0 0.133481
1197 24 0.001 0.0250534 1.77976e-05 -0.047624 -20.1036 -0.609439 -70.6853 0 0.0950495
1198 24 0.001 0.0237887 -1.39184e-05 -0.052864 21.2499 0.447494 72.7426 0 0.0950101
1199 24 0.001 0.0256852 1.57323e-05 -0.0468191 -6.99415 -0.375639 -61.6834 0 0.0860427
1200 24 0.001 0.0265192 -2.35721e-05 -0.0515875 14.1119 4.79234 -14.9902 0 0.0302473
1201 24 0.001 0.027815 1.07584e-05 -0.050625 -47.8084 -7.97892 68.5608 0 0.00438101
9 9 0.001 0.03 0 -0.05 5.33581 0.3061 21.1936 0 0.00779132
973 23 0.001 0.0311622 -0.00018199 -0.0476359 -21.0686 15.2586 -14.6918 0 0.021326
1202 24 0.001 0.0295045 2.23334e-05 -0.0490327 15.9872 4.0269 -24.924 0 0.00359988
1433 27 0.001 0.0303016 -0.00146287 -0.0485887 7.16413 8.1844 -17.7372 0 0.0100091
1434 27 0.001 0.0324668 -0.000164011 -0.0501205 3.73194 7.7922 3.38665 0 0.0122589
1435 27 0.001 0.0318799 0.00218186 -0.0507321 1.68573 -35.2546 0.04003 0 0.0232157
1436 27 0.001 0.0332187 -0.00162476 -0.0511144 9.84239 24.9566 -1.47527 0 0.0293585
1437 27 0.001 0.0355673 -0.000486775 -0.0490873 -15.4289 -7.37011 3.21784 0 0.0108805
1438 27 0.001 0.0360595 0.00024347 -0.0481532 13.2209 5.08952 -14.0416 0 0.0143398
1439 27 0.001 0.0370413 -0.000115726 -0.0516556 -8.51288 1.7349 19.5066 0 0.0239698
1440 27 0.001 0.0400572 0.000774997 -0.0510243 -24.165 -20.4938 29.8599 0 0.0495233
1441 27 0.001 0.0370605 -0.000730643 -0.0467099 35.491 16.5957 -51.0283 0 0.06956
1442 27 0.001 0.0401607 5.43344e-05 -0.0503802 -12.916 0.0819616 7.88382 0 0.0389299
1443 27 0.001 0.0423368 0.000529825 -0.0525663 -18.8669 -6.37268 36.2688 0 0.0337652
1444 27 0.001 0.0416256 -0.000377598 -0.0482007 -3.71623 3.95856 -56.665 0 0.0523745
1445 27 0.001 0.0407146 0.000638656 -0.0527229 13.4912 -12.995 55.896 0 0.055146
1446 27 0.001 0.0416025 -0.00040002 -0.0482168 31.9692 15.614 -32.2792 0 0.0736662
1447 27 0.001 0.0473453 -0.000197301 -0.0491276 -51.0815 0.398977 -2.57664 0 0.0512212
1448 27 0.001 0.0465132 0.000368502 -0.0514932 -17.7837 -3.42683 10.3741 0 0.0140716
1449 27 0.001 0.0450149 -0.00022744 -0.0488237 16.8733 4.78503 -18.5377 0 0.0195156
1450 27 0.001 0.0447303 0.000359512 -0.0520375 27.9843 -5.51493 21.0929 0 0.0170945
1451 27 0.001 0.0473265 0.000141364 -0.0509854 -3.31275 3.21051 9.80703 0 0.0163308
1452 27 0.001 0.0491047 -5.87203e-05 -0.0483401 -9.6996 -2.24844 17.792 0 0.0422702
11 11 0.001 0.0491398 -0.000268165 -0.0433032 4.90961 5.63704 -75.0954 0 0.0925629
1223 26 0.001 0.0503406 -7.62735e-05 -0.049682 -19.8349 19.0236 31.1309 0 0.0727315
14 13 0.001 -0.0514035 0.00256212 -0.0482566 9.70584 -17.6457 -16.4962 0 0.0167445
224 14 0.001 -0.0316356 0.00249733 -0.0483488 26.9241 -6.44297 -12.5971 0 0.0198945
474 17 0.001 -0.0116505 0.00248525 -0.0483118 26.5381 -7.34761 -13.1317 0 0.0201383
724 20 0.001 0.00851046 0.00251915 -0.0480894 19.8084 -17.3353 -12.6634 0 0.0232121
974 23 0.001 0.0285105 0.00251915 -0.0480894 19.8084 -17.3353 -12.6634 0 0.0232121
1224 26 0.001 0.0484518 0.00252982 -0.0482615 13.439 -9.08677 -10.553 0 0.0191633
17 13 0.001 -0.051646 0.00427202 -0.0484295 -9.92522 -21.9542 9.85289 0 0.0299958
15 13 0.001 -0.0508637 0.00148233 -0.0506145 9.56362 9.71473 34.6435 0 0.02153
16 13 0.001 -0.0489588 0.00207498 -0.0473503 -19.9745 10.6995 -25.0732 0 0.0299467
226 14 0.001 -0.029045 0.00221034 -0.0472801 -16.9354 10.0456 -27.7309 0 0.0295891
227 14 0.001 -0.0317303 0.00415971 -0.0484175 -10.7504 -21.8604 11.9187 0 0.0282057
225 14 0.001 -0.0306345 0.00163695 -0.0508042 -5.00712 0.849141 36.1299 0 0.0234248
477 17 0.001 -0.0117261 0.00415922 -0.0484182 -10.8367 -21.9304 11.9966 0 0.0282192
475 17 0.001 -0.0106136 0.001641 -0.0507981 -4.64535 1.86618 36.0484 0 0.0234947
476 17 0.001 -0.00903949 0.0022104 -0.0472842 -16.7566 10.0495 -27.6407 0 0.0293991
727 20 0.001 0.00895199 0.00441708 -0.0462803 -20.3805 -10.4217 -32.6289 0 0.0585773
725 20 0.001 0.00883384 0.00140407 -0.0507542 5.09092 3.52631 32.9804 0 0.0201466
726 20 0.001 0.0107093 0.00155145 -0.0477752 -22.2799 9.91091 -3.34642 0 0.0271978
976 23 0.001 0.0307093 0.00155145 -0.0477752 -22.2799 9.91091 -3.34642 0 0.0271978
977 23 0.001 0.028952 0.00441708 -0.0462803 -20.3805 -10.4217 -32.6289 0 0.0585773
975 23 0.001 0.0288338 0.00140407 -0.0507542 5.09092 3.52631 32.9804 0 0.0201466
1227 26 0.001 0.0482588 0.00415612 -0.0484301 -10.5002 -21.4688 11.3306 0 0.0285211
1225 26 0.001 0.0492145 0.00146606 -0.0507146 7.31232 -6.84398 44.1642 0 0.0235159
1226 26 0.001 0.0509441 0.00217977 -0.0472692 -18.3511 9.18341 -27.3691 0 0.0299596
19 13 0.001 -0.0566894 0.000869511 -0.0451471 38.0518 33.7799 -28.2341 0 0.029372
20 13 0.001 -0.0559351 9.30817e-05 -0.0442112 -5.99348 -6.66726 -7.02011 0 0.00913904
18 13 0.001 -0.0554637 0.00400622 -0.0485804 14.1784 -14.3959 16.3325 0 0.045018
230 14 0.001 -0.0359396 8.05946e-05 -0.0441957 -6.73751 -5.11061 -6.64102 0 0.00923016
228 14 0.001 -0.0355072 0.0039847 -0.0486131 14.1861 -13.5599 16.0791 0 0.0445836
229 14 0.001 -0.0366746 0.000906238 -0.0451024 37.934 31.3045 -29.4176 0 0.0294252
480 17 0.001 -0.0159395 8.15635e-05 -0.0441968 -6.67543 -5.21019 -6.68259 0 0.00922493
478 17 0.001 -0.0155049 0.00398625 -0.0486116 14.1847 -13.6136 15.9829 0 0.0446006
479 17 0.001 -0.0166765 0.000905133 -0.0451048 37.923 31.4668 -29.3147 0 0.0294252
729 20 0.001 0.00332588 0.00025075 -0.0454435 23.9544 51.1923 -39.939 0 0.055894
730 20 0.001 0.00415431 0.00038232 -0.0443327 13.4434 -6.705 0.440314 0 0.00778425
728 20 0.001 0.0044511 0.00465253 -0.0497869 22.0275 -28.2331 49.8209 0 0.0997235
980 23 0.001 0.0241543 0.00038232 -0.0443327 13.4434 -6.705 0.440314 0 0.00778425
978 23 0.001 0.0244511 0.00465253 -0.0497869 22.0275 -28.2331 49.8209 0 0.0997235
979 23 0.001 0.0233259 0.00025075 -0.0454435 23.9544 51.1923 -39.939 0 0.055894
1230 26 0.001 0.0440652 6.46337e-05 -0.0441838 -7.46105 -3.64051 -6.30436 0 0.00931254
1228 26 0.001 0.044475 0.00398867 -0.0486518 14.438 -13.318 17.4129 0 0.0450612
1229 26 0.001 0.0433543 0.000924277 -0.0450789 37.9834 29.2309 -30.6698 0 0.0298157
23 13 0.001 -0.0543799 -0.000694431 -0.0427999 -11.5936 0.783121 -42.351 0 0.0500521
233 14 0.001 -0.0343798 -0.000695094 -0.0428006 -11.659 0.816975 -42.3409 0 0.0500899
483 17 0.001 -0.0143798 -0.000695042 -0.0428005 -11.6568 0.815214 -42.3414 0 0.050088
733 20 0.001 0.00562054 -0.000665179 -0.0427727 -12.0527 -0.359323 -42.2088 0 0.0486604
983 23 0.001 0.0256205 -0.000665179 -0.0427727 -12.0527 -0.359323 -42.2088 0 0.0486604
1233 26 0.001 0.0456206 -0.000695825 -0.0428011 -11.6581 0.831336 -42.3442 0 0.0501111
21 13 0.001 -0.0557985 0.00153112 -0.0469312 6.14159 -20.596 -6.66353 0 0.00873595
22 13 0.001 -0.0551509 0.00204044 -0.0463074 -22.7767 -5.41868 40.2856 0 0.0246806
231 14 0.001 -0.0357945 0.00152399 -0.0469252 7.19919 -20.9569 -5.90736 0 0.0088291
232 14 0.001 -0.0351499 0.00204374 -0.0463091 -23.0946 -4.59265 39.8564 0 0.0247232
481 17 0.001 -0.0157947 0.00152455 -0.0469256 7.16529 -20.9351 -5.95815 0 0.00882272
482 17 0.001 -0.0151501 0.00204359 -0.0463089 -23.0986 -4.63268 39.8895 0 0.0247209
731 20 0.001 0.00422246 0.00150769 -0.0470244 2.08389 -8.96822 -17.0939 0 0.00744828
732 20 0.001 0.00479457 0.00189096 -0.0462537 -21.7928 -26.0892 45.4574 0 0.0230755
981 23 0.001 0.0242225 0.00150769 -0.0470244 2.08389 -8.96822 -17.0939 0 0.00744828
982 23 0.001 0.0247946 0.00189096 -0.0462537 -21.7928 -26.0892 45.4574 0 0.0230755
1231 26 0.001 0.0442072 0.00151746 -0.0469194 7.57032 -21.2123 -5.23023 0 0.00891062
1232 26 0.001 0.0448539 0.00204541 -0.046311 -22.9489 -4.12157 39.4517 0 0.0247502
25 13 0.001 -0.0548629 -0.00101719 -0.0445419 6.48666 -19.391 14.6685 0 0.0295632
26 13 0.001 -0.0544827 -0.000763622 -0.0402835 -6.29369 -14.2927 -50.0664 0 0.0489011
235 14 0.001 -0.0348627 -0.00101728 -0.0445419 6.47857 -19.3944 14.6686 0 0.0295673
236 14 0.001 -0.0344826 -0.000763478 -0.0402835 -6.29423 -14.2945 -50.0683 0 0.0489038
485 17 0.001 -0.0148627 -0.00101727 -0.0445419 6.47888 -19.3942 14.6686 0 0.0295671
486 17 0.001 -0.0144826 -0.000763487 -0.0402835 -6.29424 -14.2943 -50.0681 0 0.0489036
735 20 0.001 0.00512869 -0.00101287 -0.0445408 6.81633 -19.241 14.6683 0 0.0293837
736 20 0.001 0.00551325 -0.000769802 -0.0402811 -6.26593 -14.2127 -49.9852 0 0.0487881
985 23 0.001 0.0251287 -0.00101287 -0.0445408 6.81633 -19.241 14.6683 0 0.0293837
986 23 0.001 0.0255132 -0.000769802 -0.0402811 -6.26593 -14.2127 -49.9852 0 0.0487881
1235 26 0.001 0.0451376 -0.00101739 -0.044542 6.47774 -19.3968 14.6676 0 0.0295703
1236 26 0.001 0.0455175 -0.000763375 -0.0402836 -6.29361 -14.2961 -50.0702 0 0.0489059
24 13 0.001 -0.0553707 -0.00328479 -0.046425 4.18473 28.7242 33.5379 0 0.033387
234 14 0.001 -0.0353714 -0.00328543 -0.046425 4.20372 28.7269 33.5335 0 0.0333863
484 17 0.001 -0.0153714 -0.00328539 -0.046425 4.20366 28.7265 33.5337 0 0.0333864
734 20 0.001 0.00465694 -0.00325629 -0.0464236 4.51246 28.3967 33.5648 0 0.0334072
984 23 0.001 0.0246569 -0.00325629 -0.0464236 4.51246 28.3967 33.5648 0 0.0334072
1234 26 0.001 0.0446277 -0.0032859 -0.0464249 4.1954 28.7344 33.5317 0 0.0333837
27 13 0.001 -0.0552628 -0.00223883 -0.0446781 24.3663 15.3721 31.8983 0 0.0495509
28 13 0.001 -0.0512695 -0.00338187 -0.0434466 -27.9115 16.0417 23.7944 0 0.0550558
29 13 0.001 -0.0529179 -0.00265616 -0.0387195 16.8389 9.40489 -35.5397 0 0.037875
30 13 0.001 -0.0527699 -0.00148919 -0.0410065 16.2589 -14.53 -14.0902 0 0.0410011
237 14 0.001 -0.0352628 -0.00223874 -0.0446783 24.3666 15.3717 31.9019 0 0.0495535
238 14 0.001 -0.0312696 -0.0033819 -0.0434465 -27.9089 16.0421 23.7909 0 0.0550525
239 14 0.001 -0.0329179 -0.00265614 -0.0387195 16.8374 9.40442 -35.539 0 0.0378721
240 14 0.001 -0.0327699 -0.00148918 -0.0410065 16.259 -14.5295 -14.0896 0 0.0410015
487 17 0.001 -0.0152628 -0.00223875 -0.0446783 24.3666 15.3718 31.9017 0 0.0495534
488 17 0.001 -0.0112696 -0.0033819 -0.0434465 -27.909 16.0421 23.7911 0 0.0550527
489 17 0.001 -0.0129179 -0.00265614 -0.0387195 16.8375 9.40445 -35.5391 0 0.0378723
490 17 0.001 -0.0127699 -0.00148918 -0.0410065 16.259 -14.5295 -14.0896 0 0.0410014
737 20 0.001 0.0047361 -0.0022424 -0.0446679 24.3511 15.3878 31.7445 0 0.0494417
738 20 0.001 0.00873747 -0.00338039 -0.0434534 -28.0232 16.0251 23.9415 0 0.0551997
739 20 0.001 0.00707958 -0.00265705 -0.0387208 16.9003 9.42476 -35.5698 0 0.0380016
740 20 0.001 0.00723039 -0.00148981 -0.0410075 16.2549 -14.5512 -14.1137 0 0.0409839
987 23 0.001 0.0247361 -0.0022424 -0.0446679 24.3511 15.3878 31.7445 0 0.0494417
988 23 0.001 0.0287375 -0.00338039 -0.0434534 -28.0232 16.0251 23.9415 0 0.0551997
989 23 0.001 0.0270796 -0.00265705 -0.0387208 16.9003 9.42475 -35.5698 0 0.0380016
990 23 0.001 0.0272304 -0.00148981 -0.0410075 16.2549 -14.5512 -14.1137 0 0.0409839
1237 26 0.001 0.0447372 -0.00223867 -0.0446785 24.3673 15.371 31.9048 0 0.0495556
1238 26 0.001 0.0487302 -0.00338193 -0.0434464 -27.907 16.0425 23.7883 0 0.0550503
1239 26 0.001 0.0470822 -0.00265612 -0.0387194 16.8364 9.40407 -35.5385 0 0.03787
1240 26 0.001 0.0472301 -0.00148917 -0.0410065 16.2591 -14.5291 -14.0892 0 0.0410018
31 13 0.001 -0.0487081 -0.00194617 -0.044299 -30.0842 1.60011 48.6962 0 0.0634719
241 14 0.001 -0.0287081 -0.00194617 -0.044299 -30.0847 1.59982 48.697 0 0.0634735
491 17 0.001 -0.00870807 -0.00194617 -0.044299 -30.0847 1.59984 48.6969 0 0.0634734
741 20 0.001 0.0112918 -0.00194632 -0.0442989 -30.0651 1.61254 48.6644 0 0.0634036
991 23 0.001 0.0312918 -0.00194632 -0.0442989 -30.0651 1.61254 48.6644 0 0.0634036
1241 26 0.001 0.0512919 -0.00194617 -0.044299 -30.085 1.59961 48.6975 0 0.0634747
32 13 0.001 -0.0499054 -0.00230406 -0.0397567 -4.43991 8.83575 -25.1145 0 0.0351262
33 13 0.001 -0.0516768 -0.000106972 -0.0389225 27.5344 9.22983 -4.84504 0 0.0299247
242 14 0.001 -0.0299054 -0.00230409 -0.0397567 -4.43937 8.83604 -25.1158 0 0.0351271
243 14 0.001 -0.0316768 -0.00010696 -0.0389226 27.5344 9.22979 -4.84243 0 0.0299234
492 17 0.001 -0.00990539 -0.00230409 -0.0397567 -4.43941 8.83603 -25.1157 0 0.0351271
493 17 0.001 -0.0116768 -0.00010696 -0.0389226 27.5344 9.2298 -4.84257 0 0.0299234
742 20 0.001 0.010096 -0.00230259 -0.0397597 -4.46292 8.82265 -25.0605 0 0.0350861
743 20 0.001 0.00832271 -0.000107504 -0.0389192 27.5364 9.23195 -4.95681 0 0.029981
992 23 0.001 0.030096 -0.00230259 -0.0397597 -4.46291 8.82265 -25.0605 0 0.0350861
993 23 0.001 0.0283227 -0.000107504 -0.0389192 27.5364 9.23197 -4.95684 0 0.029981
1242 26 0.001 0.0500946 -0.00230412 -0.0397566 -4.43898 8.83626 -25.1167 0 0.0351278
1243 26 0.001 0.0483233 -0.000106951 -0.0389226 27.5343 9.22977 -4.84054 0 0.0299224
34 13 0.001 -0.0495029 0.00276254 -0.0413448 -19.7334 -25.5093 22.0708 0 0.0289522
244 14 0.001 -0.0295028 0.0027625 -0.0413448 -19.734 -25.5072 22.0699 0 0.0289502
494 17 0.001 -0.00950284 0.0027625 -0.0413448 -19.734 -25.5072 22.07 0 0.0289503
744 20 0.001 0.0104954 0.00276432 -0.041346 -19.7085 -25.5974 22.1117 0 0.0290347
994 23 0.001 0.0304954 0.00276432 -0.041346 -19.7085 -25.5975 22.1117 0 0.0290347
1244 26 0.001 0.0504972 0.00276247 -0.0413448 -19.7344 -25.5057 22.0692 0 0.0289489
36 13 0.001 -0.0512431 0.00165386 -0.0364521 3.23742 -2.43712 -19.8255 0 0.0158558
35 13 0.001 -0.0501549 0.000611766 -0.0396526 -16.6001 11.7044 -8.56544 0 0.0195942
245 14 0.001 -0.0301549 0.000611865 -0.0396527 -16.5998 11.702 -8.56618 0 0.0195931
246 14 0.001 -0.0312431 0.00165381 -0.0364521 3.23622 -2.43596 -19.8256 0 0.0158559
496 17 0.001 -0.0112431 0.00165381 -0.0364521 3.23608 -2.43585 -19.8256 0 0.0158559
495 17 0.001 -0.0101549 0.000611864 -0.0396527 -16.6 11.7021 -8.56618 0 0.0195932
746 20 0.001 0.00875595 0.00165566 -0.0364528 3.28419 -2.48256 -19.82 0 0.0158547
745 20 0.001 0.00984765 0.000607638 -0.0396511 -16.6138 11.8078 -8.5358 0 0.0196402
995 23 0.001 0.0298477 0.000607633 -0.0396511 -16.6137 11.8079 -8.53578 0 0.0196402
996 23 0.001 0.028756 0.00165567 -0.0364528 3.28438 -2.48271 -19.82 0 0.0158546
1246 26 0.001 0.048757 0.00165379 -0.0364521 3.23555 -2.43528 -19.8257 0 0.0158558
1245 26 0.001 0.049845 0.000611933 -0.0396527 -16.5996 11.7002 -8.56668 0 0.0195924
38 13 0.001 -0.0535865 0.0038485 -0.0392648 8.39708 -2.79306 3.2604 0 0.0166499
39 13 0.001 -0.0529225 0.0028495 -0.0360648 16.4226 -21.4685 17.0538 0 0.0119598
37 13 0.001 -0.0514824 0.00273964 -0.0383413 -13.3513 -8.22153 24.8927 0 0.00781682
249 14 0.001 -0.0329224 0.00284948 -0.0360648 16.4214 -21.469 17.0549 0 0.0119599
247 14 0.001 -0.0314823 0.00273965 -0.0383414 -13.3496 -8.22256 24.8922 0 0.00781707
248 14 0.001 -0.0335865 0.0038485 -0.0392648 8.39678 -2.793 3.2607 0 0.01665
499 17 0.001 -0.0129224 0.00284947 -0.0360647 16.4196 -21.4685 17.0559 0 0.0119601
498 17 0.001 -0.0135865 0.0038485 -0.0392648 8.39667 -2.79348 3.26091 0 0.0166502
497 17 0.001 -0.0114823 0.00273965 -0.0383414 -13.3491 -8.22258 24.8922 0 0.00781714
748 20 0.001 0.00641346 0.00384855 -0.0392651 8.40541 -2.80702 3.25386 0 0.0166524
749 20 0.001 0.00707752 0.00284965 -0.0360649 16.4313 -21.453 17.0427 0 0.0119607
747 20 0.001 0.00851747 0.00273942 -0.0383409 -13.4074 -8.17902 24.9093 0 0.00780858
999 23 0.001 0.0270775 0.00284966 -0.0360649 16.4329 -21.4537 17.0419 0 0.0119605
997 23 0.001 0.0285175 0.00273941 -0.0383409 -13.4079 -8.17895 24.9093 0 0.0078085
998 23 0.001 0.0264135 0.00384855 -0.0392651 8.40548 -2.80666 3.2537 0 0.0166522
1249 26 0.001 0.0470775 0.00284949 -0.0360648 16.4222 -21.4691 17.0543 0 0.0119598
1248 26 0.001 0.0464135 0.00384849 -0.0392648 8.39674 -2.79252 3.26068 0 0.0166498
1247 26 0.001 0.0485177 0.00273965 -0.0383414 -13.349 -8.22325 24.892 0 0.00781716
42 13 0.001 -0.0556572 0.0014543 -0.0357159 -54.8521 -15.1444 -12.6782 0 0.00111025
252 14 0.001 -0.0356572 0.00145431 -0.0357159 -54.8256 -15.1446 -12.6808 0 0.00111032
502 17 0.001 -0.0156571 0.00145435 -0.0357158 -54.8369 -15.1261 -12.6718 0 0.00111051
752 20 0.001 0.00434275 0.0014543 -0.0357159 -54.838 -15.1503 -12.6805 0 0.00110991
1002 23 0.001 0.0243427 0.00145427 -0.035716 -54.8181 -15.1697 -12.6907 0 0.00110973
1252 26 0.001 0.0443428 0.0014543 -0.0357159 -54.8519 -15.1436 -12.6779 0 0.00111027
40 13 0.001 -0.0540333 0.00223751 -0.0363417 -9.3381 38.932 -40.884 0 0.00223971
41 13 0.001 -0.0558356 0.0022155 -0.0371861 27.702 -11.0752 6.4658 0 0.00297244
251 14 0.001 -0.0358356 0.00221549 -0.0371861 27.6916 -11.0711 6.46884 0 0.00297264
250 14 0.001 -0.0340333 0.00223752 -0.0363417 -9.33702 38.9305 -40.8859 0 0.00223979
501 17 0.001 -0.0158357 0.00221547 -0.0371861 27.6946 -11.0743 6.46336 0 0.0029731
500 17 0.001 -0.0140333 0.00223754 -0.0363417 -9.33647 38.9262 -40.8862 0 0.00224002
750 20 0.001 0.00596678 0.0022374 -0.0363417 -9.34764 38.9143 -40.8672 0 0.00223969
751 20 0.001 0.0041644 0.0022155 -0.037186 27.6989 -11.0699 6.46104 0 0.00297203
1001 23 0.001 0.0241644 0.00221552 -0.0371859 27.6925 -11.0653 6.46767 0 0.00297162
1000 23 0.001 0.0259668 0.00223739 -0.0363417 -9.34791 38.9182 -40.8674 0 0.00223948
1251 26 0.001 0.0441644 0.00221549 -0.0371861 27.7018 -11.0754 6.46594 0 0.00297248
1250 26 0.001 0.0459667 0.00223752 -0.0363417 -9.33767 38.9325 -40.8848 0 0.00223972
44 13 0.001 -0.0560544 -0.000513752 -0.0351866 -16.2115 52.4445 54.4811 0 0.000308734
45 13 0.001 -0.0557695 -0.00111556 -0.0342523 -11.3734 -101.811 -125.683 0 6.36587e-05
254 14 0.001 -0.0360544 -0.000513686 -0.0351865 -16.1806 52.4471 54.5288 0 0.000308422
255 14 0.001 -0.0357695 -0.00111564 -0.0342525 -11.4246 -101.839 -125.567 0 6.35482e-05
504 17 0.001 -0.0160544 -0.000513736 -0.0351866 -16.1908 52.442 54.5077 0 0.00030856
505 17 0.001 -0.0157695 -0.0011156 -0.0342524 -11.4242 -101.826 -125.574 0 6.35947e-05
754 20 0.001 0.00394557 -0.000513707 -0.0351865 -16.1835 52.4469 54.5103 0 0.00030853
755 20 0.001 0.00423052 -0.00111562 -0.0342525 -11.4244 -101.832 -125.572 0 6.35688e-05
1004 23 0.001 0.0239456 -0.000513636 -0.0351864 -16.1656 52.4532 54.5462 0 0.000308297
1005 23 0.001 0.0242305 -0.00111568 -0.0342526 -11.4341 -101.852 -125.543 0 6.34911e-05
1254 26 0.001 0.0439456 -0.000513753 -0.0351866 -16.2117 52.4443 54.4812 0 0.000308734
1255 26 0.001 0.0442305 -0.00111556 -0.0342523 -11.3734 -101.811 -125.682 0 6.36592e-05
43 13 0.001 -0.0556764 0.00067186 -0.034718 44.6522 12.7555 -9.16055 0 0.000419682
253 14 0.001 -0.0356764 0.000671821 -0.0347181 44.6205 12.7671 -9.18353 0 0.000419425
503 17 0.001 -0.0156765 0.000671831 -0.0347181 44.637 12.7516 -9.1816 0 0.000419483
753 20 0.001 0.00432357 0.000671848 -0.0347181 44.6293 12.7689 -9.17135 0 0.000419585
1003 23 0.001 0.0243236 0.000671826 -0.0347181 44.6033 12.7884 -9.18001 0 0.000419449
1253 26 0.001 0.0443236 0.000671859 -0.034718 44.6523 12.7549 -9.16099 0 0.000419677
46 13 0.001 -0.0552865 -0.00193505 -0.0339016 14.8946 72.8778 121.304 0 7.1646e-06
47 13 0.001 -0.0546231 -0.00251153 -0.0334094 7.48756 -25.6796 -40.956 0 6.05634e-06
48 13 0.001 -0.0538129 -0.0028783 -0.0329395 -4.66934 1.95266 9.51496 0 5.88921e-06
49 13 0.001 -0.0529337 -0.00299008 -0.0324636 1.39168 -0.227112 -2.66193 0 5.9028e-06
256 14 0.001 -0.0352865 -0.00193497 -0.0339014 15.0806 72.8074 120.91 0 7.15448e-06
257 14 0.001 -0.034623 -0.0025116 -0.0334096 7.18711 -25.5381 -40.3841 0 6.05468e-06
258 14 0.001 -0.0338131 -0.00287826 -0.0329392 -4.34325 1.8708 8.87046 0 5.88865e-06
259 14 0.001 -0.0329335 -0.00299007 -0.0324639 1.03972 -0.235196 -1.99799 0 5.90251e-06
506 17 0.001 -0.0152865 -0.00193498 -0.0339014 15.0676 72.8171 120.962 0 7.15651e-06
507 17 0.001 -0.014623 -0.0025116 -0.0334096 7.2133 -25.5548 -40.437 0 6.05492e-06
508 17 0.001 -0.0138131 -0.00287826 -0.0329392 -4.36104 1.87645 8.90619 0 5.88866e-06
509 17 0.001 -0.0129335 -0.00299007 -0.0324639 1.05381 -0.235373 -2.02477 0 5.90252e-06
756 20 0.001 0.00471347 -0.00193498 -0.0339014 15.0725 72.8118 120.937 0 7.15554e-06
757 20 0.001 0.00537703 -0.0025116 -0.0334096 7.20045 -25.5463 -40.41 0 6.05481e-06
758 20 0.001 0.00618694 -0.00287826 -0.0329392 -4.34942 1.87366 8.88335 0 5.88864e-06
759 20 0.001 0.00706651 -0.00299007 -0.0324639 1.04113 -0.236231 -2.00072 0 5.90252e-06
1006 23 0.001 0.0247134 -0.00193494 -0.0339013 15.1217 72.7879 120.803 0 7.15113e-06
1007 23 0.001 0.0253771 -0.00251162 -0.0334097 7.11794 -25.5014 -40.2501 0 6.05421e-06
1008 23 0.001 0.0261869 -0.00287825 -0.0329391 -4.28138 1.8527 8.74683 0 5.88857e-06
1009 23 0.001 0.0270665 -0.00299007 -0.032464 0.98431 -0.233418 -1.89359 0 5.90246e-06
1256 26 0.001 0.0447135 -0.00193505 -0.0339016 14.8947 72.8779 121.304 0 7.16462e-06
1257 26 0.001 0.0453769 -0.00251153 -0.0334094 7.48762 -25.6797 -40.9561 0 6.05634e-06
1258 26 0.001 0.0461871 -0.0028783 -0.0329395 -4.66936 1.95267 9.515 0 5.88921e-06
1259 26 0.001 0.0470663 -0.00299008 -0.0324636 1.39168 -0.227114 -2.66194 0 5.9028e-06
50 13 0.001 -0.0520585 -0.00283877 -0.0319913 -0.86631 -0.215764 1.6883 0 5.90064e-06
51 13 0.001 -0.0512677 -0.00243801 -0.0315159 0.609434 0.408385 -1.3855 0 5.90115e-06
52 13 0.001 -0.0506282 -0.00182195 -0.0310432 -0.407645 -0.443164 1.13434 0 5.90051e-06
260 14 0.001 -0.0320586 -0.00283883 -0.031991 -0.534033 -0.109003 1.02859 0 5.90041e-06
261 14 0.001 -0.0312675 -0.00243792 -0.0315162 0.338531 0.227461 -0.770915 0 5.90088e-06
262 14 0.001 -0.0306282 -0.00182206 -0.0310429 -0.224294 -0.226943 0.598837 0 5.90047e-06
510 17 0.001 -0.0120586 -0.00283882 -0.031991 -0.548295 -0.114761 1.05773 0 5.90042e-06
511 17 0.001 -0.0112675 -0.00243793 -0.0315162 0.354285 0.241107 -0.810263 0 5.90087e-06
512 17 0.001 -0.0106282 -0.00182205 -0.031043 -0.240085 -0.252305 0.655138 0 5.9005e-06
760 20 0.001 0.00794137 -0.00283883 -0.031991 -0.533346 -0.10848 1.02711 0 5.90041e-06
761 20 0.001 0.00873249 -0.00243792 -0.0315162 0.337634 0.22707 -0.769155 0 5.90088e-06
762 20 0.001 0.00937175 -0.00182206 -0.0310429 -0.224124 -0.22768 0.599778 0 5.90047e-06
1010 23 0.001 0.0279413 -0.00283883 -0.0319909 -0.490304 -0.097662 0.943309 0 5.90041e-06
1011 23 0.001 0.0287325 -0.00243792 -0.0315162 0.309334 0.210829 -0.70779 0 5.90084e-06
1012 23 0.001 0.0293717 -0.00182206 -0.0310429 -0.20876 -0.212387 0.55907 0 5.90049e-06
1260 26 0.001 0.0479415 -0.00283877 -0.0319913 -0.86631 -0.215764 1.6883 0 5.90064e-06
1261 26 0.001 0.0487323 -0.00243801 -0.0315159 0.609434 0.408385 -1.3855 0 5.90115e-06
1262 26 0.001 0.0493718 -0.00182195 -0.0310432 -0.407645 -0.443164 1.13434 0 5.90051e-06
53 13 0.001 -0.0501982 -0.00104634 -0.0305683 0.184149 0.415679 -0.857028 0 5.90104e-06
54 13 0.001 -0.0500144 -0.000177875 -0.0300951 -0.0771769 -0.29117 0.558583 0 5.90031e-06
263 14 0.001 -0.0301982 -0.00104623 -0.0305685 0.0885662 0.208938 -0.428396 0 5.90083e-06
264 14 0.001 -0.0300145 -0.000177953 -0.0300949 -0.0486755 -0.131773 0.254287 0 5.90041e-06
513 17 0.001 -0.0101982 -0.00104625 -0.0305685 0.0996969 0.24953 -0.507756 0 5.90081e-06
514 17 0.001 -0.0100145 -0.000177926 -0.030095 -0.0474102 -0.189244 0.362737 0 5.90046e-06