ITEM: TIMESTEP
1
ITEM: NUMBER OF ATOMS
1472
ITEM: BOX BOUNDS ff ff ff
-6.0000000000000005e-02 6.0000000000000005e-02
-6.0000000000000001e-03 6.0000000000000001e-03
-5.5000000000000000e-02 5.5000000000000000e-02
ITEM: ATOMS id type radius x y z fx fy fz c_bendingE c_stretchingE
1 1 0.001 -0.0500069 -3.69744e-06 -0.0499906 -1.45518 0.563501 -0.899398 0 4.50524e-06
13 13 0.001 -0.0501315 0.000884293 -0.0495338 1.8068 -1.52769 3.39616 0 6.372e-06
433 15 0.001 -0.0490475 0 -0.05 0.333469 0.0410258 -0.103779 0 3.54601e-06
434 15 0.001 -0.0480953 0 -0.05 -0.376713 -0.020356 0.0514924 0 4.06532e-06
435 15 0.001 -0.0471429 0 -0.05 -0.0235729 0 0 0 4.03514e-06
436 15 0.001 -0.0461903 0 -0.05 0.0520657 0 0 0 4.06692e-06
437 15 0.001 -0.0452383 0 -0.05 -0.0613635 0 0 0 4.06494e-06
438 15 0.001 -0.0442857 0 -0.05 -0.0242913 0 0 0 4.04637e-06
439 15 0.001 -0.0433334 0 -0.05 0.0679207 0 0 0 4.04637e-06
440 15 0.001 -0.0423808 0 -0.05 -0.0263291 0 0 0 4.06961e-06
441 15 0.001 -0.0414288 0 -0.05 0.00615629 0 0 0 4.05147e-06
442 15 0.001 -0.040476 0 -0.05 -0.00615629 0 0 0 4.05147e-06
443 15 0.001 -0.039524 0 -0.05 0.0263291 0 0 0 4.06961e-06
444 15 0.001 -0.0385714 0 -0.05 -0.067921 0 0 0 4.04637e-06
445 15 0.001 -0.0376191 0 -0.05 0.0242913 0 0 0 4.04637e-06
446 15 0.001 -0.0366665 0 -0.05 0.0613652 0 0 0 4.06494e-06
447 15 0.001 -0.0357144 0 -0.05 -0.0399603 0 0 0 4.0695e-06
448 15 0.001 -0.0347619 0 -0.05 1.37693e-17 0 0 0 4.02796e-06
449 15 0.001 -0.0338094 0 -0.05 -0.0041042 0 0 0 4.07417e-06
450 15 0.001 -0.0328574 0 -0.05 0.367371 0 0 0 4.05402e-06
451 15 0.001 -0.0319046 0 -0.05 -0.366675 -0.0195094 0.0493539 0 4.0461e-06
223 14 0.001 -0.0301315 0.000884293 -0.0495338 1.8062 -1.54386 3.4256 0 6.39546e-06
452 15 0.001 -0.0309525 0 -0.05 -0.0384631 0.0399702 -0.101115 0 4.59597e-06
3 3 0.001 -0.0300054 -3.69744e-06 -0.0499906 -1.24944 0.54886 -0.859469 0 7.17933e-06
683 18 0.001 -0.0290477 0 -0.05 0.349677 0.0411605 -0.104123 0 3.62534e-06
684 18 0.001 -0.0280952 0 -0.05 -0.3928 -0.0203766 0.0515461 0 4.04571e-06
685 18 0.001 -0.0271428 0 -0.05 0.0207179 0 0 0 4.07593e-06
686 18 0.001 -0.0261906 0 -0.05 -0.0178988 0 0 0 4.04452e-06
687 18 0.001 -0.0252379 0 -0.05 -0.0473413 0 0 0 4.0419e-06
688 18 0.001 -0.0242857 0 -0.05 0.0658809 0 0 0 4.07853e-06
689 18 0.001 -0.0233334 0 -0.05 0.00163645 0 0 0 4.05551e-06
690 18 0.001 -0.022381 0 -0.05 -0.0214072 0 0 0 4.03253e-06
691 18 0.001 -0.0214284 0 -0.05 0.0399589 0 0 0 4.0695e-06
692 18 0.001 -0.0204763 0 -0.05 -0.0399589 0 0 0 4.0695e-06
693 18 0.001 -0.0195238 0 -0.05 0.021407 0 0 0 4.03253e-06
694 18 0.001 -0.0185713 0 -0.05 -0.0675169 0 0 0 4.06013e-06
695 18 0.001 -0.0176191 0 -0.05 0.0893355 0 0 0 4.06013e-06
696 18 0.001 -0.0166666 0 -0.05 -0.0893361 0 0 0 4.06013e-06
697 18 0.001 -0.0157144 0 -0.05 0.0893362 0 0 0 4.06013e-06
698 18 0.001 -0.0147619 0 -0.05 1.23413e-17 0 0 0 4.0371e-06
699 18 0.001 -0.0138094 0 -0.05 -0.0675122 0 0 0 4.06013e-06
700 18 0.001 -0.0128572 0 -0.05 0.0236439 0 0 0 4.06272e-06
701 18 0.001 -0.0119047 0 -0.05 0.382377 -0.0195082 0.0493495 0 4.05488e-06
702 18 0.001 -0.0109524 0 -0.05 -0.424712 0.0399795 -0.101135 0 4.59276e-06
5 5 0.001 -0.0100055 -3.69744e-06 -0.0499906 -1.24727 0.54851 -0.858758 0 7.18343e-06
473 17 0.001 -0.0101315 0.000884293 -0.0495338 1.80623 -1.54291 3.42387 0 6.39408e-06
933 21 0.001 -0.00904764 0 -0.05 -0.04398 0.0411521 -0.104098 0 3.62984e-06
934 21 0.001 -0.00809527 0 -0.05 -0.390729 -0.0203779 0.051548 0 4.05147e-06
935 21 0.001 -0.00714283 0 -0.05 0.378495 0 0 0 4.05026e-06
936 21 0.001 -0.00619045 0 -0.05 0.0338768 0 0 0 4.05746e-06
937 21 0.001 -0.0052381 0 -0.05 -0.0434094 0 0 0 4.05807e-06
938 21 0.001 -0.00428571 0 -0.05 0.0218204 0 0 0 4.05546e-06
939 21 0.001 -0.00333333 0 -0.05 -0.0222314 0 0 0 4.06007e-06
940 21 0.001 -0.002381 0 -0.05 0.000823112 0 0 0 4.05547e-06
941 21 0.001 -0.00142857 0 -0.05 0.0658641 0 0 0 4.04169e-06
942 21 0.001 -0.000476086 0 -0.05 -0.0246822 0 0 0 4.06942e-06
943 21 0.001 0.000476034 0 -0.05 0.00327484 0 0 0 4.06485e-06
944 21 0.001 0.00142857 0 -0.05 -0.0444571 0 0 0 4.03711e-06
945 21 0.001 0.002381 0 -0.05 5.62751e-07 0 0 0 4.04627e-06
946 21 0.001 0.00333344 0 -0.05 -0.00205866 0 0 0 4.06935e-06
947 21 0.001 0.00428561 0 -0.05 0.0679238 0 0 0 4.06477e-06
948 21 0.001 0.0052381 0 -0.05 1.23413e-17 0 0 0 4.0371e-06
949 21 0.001 0.00619058 0 -0.05 -0.0675122 0 0 0 4.06013e-06
950 21 0.001 0.00714281 0 -0.05 0.0236439 0 0 0 4.06272e-06
951 21 0.001 0.00809526 0 -0.05 -0.0228653 2.34768e-15 0.00948787 0 4.05488e-06
7 7 0.001 0.01 0 -0.05 -1.2398 0.500031 -0.705849 0 7.29879e-06
723 20 0.001 0.00986845 0.000884293 -0.0495338 1.54122 -1.22833 2.69282 0 6.6165e-06
952 21 0.001 0.00904757 0 -0.05 0.0226333 -4.69509e-15 -0.018975 0 4.05747e-06
1183 24 0.001 0.0109524 0 -0.05 0.000124444 1.14258e-06 -0.0247005 0 4.05807e-06
1184 24 0.001 0.0119047 0 -0.05 -0.00893366 -5.71285e-07 0.01235 0 4.05147e-06
1185 24 0.001 0.0128572 0 -0.05 0.0209734 0 0 0 4.05487e-06
1186 24 0.001 0.0138095 0 -0.05 0.0318322 0 0 0 4.05747e-06
1187 24 0.001 0.0147619 0 -0.05 -0.0648153 0 0 0 4.04429e-06
1188 24 0.001 0.0157144 0 -0.05 -0.0024697 0 0 0 4.06477e-06
1189 24 0.001 0.0166666 0 -0.05 0.0461054 0 0 0 4.06477e-06
1190 24 0.001 0.017619 0 -0.05 -0.0214072 0 0 0 4.03253e-06
1191 24 0.001 0.0185716 0 -0.05 0.0399589 0 0 0 4.0695e-06
1192 24 0.001 0.0195237 0 -0.05 -0.0399589 0 0 0 4.0695e-06
1193 24 0.001 0.0204762 0 -0.05 0.021407 0 0 0 4.03253e-06
1194 24 0.001 0.0214287 0 -0.05 -0.0675169 0 0 0 4.06013e-06
1195 24 0.001 0.0223809 0 -0.05 0.0893355 0 0 0 4.06013e-06
1196 24 0.001 0.0233334 0 -0.05 -0.0893361 0 0 0 4.06013e-06
1197 24 0.001 0.0242856 0 -0.05 0.0893362 0 0 0 4.06013e-06
1198 24 0.001 0.0252381 0 -0.05 -5.68592e-07 0 0 0 4.0371e-06
1199 24 0.001 0.0261906 0 -0.05 -0.0893346 0 0 0 4.06013e-06
1200 24 0.001 0.0271428 0 -0.05 0.0671074 0 0 0 4.06472e-06
1201 24 0.001 0.0280952 0 -0.05 -0.043969 5.71266e-07 0.00948663 0 4.05087e-06
9 9 0.001 0.03 0 -0.05 -1.23973 0.500033 -0.705848 0 7.30599e-06
973 23 0.001 0.0298685 0.000884293 -0.0495338 1.54122 -1.22833 2.69282 0 6.6165e-06
1202 24 0.001 0.0290476 0 -0.05 0.0217399 -1.14253e-06 -0.0189736 0 4.05546e-06
1433 27 0.001 0.0309523 0 -0.05 0.000928566 4.69476e-15 -0.0247013 0 4.05548e-06
1434 27 0.001 0.0319048 0 -0.05 0.000410404 -2.34723e-15 0.0123497 0 4.04049e-06
1435 27 0.001 0.0328573 0 -0.05 0.00954268 0 0 0 4.06741e-06
1436 27 0.001 0.0338094 0 -0.05 -0.0529985 0 0 0 4.06542e-06
1437 27 0.001 0.0347619 0 -0.05 0.0219956 0 0 0 4.02994e-06
1438 27 0.001 0.0357144 0 -0.05 0.0617782 0 0 0 4.0695e-06
1439 27 0.001 0.0366665 0 -0.05 -0.0399614 0 0 0 4.0695e-06
1440 27 0.001 0.037619 0 -0.05 1.37693e-17 0 0 0 4.02796e-06
1441 27 0.001 0.0385716 0 -0.05 0.0399599 0 0 0 4.0695e-06
1442 27 0.001 0.0395237 0 -0.05 -0.061364 0 0 0 4.06494e-06
1443 27 0.001 0.0404762 0 -0.05 -0.00246955 0 0 0 4.04637e-06
1444 27 0.001 0.0414285 0 -0.05 0.0238736 0 0 0 4.05093e-06
1445 27 0.001 0.0423811 0 -0.05 -0.023874 0 0 0 4.05093e-06
1446 27 0.001 0.0433333 0 -0.05 -1.32975e-17 0 0 0 4.07391e-06
1447 27 0.001 0.0442856 0 -0.05 0.0456904 0 0 0 4.05093e-06
1448 27 0.001 0.0452381 0 -0.05 -0.0671003 0 0 0 4.04632e-06
1449 27 0.001 0.0461905 0 -0.05 0.0218206 0 0 0 4.06467e-06
1450 27 0.001 0.0471428 0 -0.05 0.0236415 0 0 0 4.04433e-06
1451 27 0.001 0.0480954 0 -0.05 0.380033 -0.0194902 0.049304 0 4.0576e-06
1452 27 0.001 0.0490475 0 -0.05 -0.413528 0.0398765 -0.100875 0 4.47332e-06
11 11 0.001 0.0499957 -3.69744e-06 -0.0499906 -1.12296 0.574122 -0.921204 0 5.46949e-06
1223 26 0.001 0.0498685 0.000884293 -0.0495338 1.80584 -1.5558 3.44736 0 6.41296e-06
14 13 0.001 -0.0505135 0.00167826 -0.0490416 -0.955149 1.70264 -3.61478 0 6.56177e-06
224 14 0.001 -0.0305135 0.00167826 -0.0490416 -0.958399 1.71525 -3.63848 0 6.56177e-06
474 17 0.001 -0.0105135 0.00167826 -0.0490416 -0.958206 1.71451 -3.63709 0 6.56177e-06
724 20 0.001 0.00948652 0.00167826 -0.0490416 -0.708543 1.35729 -2.84476 0 6.56177e-06
974 23 0.001 0.0294865 0.00167826 -0.0490416 -0.708543 1.35729 -2.84476 0 6.56177e-06
1224 26 0.001 0.0494865 0.00167826 -0.0490416 -0.960844 1.72452 -3.65597 0 6.56177e-06
17 13 0.001 -0.0527546 0.0029899 -0.0476303 1.69861 -0.776344 3.39196 0 6.57171e-06
15 13 0.001 -0.0511237 0.00233843 -0.0485859 0.975651 -1.98733 3.63664 0 6.469e-06
16 13 0.001 -0.0518859 0.00278729 -0.0481014 -1.82623 1.87223 -4.6283 0 6.59536e-06
226 14 0.001 -0.0318859 0.00278729 -0.0481014 -1.82623 1.87223 -4.6283 0 6.59536e-06
227 14 0.001 -0.0327546 0.0029899 -0.0476303 1.69861 -0.776344 3.39196 0 6.57171e-06
225 14 0.001 -0.0311237 0.00233843 -0.0485859 0.977859 -1.9897 3.64304 0 6.469e-06
477 17 0.001 -0.0127546 0.0029899 -0.0476303 1.69861 -0.776344 3.39196 0 6.57171e-06
475 17 0.001 -0.0111237 0.00233843 -0.0485859 0.97773 -1.98956 3.64267 0 6.469e-06
476 17 0.001 -0.0118859 0.00278729 -0.0481014 -1.82623 1.87223 -4.6283 0 6.59536e-06
727 20 0.001 0.00724539 0.0029899 -0.0476303 1.69861 -0.776344 3.39196 0 6.57171e-06
725 20 0.001 0.00887633 0.00233843 -0.0485859 0.899392 -1.8572 3.34599 0 6.469e-06
726 20 0.001 0.00811413 0.00278729 -0.0481014 -1.82623 1.87223 -4.6283 0 6.59536e-06
976 23 0.001 0.0281141 0.00278729 -0.0481014 -1.82623 1.87223 -4.6283 0 6.59536e-06
977 23 0.001 0.0272454 0.0029899 -0.0476303 1.69861 -0.776344 3.39196 0 6.57171e-06
975 23 0.001 0.0288763 0.00233843 -0.0485859 0.899392 -1.8572 3.34599 0 6.469e-06
1227 26 0.001 0.0472454 0.0029899 -0.0476303 1.69861 -0.776344 3.39196 0 6.57171e-06
1225 26 0.001 0.0488763 0.00233843 -0.0485859 0.979491 -1.99143 3.64774 0 6.469e-06
1226 26 0.001 0.0481141 0.00278729 -0.0481014 -1.82623 1.87223 -4.6283 0 6.59536e-06
19 13 0.001 -0.0544741 0.00261279 -0.0466825 0.0762314 -0.0197573 0.114799 0 6.50954e-06
20 13 0.001 -0.0551758 0.0020653 -0.0462085 0.0148534 -0.0140988 4.99815e-12 0 6.50954e-06
18 13 0.001 -0.0536426 0.00293031 -0.0471564 -0.495839 0.109616 -0.912061 0 6.50954e-06
230 14 0.001 -0.0351758 0.0020653 -0.0462085 0.0148534 -0.0140988 -2.70014e-12 0 6.50954e-06
228 14 0.001 -0.0336426 0.00293031 -0.0471564 -0.495839 0.109616 -0.912061 0 6.50954e-06
229 14 0.001 -0.0344741 0.00261279 -0.0466825 0.0762314 -0.0197573 0.114799 0 6.50954e-06
480 17 0.001 -0.0151758 0.0020653 -0.0462085 0.0148534 -0.0140988 -4.87818e-13 0 6.50954e-06
478 17 0.001 -0.0136426 0.00293031 -0.0471564 -0.495839 0.109616 -0.912061 0 6.50954e-06
479 17 0.001 -0.0144741 0.00261279 -0.0466825 0.0762314 -0.0197573 0.114799 0 6.50954e-06
729 20 0.001 0.00552589 0.00261279 -0.0466825 0.0762314 -0.0197573 0.114799 0 6.50954e-06
730 20 0.001 0.00482417 0.0020653 -0.0462085 0.0148534 -0.0140988 -5.45702e-12 0 6.50954e-06
728 20 0.001 0.00635736 0.00293031 -0.0471564 -0.495839 0.109616 -0.912061 0 6.50954e-06
980 23 0.001 0.0248242 0.0020653 -0.0462085 0.0148534 -0.0140988 1.8166e-12 0 6.50954e-06
978 23 0.001 0.0263574 0.00293031 -0.0471564 -0.495839 0.109616 -0.912061 0 6.50954e-06
979 23 0.001 0.0255259 0.00261279 -0.0466825 0.0762314 -0.0197573 0.114799 0 6.50954e-06
1230 26 0.001 0.0448242 0.0020653 -0.0462085 0.0148534 -0.0140988 4.9977e-12 0 6.50954e-06
1228 26 0.001 0.0463574 0.00293031 -0.0471564 -0.495839 0.109616 -0.912061 0 6.50954e-06
1229 26 0.001 0.0455259 0.00261279 -0.0466825 0.0762314 -0.0197573 0.114799 0 6.50954e-06
23 13 0.001 -0.0559731 -0.000400796 -0.0447867 0.0202956 0.00273605 9.80155e-13 0 6.50954e-06
233 14 0.001 -0.0359731 -0.000400796 -0.0447867 0.0202956 0.00273605 -4.09902e-12 0 6.50954e-06
483 17 0.001 -0.0159731 -0.000400796 -0.0447867 0.0202956 0.00273605 2.07453e-12 0 6.50954e-06
733 20 0.001 0.00402694 -0.000400796 -0.0447867 0.0202956 0.00273605 2.07832e-12 0 6.50954e-06
983 23 0.001 0.0240269 -0.000400796 -0.0447867 0.0202956 0.00273605 9.31484e-13 0 6.50954e-06
1233 26 0.001 0.0440269 -0.000400796 -0.0447867 0.0202956 0.00273605 9.80155e-13 0 6.50954e-06
21 13 0.001 -0.055686 0.00133602 -0.0457346 0.0183363 -0.00912035 -2.30281e-12 0 6.50954e-06
22 13 0.001 -0.0559598 0.000489138 -0.0452607 0.0202052 -0.00333911 2.03115e-13 0 6.50954e-06
231 14 0.001 -0.035686 0.00133602 -0.0457346 0.0183363 -0.00912035 3.50995e-12 0 6.50954e-06
232 14 0.001 -0.0359598 0.000489138 -0.0452607 0.0202052 -0.00333911 -3.09734e-14 0 6.50954e-06
481 17 0.001 -0.015686 0.00133602 -0.0457346 0.0183363 -0.00912035 2.2334e-12 0 6.50954e-06
482 17 0.001 -0.0159598 0.000489138 -0.0452607 0.0202052 -0.00333911 -2.50514e-12 0 6.50954e-06
731 20 0.001 0.00431397 0.00133602 -0.0457346 0.0183363 -0.00912035 5.39834e-12 0 6.50954e-06
732 20 0.001 0.00404019 0.000489138 -0.0452607 0.0202052 -0.00333911 -3.75566e-12 0 6.50954e-06
981 23 0.001 0.024314 0.00133602 -0.0457346 0.0183363 -0.00912035 -9.43475e-13 0 6.50954e-06
982 23 0.001 0.0240402 0.000489138 -0.0452607 0.0202052 -0.00333911 8.32701e-14 0 6.50954e-06
1231 26 0.001 0.044314 0.00133602 -0.0457346 0.0183363 -0.00912035 -2.30281e-12 0 6.50954e-06
1232 26 0.001 0.0440402 0.000489138 -0.0452607 0.0202052 -0.00333911 2.03115e-13 0 6.50954e-06
25 13 0.001 -0.0552364 -0.0019996 -0.0438389 0.0152666 0.0136503 2.74397e-12 0 6.50954e-06
26 13 0.001 -0.0545513 -0.00256775 -0.0433649 0.0105897 0.0175288 -2.98983e-12 0 6.50954e-06
235 14 0.001 -0.0352364 -0.0019996 -0.0438389 0.0152666 0.0136503 -2.35314e-12 0 6.50954e-06
236 14 0.001 -0.0345513 -0.00256775 -0.0433649 0.0105897 0.0175288 -8.43998e-13 0 6.50954e-06
485 17 0.001 -0.0152364 -0.0019996 -0.0438389 0.0152666 0.0136503 2.43522e-12 0 6.50954e-06
486 17 0.001 -0.0145513 -0.00256775 -0.0433649 0.0105897 0.0175288 -2.36655e-12 0 6.50954e-06
735 20 0.001 0.00476364 -0.0019996 -0.0438389 0.0152666 0.0136503 -1.39218e-13 0 6.50954e-06
736 20 0.001 0.00544875 -0.00256775 -0.0433649 0.0105897 0.0175288 1.06342e-12 0 6.50954e-06
985 23 0.001 0.0247636 -0.0019996 -0.0438389 0.0152666 0.0136503 3.44252e-12 0 6.50954e-06
986 23 0.001 0.0254487 -0.00256775 -0.0433649 0.0105897 0.0175288 -4.68851e-12 0 6.50954e-06
1235 26 0.001 0.0447636 -0.0019996 -0.0438389 0.0152666 0.0136503 2.74397e-12 0 6.50954e-06
1236 26 0.001 0.0454487 -0.00256775 -0.0433649 0.0105897 0.0175288 -2.98983e-12 0 6.50954e-06
24 13 0.001 -0.0557246 -0.00125545 -0.0443128 0.0185997 0.00857037 -1.85462e-12 0 6.50954e-06
234 14 0.001 -0.0357246 -0.00125545 -0.0443128 0.0185997 0.00857037 4.90597e-12 0 6.50954e-06
484 17 0.001 -0.0157246 -0.00125545 -0.0443128 0.0185997 0.00857037 -1.99364e-12 0 6.50954e-06
734 20 0.001 0.00427538 -0.00125545 -0.0443128 0.0185997 0.00857037 -9.08603e-13 0 6.50954e-06
984 23 0.001 0.0242754 -0.00125545 -0.0443128 0.0185997 0.00857037 -2.00118e-12 0 6.50954e-06
1234 26 0.001 0.0442754 -0.00125545 -0.0443128 0.0185997 0.00857037 -1.85462e-12 0 6.50954e-06
27 13 0.001 -0.0537296 -0.00290988 -0.042891 0.00498067 0.0198643 2.35078e-12 0 6.50954e-06
28 13 0.001 -0.0528437 -0.00299588 -0.0424171 -0.00106673 0.0204514 -1.55161e-12 0 6.50954e-06
29 13 0.001 -0.0519716 -0.00281818 -0.0419431 -0.00702023 0.0192384 8.45936e-13 0 6.50954e-06
30 13 0.001 -0.05119 -0.00239243 -0.0414692 -0.0123558 0.016332 2.29976e-13 0 6.50954e-06
237 14 0.001 -0.0337296 -0.00290988 -0.042891 0.00498067 0.0198643 2.5766e-12 0 6.50954e-06
238 14 0.001 -0.0328437 -0.00299588 -0.0424171 -0.00106673 0.0204514 -2.59762e-12 0 6.50954e-06
239 14 0.001 -0.0319716 -0.00281818 -0.0419431 -0.00702023 0.0192384 1.91703e-12 0 6.50954e-06
240 14 0.001 -0.03119 -0.00239243 -0.0414692 -0.0123558 0.016332 -9.76643e-13 0 6.50954e-06
487 17 0.001 -0.0137296 -0.00290988 -0.042891 0.00498067 0.0198643 5.12746e-13 0 6.50954e-06
488 17 0.001 -0.0128437 -0.00299588 -0.0424171 -0.00106673 0.0204514 2.82117e-12 0 6.50954e-06
489 17 0.001 -0.0119716 -0.00281818 -0.0419431 -0.00702023 0.0192384 -5.50991e-12 0 6.50954e-06
490 17 0.001 -0.01119 -0.00239243 -0.0414692 -0.0123558 0.016332 5.98911e-12 0 6.50954e-06
737 20 0.001 0.00627039 -0.00290988 -0.042891 0.00498067 0.0198643 -2.07896e-12 0 6.50954e-06
738 20 0.001 0.00715626 -0.00299588 -0.0424171 -0.00106673 0.0204514 3.79753e-12 0 6.50954e-06
739 20 0.001 0.00802838 -0.00281818 -0.0419431 -0.00702023 0.0192384 -5.56098e-12 0 6.50954e-06
740 20 0.001 0.00880997 -0.00239243 -0.0414692 -0.0123558 0.016332 5.90607e-12 0 6.50954e-06
987 23 0.001 0.0262704 -0.00290988 -0.042891 0.00498067 0.0198643 3.78171e-12 0 6.50954e-06
988 23 0.001 0.0271563 -0.00299588 -0.0424171 -0.00106673 0.0204514 1.02175e-13 0 6.50954e-06
989 23 0.001 0.0280284 -0.00281818 -0.0419431 -0.00702023 0.0192384 -4.88497e-12 0 6.50954e-06
990 23 0.001 0.02881 -0.00239243 -0.0414692 -0.0123558 0.016332 7.79398e-12 0 6.50954e-06
1237 26 0.001 0.0462704 -0.00290988 -0.042891 0.00498067 0.0198643 2.35078e-12 0 6.50954e-06
1238 26 0.001 0.0471563 -0.00299588 -0.0424171 -0.00106673 0.0204514 -1.55161e-12 0 6.50954e-06
1239 26 0.001 0.0480284 -0.00281818 -0.0419431 -0.00702023 0.0192384 8.45936e-13 0 6.50954e-06
1240 26 0.001 0.04881 -0.00239243 -0.0414692 -0.0123558 0.016332 2.29976e-13 0 6.50954e-06
31 13 0.001 -0.0505677 -0.00175609 -0.0409953 -0.0166038 0.011988 -1.98317e-12 0 6.50954e-06
241 14 0.001 -0.0305677 -0.00175609 -0.0409953 -0.0166038 0.011988 -9.75858e-13 0 6.50954e-06
491 17 0.001 -0.0105677 -0.00175609 -0.0409953 -0.0166038 0.011988 -5.30027e-12 0 6.50954e-06
741 20 0.001 0.00943225 -0.00175609 -0.0409953 -0.0166038 0.011988 -5.28117e-12 0 6.50954e-06
991 23 0.001 0.0294323 -0.00175609 -0.0409953 -0.0166038 0.011988 -8.29168e-12 0 6.50954e-06
1241 26 0.001 0.0494323 -0.00175609 -0.0409953 -0.0166038 0.011988 -1.98317e-12 0 6.50954e-06
32 13 0.001 -0.0501596 -0.000965184 -0.0405213 -0.0193904 0.00658885 4.21266e-12 0 6.50954e-06
33 13 0.001 -0.0500014 -8.93197e-05 -0.0400474 -0.0204702 0.000609743 -6.15217e-12 0 6.50954e-06
242 14 0.001 -0.0301596 -0.000965184 -0.0405213 -0.0193904 0.00658885 4.04565e-12 0 6.50954e-06
243 14 0.001 -0.0300014 -8.93197e-05 -0.0400474 -0.0204702 0.000609743 -7.04211e-12 0 6.50954e-06
492 17 0.001 -0.0101596 -0.000965184 -0.0405213 -0.0193904 0.00658885 5.40814e-12 0 6.50954e-06
493 17 0.001 -0.0100014 -8.93197e-05 -0.0400474 -0.0204702 0.000609743 -6.17585e-12 0 6.50954e-06
742 20 0.001 0.00984044 -0.000965184 -0.0405213 -0.0193904 0.00658885 5.40814e-12 0 6.50954e-06
743 20 0.001 0.00999862 -8.93197e-05 -0.0400474 -0.0204702 0.000609743 -6.17585e-12 0 6.50954e-06
992 23 0.001 0.0298404 -0.000965184 -0.0405213 -0.0193904 0.00658885 7.98295e-12 0 6.50954e-06
993 23 0.001 0.0299986 -8.93197e-05 -0.0400474 -0.0204702 0.000609743 -8.27623e-12 0 6.50954e-06
1242 26 0.001 0.0498404 -0.000965184 -0.0405213 -0.0193904 0.00658885 4.21266e-12 0 6.50954e-06
1243 26 0.001 0.0499986 -8.93197e-05 -0.0400474 -0.0204702 0.000609743 -6.15217e-12 0 6.50954e-06
34 13 0.001 -0.0501071 0.000794406 -0.0395735 -0.0197482 -0.00542303 7.1538e-12 0 6.50954e-06
244 14 0.001 -0.0301071 0.000794406 -0.0395735 -0.0197482 -0.00542303 8.77652e-12 0 6.50954e-06
494 17 0.001 -0.0101071 0.000794406 -0.0395735 -0.0197482 -0.00542303 5.87454e-12 0 6.50954e-06
744 20 0.001 0.00989286 0.000794406 -0.0395735 -0.0197482 -0.00542303 5.87454e-12 0 6.50954e-06
994 23 0.001 0.0298929 0.000794406 -0.0395735 -0.0197482 -0.00542303 8.58239e-12 0 6.50954e-06
1244 26 0.001 0.0498929 0.000794406 -0.0395735 -0.0197482 -0.00542303 7.1538e-12 0 6.50954e-06
36 13 0.001 -0.0510508 0.00228046 -0.0386256 -0.013306 -0.0155676 8.33232e-12 0 6.50954e-06
35 13 0.001 -0.0504675 0.00160821 -0.0390995 -0.0172879 -0.0109785 -7.737e-12 0 6.50954e-06
245 14 0.001 -0.0304675 0.00160821 -0.0390995 -0.0172879 -0.0109785 -8.89194e-12 0 6.50954e-06
246 14 0.001 -0.0310508 0.00228046 -0.0386256 -0.013306 -0.0155676 7.49176e-12 0 6.50954e-06
496 17 0.001 -0.0110508 0.00228046 -0.0386256 -0.013306 -0.0155676 1.57595e-12 0 6.50954e-06
495 17 0.001 -0.0104675 0.00160821 -0.0390995 -0.0172879 -0.0109785 -3.99162e-12 0 6.50954e-06
746 20 0.001 0.00894916 0.00228046 -0.0386256 -0.013306 -0.0155676 1.58882e-12 0 6.50954e-06
745 20 0.001 0.00953246 0.00160821 -0.0390995 -0.0172879 -0.0109785 -3.99162e-12 0 6.50954e-06
995 23 0.001 0.0295325 0.00160821 -0.0390995 -0.0172879 -0.0109785 -7.24958e-12 0 6.50954e-06
996 23 0.001 0.0289492 0.00228046 -0.0386256 -0.013306 -0.0155676 4.15896e-12 0 6.50954e-06
1246 26 0.001 0.0489492 0.00228046 -0.0386256 -0.013306 -0.0155676 8.33232e-12 0 6.50954e-06
1245 26 0.001 0.0495325 0.00160821 -0.0390995 -0.0172879 -0.0109785 -7.737e-12 0 6.50954e-06
38 13 0.001 -0.0526657 0.00298127 -0.0376777 -0.00228213 -0.0203517 4.53274e-12 0 6.50954e-06
39 13 0.001 -0.0535551 0.00294814 -0.0372038 0.00378949 -0.0201256 3.16112e-13 0 6.50954e-06
37 13 0.001 -0.0518057 0.00275198 -0.0381517 -0.00815287 -0.0187864 -7.68446e-12 0 6.50954e-06
249 14 0.001 -0.0335551 0.00294814 -0.0372038 0.00378949 -0.0201256 3.40345e-12 0 6.50954e-06
247 14 0.001 -0.0318057 0.00275198 -0.0381517 -0.00815287 -0.0187864 -4.6029e-12 0 6.50954e-06
248 14 0.001 -0.0326657 0.00298127 -0.0376777 -0.00228213 -0.0203517 6.16083e-13 0 6.50954e-06
499 17 0.001 -0.0135551 0.00294814 -0.0372038 0.00378949 -0.0201256 4.35082e-12 0 6.50954e-06
498 17 0.001 -0.0126657 0.00298127 -0.0376777 -0.00228213 -0.0203517 -2.26788e-12 0 6.50954e-06
497 17 0.001 -0.0118057 0.00275198 -0.0381517 -0.00815287 -0.0187864 4.88092e-13 0 6.50954e-06
748 20 0.001 0.0073343 0.00298127 -0.0376777 -0.00228213 -0.0203517 -2.09296e-12 0 6.50954e-06
749 20 0.001 0.00644489 0.00294814 -0.0372038 0.00378949 -0.0201256 4.14483e-12 0 6.50954e-06
747 20 0.001 0.00819429 0.00275198 -0.0381517 -0.00815287 -0.0187864 4.0816e-13 0 6.50954e-06
999 23 0.001 0.0264449 0.00294814 -0.0372038 0.00378949 -0.0201256 3.33369e-12 0 6.50954e-06
997 23 0.001 0.0281943 0.00275198 -0.0381517 -0.00815287 -0.0187864 -1.05505e-12 0 6.50954e-06
998 23 0.001 0.0273343 0.00298127 -0.0376777 -0.00228213 -0.0203517 -1.13539e-12 0 6.50954e-06
1249 26 0.001 0.0464449 0.00294814 -0.0372038 0.00378949 -0.0201256 3.16334e-13 0 6.50954e-06
1248 26 0.001 0.0473343 0.00298127 -0.0376777 -0.00228213 -0.0203517 4.53363e-12 0 6.50954e-06
1247 26 0.001 0.0481943 0.00275198 -0.0381517 -0.00815287 -0.0187864 -7.68446e-12 0 6.50954e-06
42 13 0.001 -0.0556451 0.0014154 -0.035782 0.0180566 -0.00966225 -7.33766e-12 0 6.50954e-06
252 14 0.001 -0.0356451 0.0014154 -0.035782 0.0180566 -0.00966225 -7.29408e-12 0 6.50954e-06
502 17 0.001 -0.0156451 0.0014154 -0.035782 0.0180566 -0.00966225 -7.40444e-12 0 6.50954e-06
752 20 0.001 0.00435494 0.0014154 -0.035782 0.0180566 -0.00966225 -7.11911e-12 0 6.50954e-06
1002 23 0.001 0.0243549 0.0014154 -0.035782 0.0180566 -0.00966225 -6.61369e-12 0 6.50954e-06
1252 26 0.001 0.0443549 0.0014154 -0.035782 0.0180566 -0.00966225 -7.33722e-12 0 6.50954e-06
40 13 0.001 -0.0543957 0.00265553 -0.0367299 0.00952756 -0.018128 -4.82358e-12 0 6.50954e-06
41 13 0.001 -0.0551134 0.00212917 -0.0362559 0.014427 -0.0145348 7.42337e-12 0 6.50954e-06
251 14 0.001 -0.0351134 0.00212917 -0.0362559 0.014427 -0.0145348 7.89529e-12 0 6.50954e-06
250 14 0.001 -0.0343957 0.00265553 -0.0367299 0.00952756 -0.018128 -6.43742e-12 0 6.50954e-06
501 17 0.001 -0.0151134 0.00212917 -0.0362559 0.014427 -0.0145348 8.05561e-12 0 6.50954e-06
500 17 0.001 -0.0143957 0.00265553 -0.0367299 0.00952756 -0.018128 -6.67252e-12 0 6.50954e-06
750 20 0.001 0.00560433 0.00265553 -0.0367299 0.00952756 -0.018128 -6.47023e-12 0 6.50954e-06
751 20 0.001 0.00488662 0.00212917 -0.0362559 0.014427 -0.0145348 7.80764e-12 0 6.50954e-06
1001 23 0.001 0.0248866 0.00212917 -0.0362559 0.014427 -0.0145348 7.16164e-12 0 6.50954e-06
1000 23 0.001 0.0256043 0.00265553 -0.0367299 0.00952756 -0.018128 -5.78275e-12 0 6.50954e-06
1251 26 0.001 0.0448866 0.00212917 -0.0362559 0.014427 -0.0145348 7.42297e-12 0 6.50954e-06
1250 26 0.001 0.0456043 0.00265553 -0.0367299 0.00952756 -0.018128 -4.82333e-12 0 6.50954e-06
44 13 0.001 -0.0559837 -0.0003121 -0.0348341 0.0203681 0.00213056 -3.58378e-12 0 6.50954e-06
45 13 0.001 -0.0557608 -0.00117377 -0.0343602 0.0188466 0.00801279 4.42921e-12 0 6.50954e-06
254 14 0.001 -0.0359837 -0.0003121 -0.0348341 0.0203681 0.00213056 -3.59795e-12 0 6.50954e-06
255 14 0.001 -0.0357608 -0.00117377 -0.0343602 0.0188466 0.00801279 4.26095e-12 0 6.50954e-06
504 17 0.001 -0.0159837 -0.0003121 -0.0348341 0.0203681 0.00213056 -3.46547e-12 0 6.50954e-06
505 17 0.001 -0.0157608 -0.00117377 -0.0343602 0.0188466 0.00801279 3.93544e-12 0 6.50954e-06
754 20 0.001 0.00401633 -0.0003121 -0.0348341 0.0203681 0.00213056 -3.45154e-12 0 6.50954e-06
755 20 0.001 0.00423921 -0.00117377 -0.0343602 0.0188466 0.00801279 4.04964e-12 0 6.50954e-06
1004 23 0.001 0.0240163 -0.0003121 -0.0348341 0.0203681 0.00213056 -3.35832e-12 0 6.50954e-06
1005 23 0.001 0.0242392 -0.00117377 -0.0343602 0.0188466 0.00801279 3.75345e-12 0 6.50954e-06
1254 26 0.001 0.0440163 -0.0003121 -0.0348341 0.0203681 0.00213056 -3.58378e-12 0 6.50954e-06
1255 26 0.001 0.0442392 -0.00117377 -0.0343602 0.0188466 0.00801279 4.42921e-12 0 6.50954e-06
43 13 0.001 -0.0559439 0.000577045 -0.0353081 0.0200968 -0.00393921 5.21656e-12 0 6.50954e-06
253 14 0.001 -0.0359439 0.000577045 -0.0353081 0.0200968 -0.00393921 5.14928e-12 0 6.50954e-06
503 17 0.001 -0.0159439 0.000577045 -0.0353081 0.0200968 -0.00393921 5.18682e-12 0 6.50954e-06
753 20 0.001 0.00405607 0.000577045 -0.0353081 0.0200968 -0.00393921 4.98372e-12 0 6.50954e-06
1003 23 0.001 0.0240561 0.000577045 -0.0353081 0.0200968 -0.00393921 4.77974e-12 0 6.50954e-06
1253 26 0.001 0.0440561 0.000577045 -0.0353081 0.0200968 -0.00393921 5.21656e-12 0 6.50954e-06
46 13 0.001 -0.0552949 -0.00193213 -0.0338863 0.0156662 0.0131897 -6.82503e-12 0 6.50954e-06
47 13 0.001 -0.054627 -0.00252042 -0.0334123 0.0111069 0.0172057 8.13833e-12 0 6.50954e-06
48 13 0.001 -0.0538159 -0.00288686 -0.0329384 0.0055699 0.0197072 -7.21973e-12 0 6.50954e-06
49 13 0.001 -0.052933 -0.0029992 -0.0324645 -0.000457337 0.0204741 5.69784e-12 0 6.50954e-06
256 14 0.001 -0.0352949 -0.00193213 -0.0338863 0.0156662 0.0131897 -5.95894e-12 0 6.50954e-06
257 14 0.001 -0.034627 -0.00252042 -0.0334123 0.0111069 0.0172057 6.01288e-12 0 6.50954e-06
258 14 0.001 -0.0338159 -0.00288686 -0.0329384 0.0055699 0.0197072 -3.82354e-12 0 6.50954e-06
259 14 0.001 -0.032933 -0.0029992 -0.0324645 -0.000457337 0.0204741 1.51296e-12 0 6.50954e-06
506 17 0.001 -0.0152949 -0.00193213 -0.0338863 0.0156662 0.0131897 -5.57981e-12 0 6.50954e-06
507 17 0.001 -0.014627 -0.00252042 -0.0334123 0.0111069 0.0172057 5.75721e-12 0 6.50954e-06
508 17 0.001 -0.0138159 -0.00288686 -0.0329384 0.0055699 0.0197072 -4.02803e-12 0 6.50954e-06
509 17 0.001 -0.012933 -0.0029992 -0.0324645 -0.000457337 0.0204741 2.33855e-12 0 6.50954e-06
756 20 0.001 0.0047051 -0.00193213 -0.0338863 0.0156662 0.0131897 -5.62237e-12 0 6.50954e-06
757 20 0.001 0.00537298 -0.00252042 -0.0334123 0.0111069 0.0172057 5.60687e-12 0 6.50954e-06
758 20 0.001 0.00618408 -0.00288686 -0.0329384 0.0055699 0.0197072 -3.64606e-12 0 6.50954e-06
759 20 0.001 0.00706699 -0.0029992 -0.0324645 -0.000457337 0.0204741 1.75491e-12 0 6.50954e-06
1006 23 0.001 0.0247051 -0.00193213 -0.0338863 0.0156662 0.0131897 -5.12574e-12 0 6.50954e-06
1007 23 0.001 0.025373 -0.00252042 -0.0334123 0.0111069 0.0172057 5.14921e-12 0 6.50954e-06
1008 23 0.001 0.0261841 -0.00288686 -0.0329384 0.0055699 0.0197072 -3.45619e-12 0 6.50954e-06
1009 23 0.001 0.027067 -0.0029992 -0.0324645 -0.000457337 0.0204741 1.87416e-12 0 6.50954e-06
1256 26 0.001 0.0447051 -0.00193213 -0.0338863 0.0156662 0.0131897 -6.82503e-12 0 6.50954e-06
1257 26 0.001 0.045373 -0.00252042 -0.0334123 0.0111069 0.0172057 8.13833e-12 0 6.50954e-06
1258 26 0.001 0.0461841 -0.00288686 -0.0329384 0.0055699 0.0197072 -7.21973e-12 0 6.50954e-06
1259 26 0.001 0.047067 -0.0029992 -0.0324645 -0.000457337 0.0204741 5.69784e-12 0 6.50954e-06
50 13 0.001 -0.052056 -0.00284755 -0.0319905 -0.00644432 0.0194389 -5.76167e-12 0 6.50954e-06
51 13 0.001 -0.0512621 -0.00244526 -0.0315166 -0.0118641 0.0166926 7.16975e-12 0 6.50954e-06
52 13 0.001 -0.0506211 -0.00182773 -0.0310427 -0.0162395 0.012477 -7.6712e-12 0 6.50954e-06
260 14 0.001 -0.032056 -0.00284755 -0.0319905 -0.00644432 0.0194389 -9.165e-13 0 6.50954e-06
261 14 0.001 -0.0312621 -0.00244526 -0.0315166 -0.0118641 0.0166926 1.83517e-12 0 6.50954e-06
262 14 0.001 -0.0306211 -0.00182773 -0.0310427 -0.0162395 0.012477 -3.11063e-12 0 6.50954e-06
510 17 0.001 -0.012056 -0.00284755 -0.0319905 -0.00644432 0.0194389 -1.90326e-12 0 6.50954e-06
511 17 0.001 -0.0112621 -0.00244526 -0.0315166 -0.0118641 0.0166926 2.50567e-12 0 6.50954e-06
512 17 0.001 -0.0106211 -0.00182773 -0.0310427 -0.0162395 0.012477 -3.50078e-12 0 6.50954e-06
760 20 0.001 0.00794401 -0.00284755 -0.0319905 -0.00644432 0.0194389 -1.3233e-12 0 6.50954e-06
761 20 0.001 0.00873794 -0.00244526 -0.0315166 -0.0118641 0.0166926 2.14396e-12 0 6.50954e-06
762 20 0.001 0.00937889 -0.00182773 -0.0310427 -0.0162395 0.012477 -3.36001e-12 0 6.50954e-06
1010 23 0.001 0.027944 -0.00284755 -0.0319905 -0.00644432 0.0194389 -1.44862e-12 0 6.50954e-06
1011 23 0.001 0.0287379 -0.00244526 -0.0315166 -0.0118641 0.0166926 1.92663e-12 0 6.50954e-06
1012 23 0.001 0.0293789 -0.00182773 -0.0310427 -0.0162395 0.012477 -2.89214e-12 0 6.50954e-06
1260 26 0.001 0.047944 -0.00284755 -0.0319905 -0.00644432 0.0194389 -5.76167e-12 0 6.50954e-06
1261 26 0.001 0.0487379 -0.00244526 -0.0315166 -0.0118641 0.0166926 7.16975e-12 0 6.50954e-06
1262 26 0.001 0.0493789 -0.00182773 -0.0310427 -0.0162395 0.012477 -7.6712e-12 0 6.50954e-06
53 13 0.001 -0.0501896 -0.00104933 -0.0305687 -0.0191856 0.00716325 5.80651e-12 0 6.50954e-06
54 13 0.001 -0.0500054 -0.00017856 -0.0300948 -0.0204429 0.00121895 -2.23035e-12 0 6.50954e-06
263 14 0.001 -0.0301896 -0.00104933 -0.0305687 -0.0191856 0.00716325 3.63009e-12 0 6.50954e-06
264 14 0.001 -0.0300054 -0.00017856 -0.0300948 -0.0204429 0.00121895 -2.63422e-12 0 6.50954e-06
513 17 0.001 -0.0101896 -0.00104933 -0.0305687 -0.0191856 0.00716325 3.88161e-12 0 6.50954e-06
514 17 0.001 -0.0100054 -0.00017856 -0.0300948 -0.0204429 0.00121895 -2.7818e-12 0 6.50954e-06