ITEM: TIMESTEP
13
ITEM: NUMBER OF ATOMS
1472
ITEM: BOX BOUNDS ff ff ff
-6.0000000000000005e-02 6.0000000000000005e-02
-6.0000000000000001e-03 6.0000000000000001e-03
-5.5000000000000000e-02 5.5000000000000000e-02
ITEM: ATOMS id type radius x y z fx fy fz c_bendingE c_stretchingE
1 1 0.001 -0.048961 6.45116e-05 -0.0510334 -16.7461 -2.31353 16.4784 0 0.00783923
13 13 0.001 -0.0494811 -0.000342435 -0.0486553 -3.11097 19.7494 -7.05234 0 0.017308
433 15 0.001 -0.0508449 0.000459571 -0.0497793 28.8097 -3.3545 -3.24117 0 0.0177879
434 15 0.001 -0.0472413 0.000162746 -0.0491329 -10.9858 -4.75662 -29.0617 0 0.0344594
435 15 0.001 -0.0476817 -0.000587342 -0.0532118 10.2382 13.5718 48.8185 0 0.0489356
436 15 0.001 -0.0457898 0.000374053 -0.0489066 -2.39125 -10.8159 -19.9969 0 0.0389209
437 15 0.001 -0.0429374 -0.000253699 -0.0475052 -20.7911 8.06719 -38.0795 0 0.0491628
438 15 0.001 -0.0436583 0.000224084 -0.0528638 7.54093 -10.6395 71.4968 0 0.0833022
439 15 0.001 -0.0433724 -0.000263485 -0.0471777 8.90894 3.48851 -71.6887 0 0.0849076
440 15 0.001 -0.0429087 -2.5071e-05 -0.0526715 4.16665 -9.95059 60.0678 0 0.0670166
441 15 0.001 -0.0427021 -0.00154755 -0.0483013 8.68231 35.5216 -27.7233 0 0.0608084
442 15 0.001 -0.0399173 0.00270583 -0.0491686 -8.43436 -42.943 -12.3842 0 0.0619866
443 15 0.001 -0.0383808 -0.000289168 -0.0524678 -25.0115 16.9495 50.1671 0 0.0687203
444 15 0.001 -0.0397896 -0.000860913 -0.0471323 9.70015 15.4496 -74.2978 0 0.0942487
445 15 0.001 -0.0393494 0.000637829 -0.0530961 14.6649 -21.7406 65.3506 0 0.084693
446 15 0.001 -0.0357333 -0.000154195 -0.0497613 6.97702 18.7869 -27.1484 0 0.0397984
447 15 0.001 -0.0334988 -0.000582013 -0.0477897 -29.95 -1.80139 -24.158 0 0.030561
448 15 0.001 -0.0340376 0.000528053 -0.0519577 -6.97893 -13.2163 47.5898 0 0.0423022
449 15 0.001 -0.0346801 -0.00051998 -0.0479901 8.66266 13.5564 -50.8264 0 0.0473806
450 15 0.001 -0.034904 0.000640674 -0.052549 13.0079 -32.7785 30.5797 0 0.0326664
451 15 0.001 -0.0332341 8.56085e-05 -0.0506378 8.09024 38.1833 17.9234 0 0.0244406
223 14 0.001 -0.0289371 -0.000135031 -0.0486389 -19.5803 24.5946 70.0038 0 0.0153989
452 15 0.001 -0.0305246 -0.000403096 -0.0475984 -6.14165 -16.5919 -23.2147 0 0.0236445
3 3 0.001 -0.0282551 -0.000921591 -0.0484187 -14.8263 7.17809 -73.8357 0 0.0253829
683 18 0.001 -0.0307846 0.000249471 -0.0516107 33.4524 -8.12278 40.9314 0 0.0482737
684 18 0.001 -0.0279079 -4.76949e-05 -0.0479086 -14.4689 -2.72815 -52.8376 0 0.0642359
685 18 0.001 -0.0274877 0.000135958 -0.0531938 2.65454 -0.610848 58.5302 0 0.061008
686 18 0.001 -0.0253929 1.2236e-05 -0.0492461 8.02067 -5.31354 -25.4618 0 0.0313058
687 18 0.001 -0.0232153 -0.000374164 -0.0473844 -22.3899 8.71034 -35.486 0 0.0489576
688 18 0.001 -0.0237844 0.000420411 -0.0528755 7.57209 -13.2304 72.8832 0 0.0879022
689 18 0.001 -0.0232302 -0.000412269 -0.0471455 4.78846 4.72833 -73.4908 0 0.0890338
690 18 0.001 -0.0228556 -7.33213e-05 -0.0527623 1.13111 -10.8955 62.4166 0 0.068028
691 18 0.001 -0.0231418 -0.00125933 -0.0483794 18.0906 31.9748 -26.9778 0 0.0593467
692 18 0.001 -0.0193613 0.00219374 -0.0488338 -15.9974 -36.0532 -17.7087 0 0.0586114
693 18 0.001 -0.0185361 -8.67706e-05 -0.0526207 -19.3669 13.542 54.4175 0 0.0669184
694 18 0.001 -0.0197895 -0.000751264 -0.0471838 10.3774 16.7187 -74.7063 0 0.0953131
695 18 0.001 -0.0192936 0.000683011 -0.0531475 12.2313 -18.2362 65.9294 0 0.0838414
696 18 0.001 -0.0159233 -0.000198553 -0.0496411 8.25653 10.1831 -30.9215 0 0.0399886
697 18 0.001 -0.0134226 -0.000578176 -0.0478323 -30.7041 3.98146 -20.6451 0 0.0310195
698 18 0.001 -0.0140021 0.000541099 -0.0519644 -7.78393 -13.2182 47.1363 0 0.0424029
699 18 0.001 -0.0147324 -0.00049032 -0.0479697 9.19085 13.0658 -50.7442 0 0.0477818
700 18 0.001 -0.0149718 0.000642349 -0.052531 26.084 -25.6156 20.3721 0 0.0331067
701 18 0.001 -0.0131093 5.25613e-05 -0.0507057 -13.2979 27.4197 34.9873 0 0.0249251
702 18 0.001 -0.010497 -0.000406848 -0.0475791 2.93254 -11.4827 -30.8069 0 0.0234885
5 5 0.001 -0.00819955 -0.000613894 -0.0483847 -18.0491 -12.4713 -67.7361 0 0.0251327
473 17 0.001 -0.00897196 -0.000202239 -0.0486531 -15.5101 43.9447 59.8815 0 0.0156618
933 21 0.001 -0.010804 0.000233613 -0.0516087 33.6399 -6.39807 41.6228 0 0.0477818
934 21 0.001 -0.00796886 -3.23628e-05 -0.0479064 -17.2826 -1.60139 -52.838 0 0.0618753
935 21 0.001 -0.00758244 0.000237399 -0.0530733 3.56805 -7.66852 59.4299 0 0.0582664
936 21 0.001 -0.0050958 -0.000157507 -0.0494479 14.2879 8.46612 -26.585 0 0.0295606
937 21 0.001 -0.00337372 -0.000324143 -0.0473002 -16.0289 2.51916 -36.9463 0 0.0490748
938 21 0.001 -0.00384055 0.000519184 -0.052854 6.80892 -11.2035 73.4044 0 0.0891836
939 21 0.001 -0.00312425 -0.000327877 -0.0471337 -13.6696 10.0122 -71.7285 0 0.0865124
940 21 0.001 -0.00323777 0.000275297 -0.0525883 -2.17896 -5.46002 65.8444 0 0.0698848
941 21 0.001 -0.00382745 -4.92675e-05 -0.0477743 26.1786 -0.442364 -33.7443 0 0.047201
942 21 0.001 -0.00014863 -0.000239941 -0.0492047 -0.553077 3.38748 -22.8114 0 0.0555793
943 21 0.001 0.00285264 2.17276e-05 -0.0536551 -30.3016 -1.98738 74.4227 0 0.113337
944 21 0.001 0.00109437 -8.17036e-07 -0.0467203 -1.44539 0.59038 -73.5315 0 0.0973713
945 21 0.001 -0.000396349 5.63331e-05 -0.0507839 36.3213 -1.59933 12.4046 0 0.052029
946 21 0.001 0.00403078 -5.2858e-05 -0.0528079 -9.47214 2.12819 54.944 0 0.0914173
947 21 0.001 0.00473065 0.000103224 -0.0462825 -3.95917 -2.4043 -90.4202 0 0.131813
948 21 0.001 0.00426448 -4.1996e-05 -0.0532129 7.45463 0.926229 87.0713 0 0.129356
949 21 0.001 0.00585565 5.46194e-06 -0.0469604 12.8302 -0.178514 -63.6603 0 0.0944221
950 21 0.001 0.00729432 5.16366e-06 -0.0519681 19.6869 0.663687 34.9428 0 0.0400629
951 21 0.001 0.00738669 5.24951e-06 -0.0494455 -43.4646 -0.687658 -13.8406 0 0.00899841
7 7 0.001 0.01 0 -0.05 65.6002 3.1298 -42.8055 0 0.00722003
723 20 0.001 0.0112304 -0.000316639 -0.0476842 -21.6113 17.6631 -13.9873 0 0.0231767
952 21 0.001 0.0096956 -1.74319e-05 -0.0502549 -66.511 -2.70195 62.9905 0 0.00492633
1183 24 0.001 0.0105362 9.84715e-06 -0.0483672 5.85641 -0.155012 -14.1569 0 0.00671373
1184 24 0.001 0.0124131 -2.63828e-06 -0.0502581 26.6854 0.102577 4.97572 0 0.00680342
1185 24 0.001 0.0125026 -3.63786e-06 -0.0520044 -14.989 0.0352538 28.4723 0 0.0250775
1186 24 0.001 0.0132464 2.5473e-06 -0.047609 -1.2522 -0.137365 -32.8224 0 0.037274
1187 24 0.001 0.0158673 -3.04853e-06 -0.0500488 -0.212623 0.163734 7.49233 0 0.0156294
1188 24 0.001 0.0166298 6.11041e-06 -0.0519451 8.05777 -0.0319166 29.0922 0 0.0192641
1189 24 0.001 0.0160022 -1.32294e-05 -0.0480822 10.8963 0.176857 -34.4473 0 0.0305147
1190 24 0.001 0.0173589 1.89429e-05 -0.0514091 -3.51496 -0.305076 8.08381 0 0.0285021
1191 24 0.001 0.0195197 -4.86149e-06 -0.0483637 -2.19395 0.0987811 -21.9181 0 0.0354258
1192 24 0.001 0.0201978 -1.62779e-05 -0.0525036 -15.0101 0.308205 56.7804 0 0.065256
1193 24 0.001 0.0205706 2.84748e-05 -0.0467704 -6.99826 -0.760549 -83.8958 0 0.118432
1194 24 0.001 0.0211559 -3.51948e-05 -0.0538336 1.10152 0.916788 101.708 0 0.169431
1195 24 0.001 0.0216489 3.69505e-05 -0.0458993 2.65991 -0.934908 -104.342 0 0.17892
1196 24 0.001 0.0223189 -3.03699e-05 -0.0533388 13.6029 0.755982 82.4454 0 0.137122
1197 24 0.001 0.024887 1.80481e-05 -0.0476824 -11.9311 -0.574443 -66.7861 0 0.084803
1198 24 0.001 0.0240637 -1.30616e-05 -0.0525404 16.5283 0.406809 60.433 0 0.0702622
1199 24 0.001 0.0258139 1.31929e-05 -0.0473767 1.0603 -0.271343 -41.6866 0 0.0582946
1200 24 0.001 0.0269226 -1.85395e-05 -0.051287 -28.6655 0.501141 16.1046 0 0.0193007
1201 24 0.001 0.0278977 1.24479e-05 -0.0501795 7.51895 -1.2531 -25.0326 0 0.0018968
9 9 0.001 0.03 0 -0.05 14.1971 11.6547 14.7873 0 0.00648031
973 23 0.001 0.0312304 -0.000316639 -0.0476842 -21.6113 17.6631 -13.9873 0 0.0231767
1202 24 0.001 0.0296619 5.04233e-06 -0.0497408 -12.0065 2.23911 32.874 0 0.00199536
1433 27 0.001 0.0304956 -0.000861472 -0.0489677 -1.76806 -9.68265 -16.6299 0 0.003125
1434 27 0.001 0.0320972 -0.000165481 -0.0502178 33.8047 3.25275 23.6862 0 0.00379283
1435 27 0.001 0.0321772 0.00153433 -0.050437 -12.8459 -10.7434 -16.8869 0 0.00933152
1436 27 0.001 0.0335177 -0.00115163 -0.0507777 -26.3735 35.1633 -2.20943 0 0.0136251
1437 27 0.001 0.0352307 -9.85233e-05 -0.0490876 24.2135 -108.351 -34.9041 0 0.00539039
1438 27 0.001 0.036008 -3.04698e-05 -0.0486545 -13.3392 79.5504 22.0494 0 0.00856183
1439 27 0.001 0.0369072 -0.000149344 -0.0515747 3.54518 -3.42865 20.2264 0 0.0162435
1440 27 0.001 0.0396745 0.000778516 -0.0511371 -20.3549 -12.6241 28.2632 0 0.0470314
1441 27 0.001 0.0370645 -0.000817313 -0.0466344 36.399 22.2126 -48.8075 0 0.0719651
1442 27 0.001 0.040249 8.49364e-05 -0.0504417 -24.2067 -13.8436 -3.23306 0 0.0417128
1443 27 0.001 0.0422144 0.000592029 -0.0528141 -12.6867 -1.77871 53.7668 0 0.0545415
1444 27 0.001 0.0414003 -0.000597076 -0.0472177 12.2991 16.7477 -79.8865 0 0.105011
1445 27 0.001 0.0408707 0.000804167 -0.0535155 12.1373 -17.6406 77.5277 0 0.105366
1446 27 0.001 0.0417502 -0.000469132 -0.0479282 16.8862 9.85429 -40.8862 0 0.0894622
1447 27 0.001 0.0473403 -0.000240968 -0.0489215 -46.6188 2.51035 -10.8994 0 0.0561642
1448 27 0.001 0.0464102 0.000527708 -0.052202 -11.5024 -10.0388 39.811 0 0.0382457
1449 27 0.001 0.0450917 -0.000449775 -0.0479165 13.0078 11.8686 -49.5008 0 0.050819
1450 27 0.001 0.0448269 0.000477521 -0.0523567 22.9653 -10.0152 33.2975 0 0.0332622
1451 27 0.001 0.0474923 6.98852e-05 -0.051015 -3.81572 6.45481 9.84924 0 0.0197195
1452 27 0.001 0.0492341 -0.000113007 -0.0481056 -11.285 -2.98304 -2.82655 0 0.0171357
11 11 0.001 0.0489202 -0.000108166 -0.0454649 5.56949 5.19586 -40.631 0 0.028834
1223 26 0.001 0.0505464 -0.000229999 -0.0495624 -18.3516 19.4819 16.7307 0 0.0381535
14 13 0.001 -0.0511374 0.00274968 -0.0482145 7.72097 -22.7139 -17.3697 0 0.0211827
224 14 0.001 -0.0314539 0.0026354 -0.048194 16.4921 -13.7266 -33.2192 0 0.0247853
474 17 0.001 -0.0114408 0.00264008 -0.0481845 10.0947 -18.1242 -28.7194 0 0.0250968
724 20 0.001 0.00859102 0.00263174 -0.0480373 17.9818 -20.4861 -15.8799 0 0.0280547
974 23 0.001 0.028591 0.00263174 -0.0480373 17.9818 -20.4861 -15.8799 0 0.0280547
1224 26 0.001 0.0486124 0.00265068 -0.0482043 13.813 -14.3685 -11.3502 0 0.024046
17 13 0.001 -0.0516919 0.00427043 -0.0480296 -9.81452 -19.5188 2.05484 0 0.0282727
15 13 0.001 -0.0512158 0.00142764 -0.0509325 14.7312 11.7929 39.1584 0 0.0313268
16 13 0.001 -0.0490353 0.00214601 -0.0471832 -23.6026 10.9653 -24.9901 0 0.0356726
226 14 0.001 -0.0291146 0.00226386 -0.0471172 -20.3834 10.6723 -27.4322 0 0.0355914
227 14 0.001 -0.03175 0.00418935 -0.0480304 -11.3536 -20.5468 3.85731 0 0.0269855
225 14 0.001 -0.0309608 0.00159536 -0.0511366 5.8929 4.56876 44.1577 0 0.0335115
477 17 0.001 -0.011747 0.00418857 -0.0480309 -11.3237 -20.4831 3.85558 0 0.0269975
475 17 0.001 -0.0109645 0.00159251 -0.0511321 10.1564 6.11781 44.2964 0 0.0335125
476 17 0.001 -0.00910929 0.00226324 -0.0471205 -20.4732 10.648 -27.3785 0 0.0355614
727 20 0.001 0.00897881 0.00437891 -0.0460227 -21.2601 -7.4336 -35.8287 0 0.0648362
725 20 0.001 0.00866221 0.00149767 -0.0511003 8.74413 5.03113 39.2696 0 0.0286619
726 20 0.001 0.0106882 0.001647 -0.047627 -24.499 8.37472 -6.91272 0 0.0318862
976 23 0.001 0.0306882 0.001647 -0.047627 -24.499 8.37472 -6.91272 0 0.0318862
977 23 0.001 0.0289788 0.00437891 -0.0460227 -21.2601 -7.4336 -35.8287 0 0.0648362
975 23 0.001 0.0286622 0.00149767 -0.0511003 8.74413 5.03113 39.2696 0 0.0286619
1227 26 0.001 0.0482406 0.00418507 -0.0480368 -11.0692 -20.3672 3.09184 0 0.0273683
1225 26 0.001 0.0489578 0.00153015 -0.0511048 9.05231 -3.46102 47.5441 0 0.0335085
1226 26 0.001 0.0508822 0.00223884 -0.0471078 -21.2667 10.4979 -27.2274 0 0.0360541
19 13 0.001 -0.0566428 0.000900039 -0.0453868 24.3251 28.1615 -16.6539 0 0.0323763
20 13 0.001 -0.0557128 0.000394044 -0.0434844 -2.31317 -0.158785 -30.5042 0 0.0244115
18 13 0.001 -0.0554091 0.00413465 -0.0487787 15.7959 -17.8822 19.4494 0 0.0451873
230 14 0.001 -0.0357161 0.000381922 -0.0434736 -2.79774 0.0637971 -30.448 0 0.0244
228 14 0.001 -0.0354485 0.00411009 -0.048808 16.0449 -17.109 19.0795 0 0.0449724
229 14 0.001 -0.0366252 0.000936777 -0.0453442 24.303 27.1848 -17.0417 0 0.0322032
480 17 0.001 -0.0157161 0.000382932 -0.0434743 -2.76108 0.0389013 -30.4558 0 0.0244006
478 17 0.001 -0.0154462 0.00411185 -0.0488065 16.0363 -17.1705 19.0455 0 0.0449792
479 17 0.001 -0.0166271 0.00093533 -0.0453467 24.3003 27.2639 -16.9988 0 0.0322148
729 20 0.001 0.0032635 0.000203408 -0.0455438 21.7771 42.5602 -29.7707 0 0.0635066
730 20 0.001 0.00438745 0.000690967 -0.0435917 3.88044 -0.354104 -27.2092 0 0.0237164
728 20 0.001 0.00443635 0.00473914 -0.0500424 22.7603 -30.547 54.1038 0 0.111284
980 23 0.001 0.0243875 0.000690967 -0.0435917 3.88044 -0.354104 -27.2092 0 0.0237164
978 23 0.001 0.0244364 0.00473914 -0.0500424 22.7603 -30.547 54.1038 0 0.111284
979 23 0.001 0.0232635 0.000203408 -0.0455438 21.7771 42.5602 -29.7707 0 0.0635066
1230 26 0.001 0.0442878 0.000366503 -0.0434649 -3.24949 0.342412 -30.4732 0 0.0244158
1228 26 0.001 0.0445326 0.00411552 -0.0488501 16.2348 -17.0484 20.1562 0 0.0456159
1229 26 0.001 0.0434046 0.000954764 -0.0453171 24.2873 26.4554 -17.6141 0 0.0325807
23 13 0.001 -0.0543874 -0.000457897 -0.042284 -13.8994 -2.51892 -53.1714 0 0.0695799
233 14 0.001 -0.0343873 -0.000458585 -0.0422848 -13.9072 -2.50684 -53.1613 0 0.0695767
483 17 0.001 -0.0143873 -0.000458535 -0.0422847 -13.9077 -2.50738 -53.1619 0 0.0695773
733 20 0.001 0.00561488 -0.000425735 -0.0422515 -14.2153 -3.33172 -53.527 0 0.0695278
983 23 0.001 0.0256149 -0.000425735 -0.0422515 -14.2153 -3.33172 -53.527 0 0.0695278
1233 26 0.001 0.0456129 -0.000459256 -0.0422854 -13.8876 -2.50325 -53.1581 0 0.0695651
21 13 0.001 -0.0559882 0.00128916 -0.0476642 1.39807 -4.20806 24.1409 0 0.0229144
22 13 0.001 -0.0552446 0.00218131 -0.0462854 -8.77023 -19.947 26.443 0 0.0312283
231 14 0.001 -0.0359884 0.00128124 -0.0476608 1.76177 -3.92704 24.4896 0 0.0230258
232 14 0.001 -0.0352436 0.00218269 -0.0462856 -8.79115 -19.6378 26.246 0 0.0312436
481 17 0.001 -0.0159883 0.00128179 -0.0476611 1.74581 -3.93752 24.4664 0 0.0230177
482 17 0.001 -0.0152437 0.00218264 -0.0462856 -8.79715 -19.6553 26.2602 0 0.0312429
731 20 0.001 0.0040417 0.00129601 -0.0477129 2.61391 -4.26248 18.6593 0 0.0214956
732 20 0.001 0.00470504 0.00209632 -0.0462735 -9.04274 -27.1499 30.4531 0 0.0305951
981 23 0.001 0.0240417 0.00129601 -0.0477129 2.61391 -4.26248 18.6593 0 0.0214956
982 23 0.001 0.024705 0.00209632 -0.0462735 -9.04274 -27.1499 30.4531 0 0.0305951
1231 26 0.001 0.0440105 0.00127493 -0.0476576 1.97323 -3.80486 24.8202 0 0.0231311
1232 26 0.001 0.044759 0.00218298 -0.046286 -8.67038 -19.4091 26.0474 0 0.0312487
25 13 0.001 -0.0548772 -0.00117385 -0.044707 2.40548 -16.7747 18.5368 0 0.0366342
26 13 0.001 -0.0545321 -0.000746525 -0.0400018 -4.45033 -17.8285 -56.1018 0 0.0621376
235 14 0.001 -0.034877 -0.00117397 -0.044707 2.39971 -16.7756 18.5375 0 0.0366381
236 14 0.001 -0.034532 -0.000746366 -0.0400018 -4.45084 -17.8309 -56.1038 0 0.0621413
485 17 0.001 -0.014877 -0.00117396 -0.044707 2.40007 -16.7756 18.5374 0 0.0366378
486 17 0.001 -0.014532 -0.000746375 -0.0400018 -4.45083 -17.8308 -56.1037 0 0.0621411
735 20 0.001 0.00511518 -0.00116892 -0.044706 2.66736 -16.7378 18.5151 0 0.036467
736 20 0.001 0.00546398 -0.000753324 -0.0400006 -4.42274 -17.7251 -56.0191 0 0.0619794
985 23 0.001 0.0251152 -0.00116892 -0.044706 2.66736 -16.7378 18.5151 0 0.036467
986 23 0.001 0.025464 -0.000753324 -0.0400006 -4.42274 -17.7251 -56.0191 0 0.0619794
1235 26 0.001 0.0451232 -0.00117408 -0.0447071 2.39607 -16.7761 18.538 0 0.0366413
1236 26 0.001 0.0454681 -0.000746249 -0.0400019 -4.45072 -17.833 -56.1056 0 0.0621444
24 13 0.001 -0.0557281 -0.00333937 -0.0467292 13.3322 30.1508 39.9863 0 0.0484552
234 14 0.001 -0.0357286 -0.0033399 -0.0467292 13.3382 30.1528 39.9808 0 0.048448
484 17 0.001 -0.0157286 -0.00333987 -0.0467292 13.3381 30.1526 39.9811 0 0.0484486
734 20 0.001 0.00429477 -0.00331577 -0.0467315 13.2744 30.053 40.1846 0 0.0487898
984 23 0.001 0.0242948 -0.00331577 -0.0467315 13.2744 30.053 40.1846 0 0.0487898
1234 26 0.001 0.0442707 -0.00334029 -0.046729 13.3362 30.1547 39.9774 0 0.0484409
27 13 0.001 -0.0550235 -0.00265639 -0.044754 16.7348 20.154 33.5795 0 0.05132
28 13 0.001 -0.0513707 -0.00348865 -0.0436067 -22.2218 14.0762 24.5564 0 0.048388
29 13 0.001 -0.0529628 -0.00270709 -0.0389718 19.0948 10.221 -28.8791 0 0.0349229
30 13 0.001 -0.0524794 -0.0016424 -0.040983 8.83438 -13.0035 -17.1696 0 0.0319749
237 14 0.001 -0.0350235 -0.00265634 -0.0447542 16.735 20.155 33.5823 0 0.0513232
238 14 0.001 -0.0313709 -0.00348867 -0.0436066 -22.2196 14.0762 24.5535 0 0.048385
239 14 0.001 -0.0329627 -0.00270707 -0.0389718 19.0938 10.2205 -28.8786 0 0.0349202
240 14 0.001 -0.0324794 -0.00164241 -0.040983 8.83428 -13.0027 -17.1686 0 0.031975
487 17 0.001 -0.0150235 -0.00265634 -0.0447542 16.7349 20.155 33.5821 0 0.051323
488 17 0.001 -0.0113708 -0.00348867 -0.0436066 -22.2198 14.0762 24.5537 0 0.0483851
489 17 0.001 -0.0129627 -0.00270707 -0.0389718 19.0938 10.2206 -28.8787 0 0.0349204
490 17 0.001 -0.0124794 -0.00164241 -0.040983 8.83428 -13.0028 -17.1686 0 0.031975
737 20 0.001 0.00497557 -0.00265859 -0.044745 16.7244 20.1117 33.4626 0 0.0511883
738 20 0.001 0.00863552 -0.00348751 -0.0436129 -22.3151 14.0735 24.6772 0 0.0485205
739 20 0.001 0.00703504 -0.00270808 -0.0389728 19.1406 10.2389 -28.8998 0 0.0350385
740 20 0.001 0.00752065 -0.00164237 -0.0409832 8.83978 -13.0368 -17.2109 0 0.0319711
987 23 0.001 0.0249756 -0.00265859 -0.044745 16.7244 20.1117 33.4626 0 0.0511883
988 23 0.001 0.0286355 -0.00348751 -0.0436129 -22.3151 14.0735 24.6772 0 0.0485205
989 23 0.001 0.027035 -0.00270808 -0.0389728 19.1406 10.2389 -28.8998 0 0.0350385
990 23 0.001 0.0275207 -0.00164237 -0.0409832 8.83978 -13.0368 -17.2109 0 0.0319711
1237 26 0.001 0.0449765 -0.0026563 -0.0447543 16.7353 20.1559 33.5843 0 0.0513256
1238 26 0.001 0.048629 -0.00348869 -0.0436064 -22.2181 14.0763 24.5514 0 0.0483828
1239 26 0.001 0.0470373 -0.00270705 -0.0389718 19.093 10.2202 -28.8783 0 0.0349182
1240 26 0.001 0.0475206 -0.00164241 -0.040983 8.83418 -13.0021 -17.1679 0 0.0319751
31 13 0.001 -0.0487926 -0.00185158 -0.0440029 -27.067 1.73524 43.3844 0 0.0524827
241 14 0.001 -0.0287926 -0.00185157 -0.0440029 -27.0674 1.73481 43.3848 0 0.0524837
491 17 0.001 -0.00879258 -0.00185157 -0.0440029 -27.0674 1.73484 43.3848 0 0.0524836
741 20 0.001 0.0112072 -0.00185191 -0.0440028 -27.051 1.75273 43.3663 0 0.0524417
991 23 0.001 0.0312072 -0.00185191 -0.0440028 -27.051 1.75273 43.3663 0 0.0524417
1241 26 0.001 0.0512074 -0.00185157 -0.0440029 -27.0677 1.73452 43.3851 0 0.0524844
32 13 0.001 -0.050033 -0.00199344 -0.0397075 0.42805 2.64553 -22.9747 0 0.0273906
33 13 0.001 -0.0513424 -0.00024039 -0.0391193 10.3598 21.8604 9.69624 0 0.0162323
242 14 0.001 -0.030033 -0.00199346 -0.0397074 0.428318 2.64543 -22.9751 0 0.0273913
243 14 0.001 -0.0313424 -0.000240382 -0.0391194 10.3585 21.8608 9.69667 0 0.0162317
492 17 0.001 -0.010033 -0.00199346 -0.0397074 0.4283 2.64544 -22.9751 0 0.0273912
493 17 0.001 -0.0113424 -0.000240382 -0.0391194 10.3585 21.8608 9.69662 0 0.0162317
742 20 0.001 0.00996804 -0.00199244 -0.0397097 0.417313 2.64994 -22.9553 0 0.0273599
743 20 0.001 0.00865712 -0.00024073 -0.039117 10.4147 21.843 9.67645 0 0.0162593
992 23 0.001 0.029968 -0.00199244 -0.0397097 0.417322 2.64993 -22.9553 0 0.0273599
993 23 0.001 0.0286571 -0.00024073 -0.039117 10.4148 21.8429 9.67646 0 0.0162593
1242 26 0.001 0.049967 -0.00199348 -0.0397074 0.428499 2.64536 -22.9754 0 0.0273918
1243 26 0.001 0.0486576 -0.000240376 -0.0391194 10.3576 21.8611 9.697 0 0.0162312
34 13 0.001 -0.0495462 0.00217435 -0.0409808 -20.7659 -1.27384 10.0628 0 0.0146662
244 14 0.001 -0.0295461 0.00217433 -0.0409808 -20.7676 -1.27255 10.0602 0 0.0146655
494 17 0.001 -0.00954613 0.00217433 -0.0409808 -20.7676 -1.2726 10.0603 0 0.0146656
744 20 0.001 0.0104528 0.00217519 -0.0409816 -20.6936 -1.32983 10.174 0 0.0146948
994 23 0.001 0.0304528 0.00217519 -0.0409816 -20.6935 -1.3299 10.1741 0 0.0146948
1244 26 0.001 0.0504539 0.00217431 -0.0409808 -20.7688 -1.27162 10.0583 0 0.0146651
36 13 0.001 -0.05122 0.00173702 -0.0369547 -1.17614 -7.12399 -9.19549 0 0.00808481
35 13 0.001 -0.050186 0.00120375 -0.0394675 -1.83219 -18.6336 -17.9147 0 0.00805944
245 14 0.001 -0.0301861 0.0012038 -0.0394675 -1.82904 -18.6343 -17.9123 0 0.00805924
246 14 0.001 -0.03122 0.001737 -0.0369547 -1.17741 -7.12429 -9.19545 0 0.0080849
496 17 0.001 -0.01122 0.001737 -0.0369547 -1.1775 -7.12421 -9.1954 0 0.00808494
495 17 0.001 -0.0101861 0.00120379 -0.0394675 -1.82922 -18.6342 -17.9123 0 0.00805926
746 20 0.001 0.00877946 0.00173786 -0.036955 -1.12506 -7.1091 -9.19581 0 0.00808246
745 20 0.001 0.00981545 0.00120177 -0.0394667 -1.9685 -18.6008 -18.018 0 0.00806819
995 23 0.001 0.0298155 0.00120176 -0.0394667 -1.96857 -18.6008 -18.0181 0 0.00806818
996 23 0.001 0.0287795 0.00173786 -0.036955 -1.1249 -7.10914 -9.19584 0 0.00808243
1246 26 0.001 0.04878 0.00173699 -0.0369547 -1.17818 -7.12458 -9.19547 0 0.00808491
1245 26 0.001 0.0498139 0.00120383 -0.0394676 -1.82674 -18.6349 -17.9106 0 0.00805909
38 13 0.001 -0.0532874 0.00355261 -0.0386674 -4.36929 -2.23672 -16.8562 0 0.00530533
39 13 0.001 -0.053158 0.00266766 -0.0364591 14.9502 54.0101 25.1971 0 0.00397843
37 13 0.001 -0.0516207 0.0028584 -0.0384547 -0.0619064 -11.3446 28.2101 0 0.00314416
249 14 0.001 -0.033158 0.00266766 -0.0364591 14.9504 54.0093 25.1965 0 0.00397848
247 14 0.001 -0.0316207 0.0028584 -0.0384547 -0.060578 -11.3452 28.2093 0 0.00314426
248 14 0.001 -0.0332874 0.00355261 -0.0386674 -4.37003 -2.23654 -16.8556 0 0.00530536
499 17 0.001 -0.013158 0.00266766 -0.0364591 14.9507 54.0085 25.1964 0 0.00397855
498 17 0.001 -0.0132874 0.00355261 -0.0386674 -4.3708 -2.23657 -16.8552 0 0.00530544
497 17 0.001 -0.0116207 0.0028584 -0.0384547 -0.0602848 -11.3452 28.2091 0 0.00314429
748 20 0.001 0.00671256 0.00355265 -0.0386675 -4.36012 -2.2434 -16.8683 0 0.00530609
749 20 0.001 0.006842 0.00266773 -0.0364593 14.9508 54.0196 25.2057 0 0.00397844
747 20 0.001 0.00837935 0.0028582 -0.0384544 -0.1101 -11.3238 28.2371 0 0.00314065
999 23 0.001 0.026842 0.00266774 -0.0364593 14.9506 54.0203 25.2056 0 0.00397838
997 23 0.001 0.0283794 0.0028582 -0.0384544 -0.110409 -11.3237 28.2372 0 0.00314062
998 23 0.001 0.0267126 0.00355265 -0.0386675 -4.35952 -2.24337 -16.8686 0 0.00530603
1249 26 0.001 0.046842 0.00266766 -0.0364591 14.9502 54.0096 25.1968 0 0.00397843
1248 26 0.001 0.0467126 0.00355261 -0.0386674 -4.3697 -2.23644 -16.8556 0 0.00530531
1247 26 0.001 0.0483793 0.0028584 -0.0384547 -0.0599727 -11.3455 28.209 0 0.00314431
42 13 0.001 -0.0555027 0.00148658 -0.0355092 -61.2107 -22.5375 -101.021 0 0.000294008
252 14 0.001 -0.0355027 0.00148658 -0.0355092 -61.2115 -22.5343 -101.016 0 0.000294022
502 17 0.001 -0.0155027 0.00148658 -0.0355092 -61.2042 -22.5294 -101.013 0 0.000294067
752 20 0.001 0.00449728 0.00148658 -0.0355092 -61.2124 -22.5401 -101.023 0 0.000293975
1002 23 0.001 0.0244973 0.00148658 -0.0355093 -61.2203 -22.5442 -101.025 0 0.000293933
1252 26 0.001 0.0444973 0.00148658 -0.0355092 -61.2104 -22.5371 -101.02 0 0.000294011
40 13 0.001 -0.0543251 0.00268281 -0.0364994 29.2489 -93.7809 -42.076 0 0.000339005
41 13 0.001 -0.0554429 0.00199148 -0.0367631 -9.97029 76.1523 22.5809 0 0.000547325
251 14 0.001 -0.0354429 0.00199148 -0.0367631 -9.96995 76.1508 22.5783 0 0.000547349
250 14 0.001 -0.0343251 0.00268281 -0.0364994 29.2485 -93.7802 -42.0737 0 0.000339019
501 17 0.001 -0.015443 0.00199148 -0.0367631 -9.97221 76.1479 22.5739 0 0.000547414
500 17 0.001 -0.0143251 0.00268282 -0.0364994 29.248 -93.7794 -42.0712 0 0.000339045
750 20 0.001 0.00567492 0.00268277 -0.0364993 29.2491 -93.7884 -42.1022 0 0.000338965
751 20 0.001 0.00455708 0.00199149 -0.0367631 -9.97233 76.1522 22.5997 0 0.0005473
1001 23 0.001 0.0245571 0.00199149 -0.0367631 -9.96983 76.1549 22.6036 0 0.00054724
1000 23 0.001 0.0256749 0.00268277 -0.0364993 29.2496 -93.789 -42.104 0 0.000338942
1251 26 0.001 0.0445571 0.00199148 -0.0367631 -9.97026 76.1522 22.5799 0 0.000547329
1250 26 0.001 0.0456749 0.00268281 -0.0364994 29.2488 -93.7806 -42.0748 0 0.000339008
44 13 0.001 -0.0559748 -0.000307396 -0.0348268 -17.1346 -44.0617 -76.8952 0 6.92897e-06
45 13 0.001 -0.0557535 -0.0011712 -0.0343611 -3.57081 11.6701 22.9849 0 5.94739e-06
254 14 0.001 -0.0359748 -0.000307402 -0.0348268 -17.137 -44.045 -76.8652 0 6.92883e-06
255 14 0.001 -0.0357535 -0.00117119 -0.0343611 -3.56072 11.6486 22.9379 0 5.94732e-06
504 17 0.001 -0.0159748 -0.000307397 -0.0348268 -17.1354 -44.0579 -76.8847 0 6.92913e-06
505 17 0.001 -0.0157535 -0.00117119 -0.0343611 -3.56199 11.6571 22.9548 0 5.94734e-06
754 20 0.001 0.00402522 -0.000307399 -0.0348268 -17.1355 -44.0509 -76.8744 0 6.92873e-06
755 20 0.001 0.00424648 -0.00117119 -0.0343611 -3.56135 11.653 22.9468 0 5.94733e-06
1004 23 0.001 0.0240252 -0.000307407 -0.0348268 -17.1378 -44.0325 -76.8453 0 6.92836e-06
1005 23 0.001 0.0242465 -0.00117118 -0.0343611 -3.55766 11.6385 22.9168 0 5.9473e-06
1254 26 0.001 0.0440252 -0.000307396 -0.0348268 -17.1346 -44.0619 -76.8954 0 6.92899e-06
1255 26 0.001 0.0442465 -0.0011712 -0.0343611 -3.57082 11.6701 22.9851 0 5.94739e-06
43 13 0.001 -0.0559611 0.000558838 -0.0353526 64.6287 27.2455 142.324 0 1.5167e-05
253 14 0.001 -0.0359611 0.00055884 -0.0353526 64.6304 27.2364 142.31 0 1.51667e-05
503 17 0.001 -0.0159611 0.000558832 -0.0353527 64.6248 27.2418 142.317 0 1.517e-05
753 20 0.001 0.00403891 0.000558836 -0.0353526 64.6291 27.2438 142.32 0 1.51657e-05
1003 23 0.001 0.0240389 0.000558845 -0.0353526 64.6356 27.2353 142.309 0 1.51621e-05
1253 26 0.001 0.0440389 0.000558838 -0.0353526 64.6286 27.2454 142.324 0 1.51671e-05
46 13 0.001 -0.0552889 -0.00192694 -0.0338861 0.342602 -1.87386 -3.309 0 5.98487e-06
47 13 0.001 -0.0546227 -0.00251381 -0.0334124 -0.229922 0.286868 0.676599 0 5.97839e-06
48 13 0.001 -0.0538138 -0.00287923 -0.0329383 0.144426 -0.0375552 -0.284149 0 5.97909e-06
49 13 0.001 -0.0529331 -0.00299129 -0.0324646 -0.122689 0.0164782 0.231407 0 5.979e-06
256 14 0.001 -0.0352889 -0.00192695 -0.0338861 0.319694 -1.85005 -3.24699 0 5.98488e-06
257 14 0.001 -0.0346227 -0.0025138 -0.0334124 -0.195057 0.266514 0.600336 0 5.97837e-06
258 14 0.001 -0.0338138 -0.00287924 -0.0329383 0.100384 -0.0262019 -0.198229 0 5.97909e-06
259 14 0.001 -0.0329331 -0.00299129 -0.0324645 -0.0747654 0.0178405 0.140811 0 5.979e-06
506 17 0.001 -0.0152889 -0.00192695 -0.0338861 0.321995 -1.85432 -3.25601 0 5.98488e-06
507 17 0.001 -0.0146227 -0.0025138 -0.0334124 -0.197109 0.268333 0.605492 0 5.97837e-06
508 17 0.001 -0.0138138 -0.00287924 -0.0329383 0.10182 -0.0268138 -0.201182 0 5.97909e-06
509 17 0.001 -0.0129331 -0.00299129 -0.0324645 -0.0759629 0.0178135 0.143096 0 5.97899e-06
756 20 0.001 0.00471111 -0.00192695 -0.0338861 0.321129 -1.85272 -3.25261 0 5.98488e-06
757 20 0.001 0.00537731 -0.0025138 -0.0334124 -0.196049 0.267574 0.603019 0 5.97837e-06
758 20 0.001 0.00618619 -0.00287924 -0.0329383 0.100672 -0.0264988 -0.198922 0 5.97909e-06
759 20 0.001 0.00706685 -0.00299129 -0.0324645 -0.074602 0.0179291 0.140509 0 5.97899e-06
1006 23 0.001 0.0247111 -0.00192696 -0.0338861 0.313728 -1.84261 -3.22902 0 5.98487e-06
1007 23 0.001 0.0253773 -0.0025138 -0.0334124 -0.187307 0.261384 0.582762 0 5.97837e-06
1008 23 0.001 0.0261862 -0.00287924 -0.0329383 0.0922277 -0.0236121 -0.182067 0 5.97909e-06
1009 23 0.001 0.0270668 -0.00299129 -0.0324645 -0.067377 0.0176361 0.126854 0 5.979e-06
1256 26 0.001 0.0447111 -0.00192694 -0.0338861 0.342601 -1.87387 -3.30902 0 5.98487e-06
1257 26 0.001 0.0453773 -0.00251381 -0.0334124 -0.229923 0.286869 0.676601 0 5.97839e-06
1258 26 0.001 0.0461862 -0.00287923 -0.0329383 0.144426 -0.0375553 -0.284149 0 5.97909e-06
1259 26 0.001 0.0470669 -0.00299129 -0.0324646 -0.122689 0.0164782 0.231407 0 5.979e-06
50 13 0.001 -0.0520585 -0.00284006 -0.0319904 0.100801 0.0466285 -0.208621 0 5.97905e-06
51 13 0.001 -0.0512666 -0.00243878 -0.0315167 -0.0902859 -0.0393897 0.182279 0 5.97899e-06
52 13 0.001 -0.0506274 -0.00182294 -0.0310426 0.0397566 0.0695184 -0.149996 0 5.97906e-06
260 14 0.001 -0.0320585 -0.00284005 -0.0319905 0.0555456 0.0321881 -0.118869 0 5.97904e-06
261 14 0.001 -0.0312666 -0.0024388 -0.0315166 -0.0535378 -0.0148535 0.0988056 0 5.97899e-06
262 14 0.001 -0.0306274 -0.00182293 -0.0310426 0.0148971 0.0403491 -0.0776688 0 5.97904e-06
510 17 0.001 -0.0120585 -0.00284005 -0.0319905 0.0569028 0.0327989 -0.121685 0 5.97904e-06
511 17 0.001 -0.0112666 -0.00243879 -0.0315166 -0.0552211 -0.0163857 0.103092 0 5.979e-06
512 17 0.001 -0.0106274 -0.00182293 -0.0310426 0.016697 0.0433116 -0.084198 0 5.97904e-06
760 20 0.001 0.00794149 -0.00284005 -0.0319905 0.0552346 0.0320761 -0.118251 0 5.97904e-06
761 20 0.001 0.00873337 -0.0024388 -0.0315166 -0.0532926 -0.0147257 0.0982913 0 5.97899e-06
762 20 0.001 0.0093726 -0.00182293 -0.0310426 0.0147951 0.0403339 -0.0775321 0 5.97904e-06
1010 23 0.001 0.0279415 -0.00284005 -0.0319905 0.0497834 0.0307271 -0.10766 0 5.97904e-06
1011 23 0.001 0.0287334 -0.0024388 -0.0315166 -0.0497452 -0.0127068 0.0906054 0 5.979e-06
1012 23 0.001 0.0293726 -0.00182292 -0.0310426 0.0128942 0.0384794 -0.0725565 0 5.97904e-06
1260 26 0.001 0.0479415 -0.00284006 -0.0319904 0.100801 0.0466285 -0.208621 0 5.97905e-06
1261 26 0.001 0.0487334 -0.00243878 -0.0315167 -0.0902859 -0.0393897 0.182279 0 5.97899e-06
1262 26 0.001 0.0493726 -0.00182294 -0.0310426 0.0397566 0.0695184 -0.149996 0 5.97906e-06
53 13 0.001 -0.0501969 -0.00104653 -0.0305688 -0.0411185 -0.048401 0.112935 0 5.97897e-06
54 13 0.001 -0.0500133 -0.000178108 -0.0300948 -0.0076255 0.0390102 -0.072772 0 5.97906e-06
263 14 0.001 -0.030197 -0.00104655 -0.0305687 -0.0282543 -0.0208196 0.05558 0 5.97899e-06
264 14 0.001 -0.0300133 -0.000178098 -0.0300948 -0.0115315 0.0180938 -0.0328595 0 5.97904e-06