ITEM: TIMESTEP
3
ITEM: NUMBER OF ATOMS
1472
ITEM: BOX BOUNDS ff ff ff
-6.0000000000000005e-02 6.0000000000000005e-02
-6.0000000000000001e-03 6.0000000000000001e-03
-5.5000000000000000e-02 5.5000000000000000e-02
ITEM: ATOMS id type radius x y z fx fy fz c_bendingE c_stretchingE
1 1 0.001 -0.0500915 -1.97345e-06 -0.0499776 -1.2889 1.84743 -3.49108 0 1.27425e-05
13 13 0.001 -0.0501105 0.000886778 -0.0495321 2.78152 -5.99008 11.1891 0 6.27029e-06
433 15 0.001 -0.0490459 -2.31656e-07 -0.0499978 -0.778062 0.145597 -0.010566 0 1.35015e-05
434 15 0.001 -0.0480989 8.08869e-07 -0.0500052 0.066448 -0.14218 0.0394158 0 4.31172e-06
435 15 0.001 -0.0471433 -4.27374e-07 -0.0499973 -0.0156371 0.196329 -1.01587 0 3.66055e-06
436 15 0.001 -0.0461894 -2.36417e-08 -0.0499999 -0.0269693 -0.254715 1.78023 0 4.1351e-06
437 15 0.001 -0.0452392 0 -0.05 0.0260259 0.0953424 -0.8583 0 4.17325e-06
438 15 0.001 -0.0442858 0 -0.05 -0.00300542 0.0142444 0.0268627 0 3.9055e-06
439 15 0.001 -0.0433327 0 -0.05 -0.0326941 0 0 0 4.05966e-06
440 15 0.001 -0.0423811 0 -0.05 0.00568202 0 0 0 4.11697e-06
441 15 0.001 -0.0414287 0 -0.05 0.0240657 0 0 0 4.02749e-06
442 15 0.001 -0.040476 0 -0.05 0.0373115 0 0 0 4.07401e-06
443 15 0.001 -0.0395241 0 -0.05 -0.0402963 0 0 0 4.10731e-06
444 15 0.001 -0.0385718 0 -0.05 0.00593034 0 0 0 4.0035e-06
445 15 0.001 -0.0376188 0 -0.05 -0.0233139 0 0 0 3.95434e-06
446 15 0.001 -0.0366659 0 -0.05 -0.0277186 0 0 0 4.16667e-06
447 15 0.001 -0.0357152 0 -0.05 0.0547658 -0.0954118 0.316857 0 4.11009e-06
448 15 0.001 -0.0347616 0 -0.05 -0.00876911 0.430454 -1.7538 0 3.94852e-06
449 15 0.001 -0.0338092 1.01868e-07 -0.0500003 0.00628633 -0.912898 4.31358 0 3.84227e-06
450 15 0.001 -0.0328543 -7.96439e-07 -0.0499962 -0.0815299 1.19348 -5.61925 0 4.40258e-06
451 15 0.001 -0.0319076 1.17163e-06 -0.0500065 0.071984 -1.01564 3.75649 0 4.52716e-06
223 14 0.001 -0.0301106 0.000886365 -0.0495314 2.73256 -5.8712 11.0882 0 6.27461e-06
452 15 0.001 -0.0309543 -3.5874e-07 -0.0499974 -0.543931 0.539657 -1.08704 0 1.96779e-05
3 3 0.001 -0.0300718 -2.05024e-06 -0.049977 -0.680553 1.65556 -3.45232 0 2.57565e-05
683 18 0.001 -0.029046 -3.25141e-07 -0.0499976 -0.620407 0.230926 0.000249124 0 8.72705e-06
684 18 0.001 -0.0280986 9.96952e-07 -0.0500057 0.0661934 -0.216508 0.0364481 0 4.25107e-06
685 18 0.001 -0.0271427 -5.21442e-07 -0.0499971 -0.0367992 0.254355 -1.12298 0 3.83653e-06
686 18 0.001 -0.0261911 -2.36749e-08 -0.0499999 0.0135237 -0.319114 1.95605 0 4.08262e-06
687 18 0.001 -0.0252382 0 -0.05 0.0207005 0.124041 -0.935847 0 3.9508e-06
688 18 0.001 -0.0242851 0 -0.05 -0.0534605 0.014441 0.0271601 0 4.07353e-06
689 18 0.001 -0.0233336 0 -0.05 0.0302497 0 0 0 4.1173e-06
690 18 0.001 -0.022381 0 -0.05 0.0045225 0 0 0 3.97198e-06
691 18 0.001 -0.0214279 0 -0.05 0.00582845 0 0 0 4.10395e-06
692 18 0.001 -0.0204768 0 -0.05 0.0385017 0 0 0 4.09608e-06
693 18 0.001 -0.0195235 0 -0.05 -0.0145791 0 0 0 4.07152e-06
694 18 0.001 -0.0185722 0 -0.05 -0.0668413 0 0 0 4.0106e-06
695 18 0.001 -0.0176182 0 -0.05 0.0425912 0 0 0 4.03905e-06
696 18 0.001 -0.0166671 0 -0.05 -0.00647066 0 0 0 4.11837e-06
697 18 0.001 -0.0157141 0 -0.05 0.00395547 -0.0955917 0.317072 0 4.0168e-06
698 18 0.001 -0.0147619 0 -0.05 -0.0116501 0.429613 -1.74547 0 4.09759e-06
699 18 0.001 -0.0138098 1.02394e-07 -0.0500003 -0.00641469 -0.913023 4.30352 0 4.03884e-06
700 18 0.001 -0.012857 -7.95595e-07 -0.0499962 0.00511285 1.18893 -5.58531 0 3.7392e-06
701 18 0.001 -0.0119013 1.17543e-06 -0.0500065 -0.0748797 -1.01455 3.72362 0 4.69498e-06
702 18 0.001 -0.0109576 -3.63825e-07 -0.0499974 -0.447601 0.545826 -1.08489 0 1.97411e-05
5 5 0.001 -0.0100725 -2.05385e-06 -0.049977 -0.724229 1.65239 -3.44791 0 2.42757e-05
473 17 0.001 -0.0101106 0.000886369 -0.0495314 2.73389 -5.86794 11.0804 0 6.273e-06
933 21 0.001 -0.00904943 -3.26543e-07 -0.0499976 -0.573404 0.230653 -0.00144849 0 7.85662e-06
934 21 0.001 -0.00809885 9.9969e-07 -0.0500057 0.0696232 -0.216601 0.0382055 0 3.68488e-06
935 21 0.001 -0.00713932 -5.22848e-07 -0.0499971 -0.0837122 0.255432 -1.12582 0 3.81777e-06
936 21 0.001 -0.00619007 -2.36985e-08 -0.0499999 0.0233802 -0.319986 1.9576 0 4.40279e-06
937 21 0.001 -0.00523827 0 -0.05 -0.0126354 0.124179 -0.93551 0 4.08441e-06
938 21 0.001 -0.00428563 0 -0.05 -0.0261862 0.0144846 0.0271884 0 4.05804e-06
939 21 0.001 -0.00333354 0 -0.05 0.0859109 0 0 0 4.09329e-06
940 21 0.001 -0.00238129 0 -0.05 -0.0133124 0 0 0 3.98581e-06
941 21 0.001 -0.00142797 0 -0.05 -0.0309992 0 0 0 3.99332e-06
942 21 0.001 -0.000475807 0 -0.05 0.0172551 0 0 0 4.14733e-06
943 21 0.001 0.000475771 0 -0.05 -0.0615951 0 0 0 4.1551e-06
944 21 0.001 0.00142784 0 -0.05 0.0546305 0 0 0 3.98942e-06
945 21 0.001 0.00238131 0 -0.05 0.0127254 0 0 0 3.96819e-06
946 21 0.001 0.00333362 0 -0.05 0.00174942 0 0 0 4.04821e-06
947 21 0.001 0.00428615 0 -0.05 -0.0093139 -6.5429e-05 0.00996925 0 4.11824e-06
948 21 0.001 0.00523769 0 -0.05 -0.0122167 0.000165026 -0.015002 0 4.11506e-06
949 21 0.001 0.00619026 -1.59431e-10 -0.05 0.00147521 -0.000118804 -0.0248638 0 4.00585e-06
950 21 0.001 0.00714301 4.81871e-10 -0.0500001 -0.00535858 -4.2481e-05 0.0880107 0 4.04935e-06
951 21 0.001 0.00809509 -3.25952e-10 -0.0499999 0.00412151 0.000233401 -0.117232 0 4.06289e-06
7 7 0.001 0.01 0 -0.05 -1.42671 1.40689 -2.43929 0 7.30321e-06
723 20 0.001 0.00988816 0.000883727 -0.0495278 1.82816 -3.83406 7.22513 0 7.63762e-06
952 21 0.001 0.0090477 -1.55943e-10 -0.0500001 -0.00233549 -0.000296836 0.0851358 0 4.04279e-06
1183 24 0.001 0.0109523 1.57708e-10 -0.0500001 -0.000221611 9.19548e-05 0.0199564 0 4.06982e-06
1184 24 0.001 0.0119046 3.14507e-10 -0.05 0.00478893 1.01182e-05 -0.027835 0 4.01912e-06
1185 24 0.001 0.0128575 -2.54867e-10 -0.0500001 -0.00422802 -2.5526e-05 0.0103452 0 4.01285e-06
1186 24 0.001 0.0138098 -5.50968e-12 -0.0499999 -0.00689492 2.50262e-05 0.0129215 0 4.13862e-06
1187 24 0.001 0.0147613 0 -0.05 -0.00571659 -5.25744e-05 -0.0192114 0 4.064e-06
1188 24 0.001 0.0157145 0 -0.05 0.010935 2.1188e-05 0.00817043 0 4.00402e-06
1189 24 0.001 0.0166667 0 -0.05 0.0212691 0 0 0 4.10386e-06
1190 24 0.001 0.0176188 0 -0.05 -0.0335808 0 0 0 3.99927e-06
1191 24 0.001 0.0185721 0 -0.05 -0.0176504 0 0 0 4.08694e-06
1192 24 0.001 0.0195232 0 -0.05 0.0821986 0 0 0 4.09608e-06
1193 24 0.001 0.0204765 0 -0.05 -0.0145793 0 0 0 4.07152e-06
1194 24 0.001 0.0214278 0 -0.05 -0.0450566 0 0 0 4.0106e-06
1195 24 0.001 0.0223818 0 -0.05 -0.0455685 0 0 0 4.0488e-06
1196 24 0.001 0.0233328 0 -0.05 0.0420261 0 0 0 4.10151e-06
1197 24 0.001 0.0242861 0 -0.05 0.0103473 -6.53457e-05 0.00996308 0 4.00061e-06
1198 24 0.001 0.0252382 0 -0.05 -0.00235743 0.000165238 -0.0149832 0 4.13799e-06
1199 24 0.001 0.02619 -1.57157e-10 -0.05 0.0116915 -0.000120861 -0.0248914 0 4.03463e-06
1200 24 0.001 0.0271432 4.77056e-10 -0.0500001 -0.012784 -3.72643e-05 0.0880798 0 4.04711e-06
1201 24 0.001 0.0280948 -3.18743e-10 -0.0499999 0.0104957 0.000226397 -0.117292 0 4.07179e-06
9 9 0.001 0.03 0 -0.05 -1.42653 1.40689 -2.43932 0 7.32163e-06
973 23 0.001 0.0298882 0.000883727 -0.0495278 1.82816 -3.83406 7.22513 0 7.63762e-06
1202 24 0.001 0.0290478 -1.64856e-10 -0.0500001 -0.00610041 -0.000291773 0.0851582 0 4.02158e-06
1433 27 0.001 0.0309522 1.52121e-10 -0.0500001 0.00258416 9.29446e-05 0.0199851 0 4.05472e-06
1434 27 0.001 0.0319048 3.15618e-10 -0.05 0.000892083 8.75458e-06 -0.0278731 0 4.01586e-06
1435 27 0.001 0.0328574 -2.5745e-10 -0.0500001 -0.00896008 -2.49387e-05 0.0103947 0 4.10771e-06
1436 27 0.001 0.033809 -2.72984e-12 -0.0499999 0.0120701 2.47699e-05 0.0128419 0 4.07361e-06
1437 27 0.001 0.034762 0 -0.05 -0.0185689 -5.18721e-05 -0.0191467 0 3.92882e-06
1438 27 0.001 0.0357152 0 -0.05 -0.0186485 2.07784e-05 0.00815762 0 4.13207e-06
1439 27 0.001 0.036666 0 -0.05 0.0574561 0 0 0 4.15817e-06
1440 27 0.001 0.0376188 0 -0.05 0.00654765 0 0 0 3.90138e-06
1441 27 0.001 0.0385725 0 -0.05 -0.0939676 0 0 0 4.15643e-06
1442 27 0.001 0.0395226 0 -0.05 0.117297 0 0 0 4.14018e-06
1443 27 0.001 0.0404765 0 -0.05 -0.0136364 0 0 0 3.94758e-06
1444 27 0.001 0.0414286 0 -0.05 -0.0652777 0 0 0 4.09471e-06
1445 27 0.001 0.0423808 0 -0.05 0.068162 0 0 0 4.06212e-06
1446 27 0.001 0.0433333 0 -0.05 -0.0672842 0 0 0 4.05225e-06
1447 27 0.001 0.0442856 0 -0.05 0.0217543 -0.0827163 0.283963 0 4.07348e-06
1448 27 0.001 0.0452379 0 -0.05 0.00311195 0.355784 -1.5506 0 4.03536e-06
1449 27 0.001 0.0461906 1.02183e-07 -0.0500003 -0.0121526 -0.721566 3.80329 0 4.02419e-06
1450 27 0.001 0.047143 -6.33949e-07 -0.0499966 0.0153656 0.908194 -4.92776 0 3.75631e-06
1451 27 0.001 0.048099 8.52414e-07 -0.0500057 -0.0824504 -0.749779 3.30174 0 4.68201e-06
1452 27 0.001 0.0490426 -2.03666e-07 -0.0499978 -0.394939 0.380945 -0.985322 0 1.74023e-05
11 11 0.001 0.0499347 -1.60986e-06 -0.0499783 -1.14034 1.81444 -3.53923 0 1.62977e-05
1223 26 0.001 0.0498891 0.000886377 -0.0495316 2.69517 -5.91203 11.148 0 6.30384e-06
14 13 0.001 -0.0505045 0.00167237 -0.0490212 -9.23654 8.35493 -28.0533 0 7.32219e-06
224 14 0.001 -0.0305045 0.00167282 -0.0490219 -9.2561 8.14203 -27.7222 0 7.30243e-06
474 17 0.001 -0.0105045 0.00167281 -0.0490219 -9.25476 8.1426 -27.7206 0 7.30248e-06
724 20 0.001 0.00949508 0.0016758 -0.0490271 -8.10798 5.70369 -21.9518 0 7.1588e-06
974 23 0.001 0.0294951 0.0016758 -0.0490271 -8.10798 5.70369 -21.9518 0 7.1588e-06
1224 26 0.001 0.0494957 0.00167279 -0.0490217 -9.24783 8.13141 -27.714 0 7.30317e-06
17 13 0.001 -0.0527903 0.00299036 -0.047694 56.8912 4.20488 105.121 0 1.06781e-05
15 13 0.001 -0.0511559 0.00233027 -0.04863 32.3235 -12.8169 56.4078 0 7.51411e-06
16 13 0.001 -0.051847 0.00279898 -0.0480482 -45.2663 7.73046 -90.9884 0 1.07892e-05
226 14 0.001 -0.031847 0.00279895 -0.0480481 -45.2133 7.72698 -90.9276 0 1.07883e-05
227 14 0.001 -0.0327903 0.00299037 -0.047694 56.8856 4.22246 105.103 0 1.06834e-05
225 14 0.001 -0.0311559 0.00233016 -0.0486298 32.3195 -12.7112 56.1852 0 7.50685e-06
477 17 0.001 -0.0127903 0.00299037 -0.047694 56.8839 4.22283 105.099 0 1.06831e-05
475 17 0.001 -0.0111559 0.00233015 -0.0486298 32.3157 -12.7126 56.1837 0 7.50631e-06
476 17 0.001 -0.011847 0.00279895 -0.0480481 -45.2104 7.72579 -90.922 0 1.07878e-05
727 20 0.001 0.00721065 0.00298994 -0.0476922 55.3941 4.58996 101.339 0 1.04689e-05
725 20 0.001 0.00884617 0.00232793 -0.0486242 29.7438 -11.1458 51.0066 0 7.20052e-06
726 20 0.001 0.00815112 0.0028002 -0.0480525 -42.7156 6.70685 -86.1246 0 1.0409e-05
976 23 0.001 0.0281511 0.0028002 -0.0480525 -42.7156 6.70685 -86.1246 0 1.0409e-05
977 23 0.001 0.0272107 0.00298994 -0.0476922 55.3941 4.58996 101.339 0 1.04689e-05
975 23 0.001 0.0288462 0.00232793 -0.0486242 29.7438 -11.1458 51.0066 0 7.20052e-06
1227 26 0.001 0.0472097 0.00299038 -0.0476941 56.9134 4.21562 105.174 0 1.06873e-05
1225 26 0.001 0.0488441 0.00233021 -0.0486299 32.3707 -12.6917 56.2097 0 7.51778e-06
1226 26 0.001 0.0481531 0.00279893 -0.048048 -45.2665 7.7424 -91.0228 0 1.07956e-05
19 13 0.001 -0.0544882 0.00260919 -0.0467093 29.0296 7.54289 62.6338 0 7.02086e-06
20 13 0.001 -0.0551718 0.00206689 -0.0462008 -14.5652 -9.69609 -30.9869 0 6.66381e-06
18 13 0.001 -0.0536127 0.0029304 -0.0470986 -53.4663 -4.9531 -90.7926 0 8.11951e-06
230 14 0.001 -0.0351718 0.00206689 -0.0462008 -14.5672 -9.69575 -30.9893 0 6.66381e-06
228 14 0.001 -0.0336127 0.0029304 -0.0470986 -53.4876 -4.95943 -90.8231 0 8.12097e-06
229 14 0.001 -0.0344882 0.00260919 -0.0467093 29.0381 7.54174 62.6506 0 7.0209e-06
480 17 0.001 -0.0151718 0.00206689 -0.0462008 -14.5671 -9.69577 -30.9892 0 6.66381e-06
478 17 0.001 -0.0136127 0.0029304 -0.0470986 -53.486 -4.9595 -90.8208 0 8.12089e-06
479 17 0.001 -0.0144882 0.00260919 -0.0467093 29.0376 7.5418 62.6496 0 7.0209e-06
729 20 0.001 0.00551177 0.00260919 -0.0467093 28.6852 7.58595 61.9438 0 7.01928e-06
730 20 0.001 0.00482823 0.00206689 -0.0462008 -14.4806 -9.70807 -30.884 0 6.66381e-06
728 20 0.001 0.00638718 0.0029304 -0.0470988 -52.2761 -5.0217 -89.1351 0 8.06154e-06
980 23 0.001 0.0248282 0.00206689 -0.0462008 -14.4806 -9.70807 -30.884 0 6.66381e-06
978 23 0.001 0.0263872 0.0029304 -0.0470988 -52.2761 -5.0217 -89.1351 0 8.06154e-06
979 23 0.001 0.0255118 0.00260919 -0.0467093 28.6852 7.58595 61.9438 0 7.01928e-06
1230 26 0.001 0.0448282 0.00206689 -0.0462008 -14.5687 -9.69551 -30.9911 0 6.66381e-06
1228 26 0.001 0.0463873 0.0029304 -0.0470986 -53.5091 -4.95756 -90.8528 0 8.12205e-06
1229 26 0.001 0.0455118 0.00260919 -0.0467093 29.0443 7.54088 62.663 0 7.02093e-06
23 13 0.001 -0.0559727 -0.000400744 -0.0447867 0.0998487 0.270112 0.500984 0 6.48165e-06
233 14 0.001 -0.0359727 -0.000400744 -0.0447867 0.0998487 0.270112 0.500984 0 6.48165e-06
483 17 0.001 -0.0159727 -0.000400744 -0.0447867 0.0998487 0.270112 0.500984 0 6.48165e-06
733 20 0.001 0.00402733 -0.000400744 -0.0447867 0.0998487 0.270112 0.500984 0 6.48165e-06
983 23 0.001 0.0240273 -0.000400744 -0.0447867 0.0998487 0.270112 0.500984 0 6.48165e-06
1233 26 0.001 0.0440273 -0.000400744 -0.0447867 0.0998487 0.270112 0.500984 0 6.48165e-06
21 13 0.001 -0.0556862 0.00133547 -0.0457357 4.20839 4.74819 11.8786 0 6.45347e-06
22 13 0.001 -0.0559594 0.000489109 -0.0452606 -0.929316 -1.33527 -2.89961 0 6.49202e-06
231 14 0.001 -0.0356862 0.00133547 -0.0457357 4.20843 4.7483 11.8788 0 6.45347e-06
232 14 0.001 -0.0359594 0.000489109 -0.0452606 -0.929316 -1.33527 -2.89961 0 6.49202e-06
481 17 0.001 -0.0156862 0.00133547 -0.0457357 4.20842 4.74829 11.8788 0 6.45347e-06
482 17 0.001 -0.0159594 0.000489109 -0.0452606 -0.929316 -1.33527 -2.89961 0 6.49202e-06
731 20 0.001 0.00431379 0.00133547 -0.0457357 4.20695 4.74355 11.8697 0 6.45347e-06
732 20 0.001 0.00404061 0.000489109 -0.0452606 -0.929316 -1.33527 -2.89961 0 6.49202e-06
981 23 0.001 0.0243138 0.00133547 -0.0457357 4.20695 4.74355 11.8697 0 6.45347e-06
982 23 0.001 0.0240406 0.000489109 -0.0452606 -0.929316 -1.33527 -2.89961 0 6.49202e-06
1231 26 0.001 0.0443138 0.00133547 -0.0457357 4.20845 4.74837 11.879 0 6.45347e-06
1232 26 0.001 0.0440406 0.000489109 -0.0452606 -0.929316 -1.33527 -2.89961 0 6.49202e-06
25 13 0.001 -0.0552361 -0.00199934 -0.0438389 0.0148595 0.0149542 0.00252914 0 6.48253e-06
26 13 0.001 -0.0545511 -0.00256741 -0.0433649 0.010473 0.0173357 -1.45332e-10 0 6.48253e-06
235 14 0.001 -0.0352361 -0.00199934 -0.0438389 0.0148595 0.0149542 0.00252914 0 6.48253e-06
236 14 0.001 -0.0345511 -0.00256741 -0.0433649 0.010473 0.0173357 2.82328e-11 0 6.48253e-06
485 17 0.001 -0.0152361 -0.00199934 -0.0438389 0.0148595 0.0149542 0.00252914 0 6.48253e-06
486 17 0.001 -0.0145511 -0.00256741 -0.0433649 0.010473 0.0173357 -4.24381e-11 0 6.48253e-06
735 20 0.001 0.00476393 -0.00199934 -0.0438389 0.0148595 0.0149542 0.00252914 0 6.48253e-06
736 20 0.001 0.00544895 -0.00256741 -0.0433649 0.010473 0.0173357 9.1104e-11 0 6.48253e-06
985 23 0.001 0.0247639 -0.00199934 -0.0438389 0.0148595 0.0149542 0.00252914 0 6.48253e-06
986 23 0.001 0.0254489 -0.00256741 -0.0433649 0.010473 0.0173357 -1.19438e-10 0 6.48253e-06
1235 26 0.001 0.0447639 -0.00199934 -0.0438389 0.0148595 0.0149542 0.00252914 0 6.48253e-06
1236 26 0.001 0.0454489 -0.00256741 -0.0433649 0.010473 0.0173357 -1.45332e-10 0 6.48253e-06
24 13 0.001 -0.0557243 -0.00125529 -0.0443128 0.0161048 -0.0205943 -0.0509978 0 6.48253e-06
234 14 0.001 -0.0357243 -0.00125529 -0.0443128 0.0161048 -0.0205943 -0.0509978 0 6.48253e-06
484 17 0.001 -0.0157243 -0.00125529 -0.0443128 0.0161048 -0.0205943 -0.0509978 0 6.48253e-06
734 20 0.001 0.00427574 -0.00125529 -0.0443128 0.0161048 -0.0205943 -0.0509978 0 6.48253e-06
984 23 0.001 0.0242757 -0.00125529 -0.0443128 0.0161048 -0.0205943 -0.0509978 0 6.48253e-06
1234 26 0.001 0.0442757 -0.00125529 -0.0443128 0.0161048 -0.0205943 -0.0509978 0 6.48253e-06
27 13 0.001 -0.0537295 -0.0029095 -0.042891 0.0049258 0.0196455 1.21386e-10 0 6.48253e-06
28 13 0.001 -0.0528438 -0.00299549 -0.0424171 -0.00105497 0.0202261 -8.14248e-11 0 6.48253e-06
29 13 0.001 -0.0519718 -0.00281782 -0.0419431 -0.00694288 0.0190264 2.8001e-11 0 6.48253e-06
30 13 0.001 -0.0511903 -0.00239212 -0.0414692 -0.0122197 0.016152 4.03732e-11 0 6.48253e-06
237 14 0.001 -0.0337295 -0.0029095 -0.042891 0.0049258 0.0196455 2.52302e-11 0 6.48253e-06
238 14 0.001 -0.0328438 -0.00299549 -0.0424171 -0.00105497 0.0202261 -6.3376e-11 0 6.48253e-06
239 14 0.001 -0.0319718 -0.00281782 -0.0419431 -0.00694288 0.0190264 6.25305e-11 0 6.48253e-06
240 14 0.001 -0.0311903 -0.00239212 -0.0414692 -0.0122197 0.016152 -1.35421e-11 0 6.48253e-06
487 17 0.001 -0.0137295 -0.0029095 -0.042891 0.0049258 0.0196455 -4.27311e-11 0 6.48253e-06
488 17 0.001 -0.0128438 -0.00299549 -0.0424171 -0.00105497 0.0202261 1.27194e-10 0 6.48253e-06
489 17 0.001 -0.0119718 -0.00281782 -0.0419431 -0.00694288 0.0190264 -2.00177e-10 0 6.48253e-06
490 17 0.001 -0.0111903 -0.00239212 -0.0414692 -0.0122197 0.016152 2.55423e-10 0 6.48253e-06
737 20 0.001 0.00627049 -0.0029095 -0.042891 0.0049258 0.0196455 -1.69998e-10 0 6.48253e-06
738 20 0.001 0.00715624 -0.00299549 -0.0424171 -0.00105497 0.0202261 2.28773e-10 0 6.48253e-06
739 20 0.001 0.00802824 -0.00281782 -0.0419431 -0.00694288 0.0190264 -2.66844e-10 0 6.48253e-06
740 20 0.001 0.00880973 -0.00239212 -0.0414692 -0.0122197 0.016152 2.89228e-10 0 6.48253e-06
987 23 0.001 0.0262705 -0.0029095 -0.042891 0.0049258 0.0196455 3.80259e-11 0 6.48253e-06
988 23 0.001 0.0271562 -0.00299549 -0.0424171 -0.00105497 0.0202261 8.02373e-11 0 6.48253e-06
989 23 0.001 0.0280282 -0.00281782 -0.0419431 -0.00694288 0.0190264 -2.10941e-10 0 6.48253e-06
990 23 0.001 0.0288097 -0.00239212 -0.0414692 -0.0122197 0.016152 3.28094e-10 0 6.48253e-06
1237 26 0.001 0.0462705 -0.0029095 -0.042891 0.0049258 0.0196455 1.21386e-10 0 6.48253e-06
1238 26 0.001 0.0471562 -0.00299549 -0.0424171 -0.00105497 0.0202261 -8.14248e-11 0 6.48253e-06
1239 26 0.001 0.0480282 -0.00281782 -0.0419431 -0.00694288 0.0190264 2.8001e-11 0 6.48253e-06
1240 26 0.001 0.0488097 -0.00239212 -0.0414692 -0.0122197 0.016152 4.03732e-11 0 6.48253e-06
31 13 0.001 -0.0505681 -0.00175586 -0.0409953 -0.0164209 0.0118559 -1.22907e-10 0 6.48253e-06
241 14 0.001 -0.0305681 -0.00175586 -0.0409953 -0.0164209 0.0118559 -7.68808e-11 0 6.48253e-06
491 17 0.001 -0.0105681 -0.00175586 -0.0409953 -0.0164209 0.0118559 -2.88383e-10 0 6.48253e-06
741 20 0.001 0.00943193 -0.00175586 -0.0409953 -0.0164209 0.0118559 -3.00477e-10 0 6.48253e-06
991 23 0.001 0.0294319 -0.00175586 -0.0409953 -0.0164209 0.0118559 -4.10778e-10 0 6.48253e-06
1241 26 0.001 0.0494319 -0.00175586 -0.0409953 -0.0164209 0.0118559 -1.22907e-10 0 6.48253e-06
32 13 0.001 -0.0501599 -0.000965058 -0.0405213 -0.0191767 0.00651626 2.12958e-10 0 6.48253e-06
33 13 0.001 -0.0500018 -8.93081e-05 -0.0400474 -0.0202446 0.000603026 -2.98567e-10 0 6.48253e-06
242 14 0.001 -0.0301599 -0.000965058 -0.0405213 -0.0191767 0.00651626 1.90201e-10 0 6.48253e-06
243 14 0.001 -0.0300018 -8.93081e-05 -0.0400474 -0.0202446 0.000603026 -2.99736e-10 0 6.48253e-06
492 17 0.001 -0.0101599 -0.000965058 -0.0405213 -0.0191767 0.00651626 2.96022e-10 0 6.48253e-06
493 17 0.001 -0.0100018 -8.93081e-05 -0.0400474 -0.0202446 0.000603026 -2.76397e-10 0 6.48253e-06
742 20 0.001 0.00984007 -0.000965058 -0.0405213 -0.0191767 0.00651626 2.98683e-10 0 6.48253e-06
743 20 0.001 0.00999823 -8.93081e-05 -0.0400474 -0.0202446 0.000603026 -2.76643e-10 0 6.48253e-06
992 23 0.001 0.0298401 -0.000965058 -0.0405213 -0.0191767 0.00651626 4.47419e-10 0 6.48253e-06
993 23 0.001 0.0299982 -8.93081e-05 -0.0400474 -0.0202446 0.000603026 -4.36401e-10 0 6.48253e-06
1242 26 0.001 0.0498401 -0.000965058 -0.0405213 -0.0191767 0.00651626 2.12958e-10 0 6.48253e-06
1243 26 0.001 0.0499982 -8.93081e-05 -0.0400474 -0.0202446 0.000603026 -2.98567e-10 0 6.48253e-06
34 13 0.001 -0.0501075 0.000794303 -0.0395735 -0.0195306 -0.00536329 3.64514e-10 0 6.48253e-06
244 14 0.001 -0.0301075 0.000794303 -0.0395735 -0.0195306 -0.00536329 3.74502e-10 0 6.48253e-06
494 17 0.001 -0.0101075 0.000794303 -0.0395735 -0.0195306 -0.00536329 2.27992e-10 0 6.48253e-06
744 20 0.001 0.00989248 0.000794303 -0.0395735 -0.0195306 -0.00536329 2.27975e-10 0 6.48253e-06
994 23 0.001 0.0298925 0.000794303 -0.0395735 -0.0195306 -0.00536329 3.82359e-10 0 6.48253e-06
1244 26 0.001 0.0498925 0.000794303 -0.0395735 -0.0195306 -0.00536329 3.64514e-10 0 6.48253e-06
36 13 0.001 -0.0510511 0.00228016 -0.0386256 -0.0131594 -0.0153961 3.78116e-10 0 6.48253e-06
35 13 0.001 -0.0504679 0.001608 -0.0390995 -0.0170975 -0.0108575 -3.95227e-10 0 6.48253e-06
245 14 0.001 -0.0304679 0.001608 -0.0390995 -0.0170975 -0.0108575 -3.86982e-10 0 6.48253e-06
246 14 0.001 -0.0310511 0.00228016 -0.0386256 -0.0131594 -0.0153961 3.24748e-10 0 6.48253e-06
496 17 0.001 -0.0110511 0.00228016 -0.0386256 -0.0131594 -0.0153961 5.11621e-11 0 6.48253e-06
495 17 0.001 -0.0104679 0.001608 -0.0390995 -0.0170975 -0.0108575 -1.51182e-10 0 6.48253e-06
746 20 0.001 0.00894891 0.00228016 -0.0386256 -0.0131594 -0.0153961 5.27765e-11 0 6.48253e-06
745 20 0.001 0.00953213 0.001608 -0.0390995 -0.0170975 -0.0108575 -1.51374e-10 0 6.48253e-06
995 23 0.001 0.0295321 0.001608 -0.0390995 -0.0170975 -0.0108575 -2.93103e-10 0 6.48253e-06
996 23 0.001 0.0289489 0.00228016 -0.0386256 -0.0131594 -0.0153961 1.79307e-10 0 6.48253e-06
1246 26 0.001 0.0489489 0.00228016 -0.0386256 -0.0131594 -0.0153961 3.78116e-10 0 6.48253e-06
1245 26 0.001 0.0495321 0.001608 -0.0390995 -0.0170975 -0.0108575 -3.95227e-10 0 6.48253e-06
38 13 0.001 -0.0526657 0.00298088 -0.0376777 -0.00225698 -0.0201275 1.9171e-10 0 6.48253e-06
39 13 0.001 -0.053555 0.00294776 -0.0372038 0.00374774 -0.0199038 -4.85265e-11 0 6.48253e-06
37 13 0.001 -0.0518059 0.00275162 -0.0381517 -0.00806305 -0.0185795 -3.07995e-10 0 6.48253e-06
249 14 0.001 -0.033555 0.00294776 -0.0372038 0.00374774 -0.0199038 1.12761e-10 0 6.48253e-06
247 14 0.001 -0.0318059 0.00275162 -0.0381517 -0.00806305 -0.0185795 -1.9868e-10 0 6.48253e-06
248 14 0.001 -0.0326657 0.00298088 -0.0376777 -0.00225698 -0.0201275 4.0241e-11 0 6.48253e-06
499 17 0.001 -0.013555 0.00294776 -0.0372038 0.00374774 -0.0199038 2.53591e-10 0 6.48253e-06
498 17 0.001 -0.0126657 0.00298088 -0.0376777 -0.00225698 -0.0201275 -1.67027e-10 0 6.48253e-06
497 17 0.001 -0.0118059 0.00275162 -0.0381517 -0.00806305 -0.0185795 6.03386e-11 0 6.48253e-06
748 20 0.001 0.00733426 0.00298088 -0.0376777 -0.00225698 -0.0201275 -1.53255e-10 0 6.48253e-06
749 20 0.001 0.00644496 0.00294776 -0.0372038 0.00374774 -0.0199038 2.31596e-10 0 6.48253e-06
747 20 0.001 0.00819414 0.00275162 -0.0381517 -0.00806305 -0.0185795 5.42873e-11 0 6.48253e-06
999 23 0.001 0.026445 0.00294776 -0.0372038 0.00374774 -0.0199038 1.67351e-10 0 6.48253e-06
997 23 0.001 0.0281941 0.00275162 -0.0381517 -0.00806305 -0.0185795 -5.45884e-11 0 6.48253e-06
998 23 0.001 0.0273343 0.00298088 -0.0376777 -0.00225698 -0.0201275 -6.56382e-11 0 6.48253e-06
1249 26 0.001 0.046445 0.00294776 -0.0372038 0.00374774 -0.0199038 -4.85263e-11 0 6.48253e-06
1248 26 0.001 0.0473343 0.00298088 -0.0376777 -0.00225698 -0.0201275 1.91709e-10 0 6.48253e-06
1247 26 0.001 0.0481941 0.00275162 -0.0381517 -0.00806305 -0.0185795 -3.07995e-10 0 6.48253e-06
42 13 0.001 -0.0556447 0.00141521 -0.035782 0.0178576 -0.0095558 -2.94057e-10 0 6.48253e-06
252 14 0.001 -0.0356447 0.00141521 -0.035782 0.0178576 -0.0095558 -3.45903e-10 0 6.48253e-06
502 17 0.001 -0.0156447 0.00141521 -0.035782 0.0178576 -0.0095558 -3.47503e-10 0 6.48253e-06
752 20 0.001 0.00435528 0.00141521 -0.035782 0.0178576 -0.0095558 -3.23861e-10 0 6.48253e-06
1002 23 0.001 0.0243553 0.00141521 -0.035782 0.0178576 -0.0095558 -2.96159e-10 0 6.48253e-06
1252 26 0.001 0.0443553 0.00141521 -0.035782 0.0178576 -0.0095558 -2.94058e-10 0 6.48253e-06
40 13 0.001 -0.0543955 0.00265518 -0.0367299 0.00942259 -0.0179283 -9.48103e-11 0 6.48253e-06
41 13 0.001 -0.0551131 0.00212889 -0.0362559 0.0142681 -0.0143747 2.13298e-10 0 6.48253e-06
251 14 0.001 -0.0351131 0.00212889 -0.0362559 0.0142681 -0.0143747 3.0938e-10 0 6.48253e-06
250 14 0.001 -0.0343955 0.00265518 -0.0367299 0.00942259 -0.0179283 -2.32735e-10 0 6.48253e-06
501 17 0.001 -0.0151131 0.00212889 -0.0362559 0.0142681 -0.0143747 3.40759e-10 0 6.48253e-06
500 17 0.001 -0.0143955 0.00265518 -0.0367299 0.00942259 -0.0179283 -3.1142e-10 0 6.48253e-06
750 20 0.001 0.00560451 0.00265518 -0.0367299 0.00942259 -0.0179283 -2.84132e-10 0 6.48253e-06
751 20 0.001 0.0048869 0.00212889 -0.0362559 0.0142681 -0.0143747 3.12708e-10 0 6.48253e-06
1001 23 0.001 0.0248869 0.00212889 -0.0362559 0.0142681 -0.0143747 2.83003e-10 0 6.48253e-06
1000 23 0.001 0.0256045 0.00265518 -0.0367299 0.00942259 -0.0179283 -2.41018e-10 0 6.48253e-06
1251 26 0.001 0.0448869 0.00212889 -0.0362559 0.0142681 -0.0143747 2.13298e-10 0 6.48253e-06
1250 26 0.001 0.0456045 0.00265518 -0.0367299 0.00942259 -0.0179283 -9.48106e-11 0 6.48253e-06
44 13 0.001 -0.0559833 -0.000312059 -0.0348341 0.0201437 0.00210708 -3.6302e-10 0 6.48253e-06
45 13 0.001 -0.0557604 -0.00117362 -0.0343602 0.018639 0.00792451 3.74503e-10 0 6.48253e-06
254 14 0.001 -0.0359833 -0.000312059 -0.0348341 0.0201437 0.00210708 -3.36728e-10 0 6.48253e-06
255 14 0.001 -0.0357604 -0.00117362 -0.0343602 0.018639 0.00792451 3.07196e-10 0 6.48253e-06
504 17 0.001 -0.0159833 -0.000312059 -0.0348341 0.0201437 0.00210708 -3.1543e-10 0 6.48253e-06
505 17 0.001 -0.0157604 -0.00117362 -0.0343602 0.018639 0.00792451 2.84909e-10 0 6.48253e-06
754 20 0.001 0.00401672 -0.000312059 -0.0348341 0.0201437 0.00210708 -3.13708e-10 0 6.48253e-06
755 20 0.001 0.00423957 -0.00117362 -0.0343602 0.018639 0.00792451 2.93156e-10 0 6.48253e-06
1004 23 0.001 0.0240167 -0.000312059 -0.0348341 0.0201437 0.00210708 -2.70332e-10 0 6.48253e-06
1005 23 0.001 0.0242396 -0.00117362 -0.0343602 0.018639 0.00792451 2.48608e-10 0 6.48253e-06
1254 26 0.001 0.0440167 -0.000312059 -0.0348341 0.0201437 0.00210708 -3.6302e-10 0 6.48253e-06
1255 26 0.001 0.0442396 -0.00117362 -0.0343602 0.018639 0.00792451 3.74503e-10 0 6.48253e-06
43 13 0.001 -0.0559435 0.00057697 -0.0353081 0.0198754 -0.00389581 3.4001e-10 0 6.48253e-06
253 14 0.001 -0.0359435 0.00057697 -0.0353081 0.0198754 -0.00389581 3.51837e-10 0 6.48253e-06
503 17 0.001 -0.0159435 0.00057697 -0.0353081 0.0198754 -0.00389581 3.37664e-10 0 6.48253e-06
753 20 0.001 0.00405645 0.00057697 -0.0353081 0.0198754 -0.00389581 3.23649e-10 0 6.48253e-06
1003 23 0.001 0.0240565 0.00057697 -0.0353081 0.0198754 -0.00389581 2.88697e-10 0 6.48253e-06
1253 26 0.001 0.0440565 0.00057697 -0.0353081 0.0198754 -0.00389581 3.4001e-10 0 6.48253e-06
46 13 0.001 -0.0552946 -0.00193188 -0.0338863 0.0154936 0.0130444 -3.82483e-10 0 6.48253e-06
47 13 0.001 -0.0546268 -0.00252009 -0.0334123 0.0109845 0.0170162 3.91019e-10 0 6.48253e-06
48 13 0.001 -0.0538158 -0.00288649 -0.0329384 0.00550853 0.0194901 -3.98127e-10 0 6.48253e-06
49 13 0.001 -0.052933 -0.00299881 -0.0324645 -0.000452299 0.0202486 3.97944e-10 0 6.48253e-06
256 14 0.001 -0.0352946 -0.00193188 -0.0338863 0.0154936 0.0130444 -2.69081e-10 0 6.48253e-06
257 14 0.001 -0.0346268 -0.00252009 -0.0334123 0.0109845 0.0170162 2.29168e-10 0 6.48253e-06
258 14 0.001 -0.0338158 -0.00288649 -0.0329384 0.00550853 0.0194901 -1.92928e-10 0 6.48253e-06
259 14 0.001 -0.032933 -0.00299881 -0.0324645 -0.000452298 0.0202486 1.63207e-10 0 6.48253e-06
506 17 0.001 -0.0152946 -0.00193188 -0.0338863 0.0154936 0.0130444 -2.50903e-10 0 6.48253e-06
507 17 0.001 -0.0146268 -0.00252009 -0.0334123 0.0109845 0.0170162 2.17647e-10 0 6.48253e-06
508 17 0.001 -0.0138158 -0.00288649 -0.0329384 0.00550853 0.0194901 -1.87575e-10 0 6.48253e-06
509 17 0.001 -0.012933 -0.00299881 -0.0324645 -0.000452298 0.0202486 1.62441e-10 0 6.48253e-06
756 20 0.001 0.0047054 -0.00193188 -0.0338863 0.0154936 0.0130444 -2.62986e-10 0 6.48253e-06
757 20 0.001 0.0053732 -0.00252009 -0.0334123 0.0109845 0.0170162 2.27639e-10 0 6.48253e-06
758 20 0.001 0.00618419 -0.00288649 -0.0329384 0.00550853 0.0194901 -1.92992e-10 0 6.48253e-06
759 20 0.001 0.00706699 -0.00299881 -0.0324645 -0.000452298 0.0202486 1.6392e-10 0 6.48253e-06
1006 23 0.001 0.0247054 -0.00193188 -0.0338863 0.0154936 0.0130444 -2.26766e-10 0 6.48253e-06
1007 23 0.001 0.0253732 -0.00252009 -0.0334123 0.0109845 0.0170162 2.03554e-10 0 6.48253e-06
1008 23 0.001 0.0261842 -0.00288649 -0.0329384 0.00550853 0.0194901 -1.77453e-10 0 6.48253e-06
1009 23 0.001 0.027067 -0.00299881 -0.0324645 -0.000452298 0.0202486 1.51699e-10 0 6.48253e-06
1256 26 0.001 0.0447054 -0.00193188 -0.0338863 0.0154936 0.0130444 -3.82483e-10 0 6.48253e-06
1257 26 0.001 0.0453732 -0.00252009 -0.0334123 0.0109845 0.0170162 3.91019e-10 0 6.48253e-06
1258 26 0.001 0.0461842 -0.00288649 -0.0329384 0.00550853 0.0194901 -3.98127e-10 0 6.48253e-06
1259 26 0.001 0.047067 -0.00299881 -0.0324645 -0.000452299 0.0202486 3.97944e-10 0 6.48253e-06
50 13 0.001 -0.0520561 -0.00284718 -0.0319905 -0.00637332 0.0192247 -3.85251e-10 0 6.48253e-06
51 13 0.001 -0.0512623 -0.00244494 -0.0315166 -0.0117334 0.0165087 3.54907e-10 0 6.48253e-06
52 13 0.001 -0.0506214 -0.00182749 -0.0310427 -0.0160606 0.0123396 -3.00776e-10 0 6.48253e-06
260 14 0.001 -0.0320561 -0.00284718 -0.0319905 -0.00637332 0.0192247 -1.41618e-10 0 6.48253e-06
261 14 0.001 -0.0312623 -0.00244494 -0.0315166 -0.0117334 0.0165087 1.28487e-10 0 6.48253e-06
262 14 0.001 -0.0306214 -0.00182749 -0.0310427 -0.0160606 0.0123396 -1.1929e-10 0 6.48253e-06
510 17 0.001 -0.0120561 -0.00284718 -0.0319905 -0.00637332 0.0192247 -1.45219e-10 0 6.48253e-06
511 17 0.001 -0.0112623 -0.00244494 -0.0315166 -0.0117334 0.0165087 1.36988e-10 0 6.48253e-06
512 17 0.001 -0.0106214 -0.00182749 -0.0310427 -0.0160606 0.0123396 -1.31045e-10 0 6.48253e-06
760 20 0.001 0.00794389 -0.00284718 -0.0319905 -0.00637332 0.0192247 -1.43737e-10 0 6.48253e-06
761 20 0.001 0.00873771 -0.00244494 -0.0315166 -0.0117334 0.0165087 1.3239e-10 0 6.48253e-06
762 20 0.001 0.00937858 -0.00182749 -0.0310427 -0.0160606 0.0123396 -1.23495e-10 0 6.48253e-06
1010 23 0.001 0.0279439 -0.00284718 -0.0319905 -0.00637332 0.0192247 -1.32986e-10 0 6.48253e-06
1011 23 0.001 0.0287377 -0.00244494 -0.0315166 -0.0117334 0.0165087 1.24349e-10 0 6.48253e-06