ITEM: TIMESTEP
10
ITEM: NUMBER OF ATOMS
1472
ITEM: BOX BOUNDS ff ff ff
-6.0000000000000005e-02 6.0000000000000005e-02
-6.0000000000000001e-03 6.0000000000000001e-03
-5.5000000000000000e-02 5.5000000000000000e-02
ITEM: ATOMS id type radius x y z fx fy fz c_bendingE c_stretchingE
1 1 0.001 -0.0509456 0.000217658 -0.0520239 10.3938 -6.1175 27.8159 0 0.0174339
13 13 0.001 -0.0494817 -0.000247969 -0.0485766 -11.3638 17.0147 -20.272 0 0.0231728
433 15 0.001 -0.0499349 0.000193531 -0.0503194 6.2668 5.41306 -0.94922 0 0.00666948
434 15 0.001 -0.0477754 0.000186585 -0.0490309 0.481507 -8.43045 -18.4206 0 0.0119715
435 15 0.001 -0.047431 -0.000326559 -0.0518642 -5.54889 16.6512 24.3079 0 0.0136144
436 15 0.001 -0.0460587 9.43969e-05 -0.0495008 13.5314 -20.1618 -18.758 0 0.0100939
437 15 0.001 -0.0442893 -0.000186501 -0.0479649 0.0789575 14.7377 -23.4578 0 0.0360035
438 15 0.001 -0.0440871 0.000312272 -0.0529554 4.37791 -10.1093 67.1195 0 0.0813054
439 15 0.001 -0.0433517 -0.00027211 -0.0470632 -0.873201 6.75263 -68.5539 0 0.087285
440 15 0.001 -0.0427188 0.000196177 -0.0523841 7.52616 -9.44426 47.3951 0 0.055245
441 15 0.001 -0.0418836 -0.00110095 -0.0487846 -5.56397 16.3111 -15.1311 0 0.0285268
442 15 0.001 -0.0401994 0.00174807 -0.0495161 -1.10218 -20.4543 -7.01217 0 0.0255965
443 15 0.001 -0.0388543 -0.000363556 -0.0521739 -9.32535 13.5133 43.2808 0 0.0525738
444 15 0.001 -0.0392951 -0.000739782 -0.0468114 5.69691 12.0272 -73.5514 0 0.0943597
445 15 0.001 -0.0382891 0.000673796 -0.0528698 -11.1786 -17.4415 58.3025 0 0.0727948
446 15 0.001 -0.0363465 -0.000142501 -0.0495836 13.0491 6.30559 -24.5142 0 0.0229089
447 15 0.001 -0.0343283 -0.000514394 -0.047796 -12.3092 4.1255 -32.0959 0 0.04639
448 15 0.001 -0.0345044 0.000779995 -0.0531411 8.16037 -18.3511 77.6471 0 0.103745
449 15 0.001 -0.0341535 -0.000858338 -0.046709 -8.1757 23.5045 -80.6456 0 0.114512
450 15 0.001 -0.0341584 0.000686283 -0.0525797 10.6018 -16.2442 38.7401 0 0.0579979
451 15 0.001 -0.0322673 8.13787e-05 -0.0505492 -15.6188 5.56375 18.4216 0 0.0174144
223 14 0.001 -0.0291854 -0.000178413 -0.0487307 -13.9028 17.7687 -19.9818 0 0.0248377
452 15 0.001 -0.0307026 -0.000413303 -0.0476973 0.465935 4.25794 -47.2475 0 0.0377557
3 3 0.001 -0.0304651 0.000452898 -0.052301 23.8583 -17.1207 25.2503 0 0.0434489
683 18 0.001 -0.0297362 0.000138612 -0.051547 -17.8516 8.64205 46.859 0 0.0154134
684 18 0.001 -0.0280931 -9.29596e-05 -0.0481624 8.61617 -2.61533 -42.1029 0 0.0323668
685 18 0.001 -0.0272157 7.58307e-05 -0.0519701 -16.6228 8.81738 35.902 0 0.0219729
686 18 0.001 -0.026023 5.35401e-06 -0.0496988 25.9572 -13.1554 -21.61 0 0.00969927
687 18 0.001 -0.0243595 -0.00034328 -0.0478371 -6.60636 13.0967 -26.5261 0 0.0414779
688 18 0.001 -0.0241289 0.000493142 -0.0530609 4.42515 -13.1332 71.2856 0 0.0921112
689 18 0.001 -0.0232654 -0.000394404 -0.0469088 -0.232475 8.43344 -74.2472 0 0.100493
690 18 0.001 -0.0226608 0.000227731 -0.0526057 5.73 -12.0251 54.5223 0 0.0641849
691 18 0.001 -0.0221185 -0.000953822 -0.0487347 -5.11183 15.5674 -18.6311 0 0.0297428
692 18 0.001 -0.0199383 0.00147278 -0.0492736 -0.315793 -18.875 -10.6158 0 0.0246357
693 18 0.001 -0.0189926 -0.000243492 -0.0523338 -5.82356 11.8733 47.2394 0 0.0549361
694 18 0.001 -0.0192842 -0.000719087 -0.0468242 5.10867 13.7367 -74.2006 0 0.0969519
695 18 0.001 -0.0182695 0.000682616 -0.0528863 -10.8656 -16.3099 57.8559 0 0.0731892
696 18 0.001 -0.016398 -0.000160392 -0.0495305 10.7963 6.17515 -24.043 0 0.0232784
697 18 0.001 -0.0142997 -0.000504573 -0.0478267 -12.7073 2.4702 -32.0976 0 0.045679
698 18 0.001 -0.0144846 0.000782098 -0.0531311 8.23579 -17.6417 77.4161 0 0.10235
699 18 0.001 -0.0142004 -0.00085928 -0.0467271 -6.31325 25.4076 -79.3851 0 0.11219
700 18 0.001 -0.0141798 0.000707307 -0.0525057 8.64219 -17.5343 37.0311 0 0.0559066
701 18 0.001 -0.0122308 3.2734e-05 -0.0506414 -11.5932 6.85788 18.4606 0 0.0177775
702 18 0.001 -0.0106779 -0.000388273 -0.0476736 -1.5052 3.06807 -46.6061 0 0.0385343
5 5 0.001 -0.0104967 0.000469411 -0.0522802 22.2482 -15.7349 25.2396 0 0.0432825
473 17 0.001 -0.00919422 -0.000178106 -0.0487363 -13.9289 17.8378 -19.7647 0 0.0246225
933 21 0.001 -0.0097357 0.000136033 -0.0515395 -16.4803 7.33404 46.4287 0 0.0151976
934 21 0.001 -0.00809741 -9.73695e-05 -0.0481756 7.20242 -2.00085 -41.5577 0 0.0315311
935 21 0.001 -0.00722641 0.000106931 -0.0519282 -18.5363 9.80242 37.6064 0 0.0209488
936 21 0.001 -0.00596793 -2.54504e-05 -0.0497733 30.3017 -16.0743 -22.7125 0 0.00952
937 21 0.001 -0.0043875 -0.000342212 -0.047786 -8.77784 14.5069 -27.8636 0 0.0428383
938 21 0.001 -0.00414367 0.000517594 -0.053072 4.09076 -12.0003 72.3447 0 0.0940371
939 21 0.001 -0.00323346 -0.000417743 -0.0468947 2.42884 11.1737 -74.6198 0 0.101178
940 21 0.001 -0.00277108 0.000244458 -0.0525942 3.43981 -4.80718 56.8961 0 0.0634495
941 21 0.001 -0.00232045 -2.13214e-05 -0.048596 -15.8951 0.149264 -10.1431 0 0.0201684
942 21 0.001 -0.000466286 -0.000123336 -0.0490772 9.27083 0.339963 -28.5017 0 0.0210841
943 21 0.001 0.00147393 7.55525e-05 -0.052692 9.00614 -6.49264 50.5716 0 0.0525724
944 21 0.001 0.00130693 9.35756e-06 -0.0476122 5.82429 -2.20334 -47.6914 0 0.0424389
945 21 0.001 0.00153806 -2.26775e-05 -0.050739 -29.5325 6.64894 1.28858 0 0.0103946
946 21 0.001 0.00328786 -1.6574e-05 -0.0508669 28.45 1.14889 6.82492 0 0.00391893
947 21 0.001 0.00424049 3.06623e-05 -0.0489402 33.1537 0.615448 33.2325 0 0.00452159
948 21 0.001 0.00514569 -9.0081e-06 -0.0506452 -37.7719 -1.0777 -47.1233 0 0.00244258
949 21 0.001 0.00618216 7.00058e-07 -0.0494994 -29.9172 -0.125212 14.1374 0 0.000966514
950 21 0.001 0.00724403 -1.08472e-06 -0.0503814 -19.5647 0.576286 29.2012 0 0.000366868
951 21 0.001 0.00805457 1.37275e-06 -0.0496101 11.1194 -0.0583408 -47.0305 0 0.000902418
7 7 0.001 0.01 0 -0.05 6.50914 0.296157 -48.1329 0 0.00217401
723 20 0.001 0.0108559 -0.000215835 -0.048202 -11.1323 13.2833 -8.71929 0 0.0105592
952 21 0.001 0.0094256 -4.77058e-07 -0.0505016 -5.40364 -0.166777 38.221 0 0.000950233
1183 24 0.001 0.0109361 -1.91629e-06 -0.0502417 -19.0938 0.901484 97.6708 0 1.10797e-05
1184 24 0.001 0.011851 1.79832e-06 -0.0497431 19.4309 -0.616625 -76.2249 0 1.10545e-05
1185 24 0.001 0.0127216 -1.43337e-06 -0.0501973 17.5342 0.359436 -39.105 0 2.86885e-05
1186 24 0.001 0.0138067 4.59197e-07 -0.0500852 -37.0466 -0.277834 117.323 0 9.01718e-05
1187 24 0.001 0.014818 1.93715e-07 -0.0495344 45.2381 0.0600384 -49.739 0 0.000449167
1188 24 0.001 0.01573 5.27485e-07 -0.0506192 18.5194 0.0547218 -29.9919 0 0.000898864
1189 24 0.001 0.0166542 -1.64717e-06 -0.0494578 -21.3068 -0.246941 30.0552 0 0.000803936
1190 24 0.001 0.017622 2.22253e-06 -0.0504117 -3.64673 0.418265 -13.8716 0 0.000575279
1191 24 0.001 0.0186419 -5.86928e-07 -0.0495218 33.2457 -0.0405018 30.4599 0 0.00132371
1192 24 0.001 0.0196743 -4.7223e-06 -0.0508738 17.3773 -0.30184 -35.361 0 0.00547934
1193 24 0.001 0.0205728 1.18382e-05 -0.0485668 -12.2292 0.0782121 1.62587 0 0.0161015
1194 24 0.001 0.0213359 -1.70124e-05 -0.0518881 -5.84408 0.203137 24.6742 0 0.0292196
1195 24 0.001 0.0220993 1.78044e-05 -0.0480022 5.04449 -0.215428 -24.8015 0 0.0306084
1196 24 0.001 0.0229874 -1.28073e-05 -0.051438 2.16307 -0.070554 -8.60172 0 0.0177443
1197 24 0.001 0.0243772 5.48192e-06 -0.049338 -0.301051 0.367083 47.6233 0 0.00496494
1198 24 0.001 0.0251464 -2.43638e-06 -0.0504419 -45.2212 -0.171731 -28.7047 0 0.000595554
1199 24 0.001 0.0261896 2.52262e-06 -0.049539 -19.1971 -0.173461 -26.7687 0 0.00056113
1200 24 0.001 0.0272355 -2.80177e-06 -0.050346 -12.7574 0.134535 59.3156 0 0.000267403
1201 24 0.001 0.0280544 2.06365e-06 -0.0496168 18.0078 -0.0720347 -60.3394 0 0.00088237
9 9 0.001 0.03 0 -0.05 6.72089 -6.18608 -47.8757 0 0.00217344
973 23 0.001 0.0308559 -0.000215835 -0.048202 -11.1323 13.2833 -8.71929 0 0.0105592
1202 24 0.001 0.0294254 -6.28632e-07 -0.0505024 -3.80865 0.0576862 40.7284 0 0.000941291
1433 27 0.001 0.0309367 -2.14143e-06 -0.0502376 -18.6139 13.9686 98.0414 0 9.84722e-06
1434 27 0.001 0.0318556 2.20097e-05 -0.0497575 8.83941 -42.8718 -85.9309 0 1.021e-05
1435 27 0.001 0.0327323 -0.000121106 -0.0501963 -12.1622 95.066 59.2912 0 8.32988e-05
1436 27 0.001 0.033778 0.000347828 -0.049927 3.1318 -106.881 -90.6255 0 0.000250124
1437 27 0.001 0.0348162 -0.000376952 -0.0499102 4.6437 79.7601 77.3022 0 0.000187827
1438 27 0.001 0.0356852 0.000116148 -0.0495232 19.5605 -70.5343 -20.0573 0 0.000785737
1439 27 0.001 0.0366071 -9.88908e-05 -0.0508108 8.10118 44.4115 24.8798 0 0.00166761
1440 27 0.001 0.0381737 0.000419379 -0.0507605 26.3676 -15.289 -3.77249 0 0.0103789
1441 27 0.001 0.0379203 -0.000579026 -0.0477643 -7.34175 12.4018 -26.5526 0 0.0221848
1442 27 0.001 0.0398817 9.51836e-05 -0.0506018 -2.67336 -4.47613 14.9987 0 0.0156302
1443 27 0.001 0.0414662 0.000503393 -0.0520617 -9.65808 -10.665 28.332 0 0.0430002
1444 27 0.001 0.0410984 -0.000724013 -0.0467278 13.2198 18.6852 -79.5657 0 0.11065
1445 27 0.001 0.0416485 0.000762772 -0.0535055 -2.0467 -13.7624 76.3337 0 0.109838
1446 27 0.001 0.0426094 -0.000390354 -0.0482771 -0.750898 7.67065 -34.0537 0 0.0522508
1447 27 0.001 0.046121 -0.000275187 -0.048729 -20.3383 4.72972 -22.6619 0 0.0344542
1448 27 0.001 0.0458466 0.000655415 -0.0528936 -2.38228 -13.2849 65.2879 0 0.0738667
1449 27 0.001 0.0456291 -0.000702949 -0.0469174 3.73064 18.5201 -73.8687 0 0.0926119
1450 27 0.001 0.0457308 0.00054512 -0.0522659 14.1938 -14.608 34.3815 0 0.0458402
1451 27 0.001 0.0478882 9.84536e-07 -0.0507994 -1.22958 5.55573 13.9909 0 0.0169911
1452 27 0.001 0.0493937 -0.00020524 -0.0477839 -13.8832 2.13127 -54.8025 0 0.0627699
11 11 0.001 0.0485526 0.000446655 -0.0537736 12.6125 -7.61698 72.3772 0 0.0892472
1223 26 0.001 0.050695 -0.000192832 -0.0489044 -20.1917 18.0115 -29.0321 0 0.0461609
14 13 0.001 -0.05023 0.00261226 -0.0485465 -21.8362 -19.8455 0.753658 0 0.0148863
224 14 0.001 -0.0305966 0.00253154 -0.0484793 -3.5961 -22.9506 -9.40397 0 0.0147169
474 17 0.001 -0.0105847 0.00253407 -0.0484765 -4.29494 -23.2155 -9.14793 0 0.0147299
724 20 0.001 0.00927655 0.00238817 -0.0483506 2.65751 -16.1201 -12.1791 0 0.0150351
974 23 0.001 0.0292766 0.00238817 -0.0483506 2.65751 -16.1201 -12.1791 0 0.0150351
1224 26 0.001 0.0494245 0.00251749 -0.0484354 -2.79356 -21.742 -12.4818 0 0.0148753
17 13 0.001 -0.0520601 0.00380588 -0.0470324 -1.76682 5.92237 -32.8666 0 0.0144464
15 13 0.001 -0.0517706 0.0016206 -0.0507683 24.0543 10.7297 26.5684 0 0.0258562
16 13 0.001 -0.0499497 0.0026174 -0.0472831 -8.46871 -7.38536 -7.36786 0 0.0229078
226 14 0.001 -0.0299424 0.00266931 -0.047274 -16.5081 -4.12627 -4.26448 0 0.02322
227 14 0.001 -0.0320789 0.00378212 -0.0470397 -2.19987 5.17965 -32.3865 0 0.0144454
225 14 0.001 -0.0315846 0.00170937 -0.0508936 17.6575 12.104 32.0776 0 0.0252085
477 17 0.001 -0.0120783 0.00378225 -0.0470401 -2.15077 5.17833 -32.379 0 0.0144467
475 17 0.001 -0.0115916 0.00170722 -0.0508927 17.9436 12.1772 31.9941 0 0.025315
476 17 0.001 -0.00994056 0.00266618 -0.0472734 -16.2386 -3.92676 -4.49787 0 0.0232717
727 20 0.001 0.00847564 0.00409966 -0.046262 -13.8883 -0.0374972 -27.4126 0 0.032105
725 20 0.001 0.00843345 0.00191869 -0.0509785 11.2393 2.42006 35.5371 0 0.0230591
726 20 0.001 0.00992799 0.00212697 -0.0474159 -17.8788 1.1572 -8.5516 0 0.0224167
976 23 0.001 0.029928 0.00212697 -0.0474159 -17.8788 1.1572 -8.5516 0 0.0224167
977 23 0.001 0.0284756 0.00409966 -0.046262 -13.8883 -0.0374972 -27.4126 0 0.032105
975 23 0.001 0.0284334 0.00191869 -0.0509785 11.2393 2.42006 35.5371 0 0.0230591
1227 26 0.001 0.0479205 0.00377783 -0.0470421 -2.4129 4.96985 -32.1339 0 0.014725
1225 26 0.001 0.0484361 0.00172258 -0.0509306 16.1815 11.0506 33.9326 0 0.0259882
1226 26 0.001 0.0500632 0.00266148 -0.0472687 -17.223 -4.31347 -4.22395 0 0.0235853
19 13 0.001 -0.0559288 0.00159448 -0.0464033 5.02567 1.85983 10.1004 0 0.0307202
20 13 0.001 -0.05516 0.00131625 -0.0425013 -6.53902 -2.33953 -65.415 0 0.0777746
18 13 0.001 -0.0548364 0.00402349 -0.0487186 4.97114 -15.9988 25.9556 0 0.0230967
230 14 0.001 -0.0351648 0.00131063 -0.0425006 -6.39796 -2.4341 -65.1728 0 0.0774197
228 14 0.001 -0.0348567 0.00401004 -0.0487398 4.90358 -16.0966 26.1788 0 0.0231894
229 14 0.001 -0.035913 0.00160979 -0.0463768 4.8009 2.24856 9.92879 0 0.0304027
480 17 0.001 -0.0151645 0.00131117 -0.0425006 -6.4118 -2.43079 -65.1898 0 0.0774456
478 17 0.001 -0.0148553 0.00401081 -0.0487386 4.89259 -16.0988 26.1725 0 0.0231754
479 17 0.001 -0.0159145 0.00160915 -0.0463786 4.8206 2.23176 9.94773 0 0.0304249
729 20 0.001 0.00371396 0.00113623 -0.0464773 21.6513 10.3618 3.92065 0 0.043014
730 20 0.001 0.005036 0.00155246 -0.0425109 -14.5739 -6.72446 -67.0607 0 0.0817707
728 20 0.001 0.00500847 0.00417455 -0.0493161 13.7866 -15.1128 33.8189 0 0.0486943
980 23 0.001 0.025036 0.00155246 -0.0425109 -14.5739 -6.72446 -67.0607 0 0.0817707
978 23 0.001 0.0250085 0.00417455 -0.0493161 13.7866 -15.1128 33.8189 0 0.0486943
979 23 0.001 0.023714 0.00113623 -0.0464773 21.6513 10.3618 3.92065 0 0.043014
1230 26 0.001 0.0448321 0.00130314 -0.0425002 -6.14894 -2.50441 -64.9645 0 0.0770808
1228 26 0.001 0.0451281 0.00401984 -0.0487678 5.17316 -16.2772 26.27 0 0.0237106
1229 26 0.001 0.0441108 0.00161277 -0.046354 4.44635 2.67452 9.56734 0 0.0303751
23 13 0.001 -0.0547876 8.67389e-05 -0.0422827 -10.7601 -17.8005 -38.1947 0 0.0540376
233 14 0.001 -0.0347876 8.62905e-05 -0.0422835 -10.758 -17.7952 -38.1778 0 0.054018
483 17 0.001 -0.0147876 8.63203e-05 -0.0422834 -10.7584 -17.7955 -38.1788 0 0.0540194
733 20 0.001 0.00521337 0.000107722 -0.0422492 -10.8274 -18.0323 -38.9715 0 0.0549727
983 23 0.001 0.0252134 0.000107722 -0.0422492 -10.8274 -18.0323 -38.9715 0 0.0549727
1233 26 0.001 0.0452124 8.59092e-05 -0.0422841 -10.7525 -17.7919 -38.1642 0 0.0539986
21 13 0.001 -0.0564515 0.000625494 -0.0488236 14.9012 19.2306 59.7633 0 0.0730354
22 13 0.001 -0.0556665 0.00200997 -0.0456429 2.83939 -20.6348 -0.583082 0 0.0308031
231 14 0.001 -0.0364542 0.000622452 -0.0488222 14.9599 19.0695 59.7675 0 0.0730228
232 14 0.001 -0.0356656 0.00201096 -0.0456425 2.81551 -20.6652 -0.590507 0 0.0308128
481 17 0.001 -0.0164539 0.000622644 -0.0488223 14.9533 19.0809 59.7679 0 0.0730246
482 17 0.001 -0.0156656 0.00201092 -0.0456426 2.81643 -20.6633 -0.589927 0 0.0308124
731 20 0.001 0.00362402 0.000670775 -0.0488478 9.20437 17.1166 61.1002 0 0.0738708
732 20 0.001 0.0042921 0.00197094 -0.0456624 3.86211 -20.512 0.134065 0 0.0305908
981 23 0.001 0.023624 0.000670775 -0.0488478 9.20437 17.1166 61.1002 0 0.0738708
982 23 0.001 0.0242921 0.00197094 -0.0456624 3.86211 -20.512 0.134065 0 0.0305908
1231 26 0.001 0.0435427 0.000620308 -0.0488209 15.0621 18.9297 59.7591 0 0.0730005
1232 26 0.001 0.0443355 0.00201136 -0.0456422 2.81465 -20.6878 -0.600343 0 0.0308153
25 13 0.001 -0.054956 -0.00195058 -0.0446616 -3.8207 17.6843 14.9217 0 0.0220633
26 13 0.001 -0.0547432 -0.00123233 -0.0407212 7.98447 -14.9357 -34.0317 0 0.0363178
235 14 0.001 -0.034956 -0.00195074 -0.0446616 -3.8179 17.6917 14.9206 0 0.022064
236 14 0.001 -0.0347431 -0.0012322 -0.0407212 7.98361 -14.9382 -34.0327 0 0.0363198
485 17 0.001 -0.014956 -0.00195073 -0.0446616 -3.81816 17.6913 14.9207 0 0.022064
486 17 0.001 -0.0147431 -0.00123221 -0.0407212 7.98367 -14.9381 -34.0326 0 0.0363197
735 20 0.001 0.00504291 -0.00194371 -0.0446618 -3.93639 17.3859 14.9665 0 0.0220346
736 20 0.001 0.00525414 -0.00123774 -0.0407212 8.02548 -14.8299 -33.9922 0 0.0362335
985 23 0.001 0.0250429 -0.00194371 -0.0446618 -3.93639 17.3859 14.9665 0 0.0220346
986 23 0.001 0.0252541 -0.00123774 -0.0407212 8.02548 -14.8299 -33.9922 0 0.0362335
1235 26 0.001 0.045044 -0.00195087 -0.0446616 -3.8141 17.696 14.9195 0 0.0220646
1236 26 0.001 0.0452569 -0.00123211 -0.0407212 7.98282 -14.9401 -34.0334 0 0.0363214
24 13 0.001 -0.0562856 -0.00273234 -0.0464777 24.4927 6.02486 30.113 0 0.0402696
234 14 0.001 -0.0362858 -0.00273251 -0.0464776 24.4868 6.01933 30.108 0 0.0402559
484 17 0.001 -0.0162857 -0.0027325 -0.0464776 24.4873 6.01963 30.1083 0 0.0402568
734 20 0.001 0.00372263 -0.00272451 -0.0464841 24.689 6.26389 30.3585 0 0.0408911
984 23 0.001 0.0237226 -0.00272451 -0.0464841 24.689 6.26389 30.3585 0 0.0408911
1234 26 0.001 0.0437141 -0.00273265 -0.0464775 24.4788 6.01578 30.1052 0 0.0402447
27 13 0.001 -0.0540232 -0.00327164 -0.0440993 -16.4752 22.3219 8.84199 0 0.020392
28 13 0.001 -0.0521168 -0.00345713 -0.0433997 9.09515 9.33576 19.2126 0 0.0119142
29 13 0.001 -0.0526223 -0.0025579 -0.0403792 3.73861 -16.4669 -1.0631 0 0.0102995
30 13 0.001 -0.0514567 -0.00239921 -0.0413644 -14.3808 38.5179 9.62678 0 0.00301438
237 14 0.001 -0.0340232 -0.00327164 -0.0440994 -16.4753 22.3235 8.83987 0 0.0203934
238 14 0.001 -0.0321169 -0.00345713 -0.0433997 9.09371 9.33541 19.214 0 0.0119137
239 14 0.001 -0.0326223 -0.00255789 -0.0403792 3.73958 -16.4663 -1.06214 0 0.0102992
240 14 0.001 -0.0314567 -0.00239922 -0.0413644 -14.3816 38.5172 9.62668 0 0.00301437
487 17 0.001 -0.0140232 -0.00327164 -0.0440994 -16.4753 22.3234 8.84 0 0.0203933
488 17 0.001 -0.0121169 -0.00345713 -0.0433997 9.0938 9.33543 19.2139 0 0.0119137
489 17 0.001 -0.0126223 -0.00255789 -0.0403792 3.73953 -16.4663 -1.06219 0 0.0102992
490 17 0.001 -0.0114567 -0.00239922 -0.0413644 -14.3815 38.5173 9.62668 0 0.00301437
737 20 0.001 0.00597619 -0.00327137 -0.0440964 -16.4675 22.2577 8.93372 0 0.0203354
738 20 0.001 0.00788524 -0.00345688 -0.0434019 9.15674 9.35106 19.1497 0 0.011934
739 20 0.001 0.00737721 -0.0025584 -0.0403796 3.69868 -16.4912 -1.10127 0 0.0103156
740 20 0.001 0.00854298 -0.00239886 -0.0413639 -14.3524 38.5436 9.62655 0 0.00301471
987 23 0.001 0.0259762 -0.00327137 -0.0440964 -16.4675 22.2577 8.93372 0 0.0203354
988 23 0.001 0.0278852 -0.00345688 -0.0434019 9.15674 9.35106 19.1497 0 0.011934
989 23 0.001 0.0273772 -0.0025584 -0.0403796 3.69868 -16.4912 -1.10127 0 0.0103156
990 23 0.001 0.028543 -0.00239886 -0.0413639 -14.3524 38.5436 9.62655 0 0.00301471
1237 26 0.001 0.0459768 -0.00327165 -0.0440994 -16.4757 22.3248 8.83817 0 0.0203944
1238 26 0.001 0.0478831 -0.00345714 -0.0433996 9.09263 9.33514 19.2151 0 0.0119134
1239 26 0.001 0.0473777 -0.00255788 -0.0403792 3.74026 -16.4659 -1.0615 0 0.0102989
1240 26 0.001 0.0485433 -0.00239923 -0.0413644 -14.382 38.5168 9.62671 0 0.00301436
31 13 0.001 -0.0497265 -0.00154832 -0.0421382 -10.958 -21.9568 -19.859 0 0.00541242
241 14 0.001 -0.0297265 -0.00154832 -0.0421382 -10.9575 -21.9562 -19.8589 0 0.00541243
491 17 0.001 -0.00972647 -0.00154832 -0.0421382 -10.9575 -21.9563 -19.8589 0 0.00541243
741 20 0.001 0.0102735 -0.00154846 -0.0421382 -10.9792 -21.9812 -19.8585 0 0.00541195
991 23 0.001 0.0302735 -0.00154846 -0.0421382 -10.9792 -21.9812 -19.8585 0 0.00541195
1241 26 0.001 0.0502735 -0.00154832 -0.0421382 -10.9572 -21.9558 -19.8589 0 0.00541244
32 13 0.001 -0.0504077 -0.00114814 -0.0400721 34.6404 -30.4477 21.9738 0 0.00305126
33 13 0.001 -0.0501244 -0.000176116 -0.0396245 -60.5839 14.7247 -63.7274 0 0.000268081
242 14 0.001 -0.0304077 -0.00114814 -0.0400721 34.6404 -30.4483 21.9746 0 0.00305129
243 14 0.001 -0.0301244 -0.000176115 -0.0396245 -60.5849 14.7251 -63.7284 0 0.000268079
492 17 0.001 -0.0104077 -0.00114814 -0.0400721 34.6404 -30.4483 21.9746 0 0.00305129
493 17 0.001 -0.0101244 -0.000176115 -0.0396245 -60.5849 14.7251 -63.7284 0 0.000268079
742 20 0.001 0.00959251 -0.00114809 -0.0400724 34.6386 -30.4213 21.94 0 0.00304987
743 20 0.001 0.00987546 -0.000176147 -0.0396243 -60.5388 14.7089 -63.6817 0 0.000268143
992 23 0.001 0.0295925 -0.00114809 -0.0400724 34.6386 -30.4213 21.94 0 0.00304987
993 23 0.001 0.0298755 -0.000176147 -0.0396243 -60.5388 14.7089 -63.6817 0 0.000268143
1242 26 0.001 0.0495923 -0.00114814 -0.0400721 34.6404 -30.4488 21.9752 0 0.00305131
1243 26 0.001 0.0498756 -0.000176115 -0.0396245 -60.5857 14.7254 -63.7292 0 0.000268078
34 13 0.001 -0.0500771 0.00108035 -0.0400186 48.2171 -33.3034 58.2621 0 0.000378321
244 14 0.001 -0.0300771 0.00108035 -0.0400186 48.2179 -33.3033 58.2622 0 0.000378322
494 17 0.001 -0.0100771 0.00108035 -0.0400186 48.2179 -33.3033 58.2622 0 0.000378322
744 20 0.001 0.00992292 0.00108031 -0.0400185 48.1806 -33.3079 58.2596 0 0.000378291
994 23 0.001 0.0299229 0.00108031 -0.0400185 48.1806 -33.3079 58.2596 0 0.000378291
1244 26 0.001 0.0499229 0.00108036 -0.0400186 48.2185 -33.3032 58.2622 0 0.000378322
36 13 0.001 -0.0510574 0.00229455 -0.0386546 -5.28813 -76.0104 141.765 0 1.0172e-05
35 13 0.001 -0.0504473 0.001507 -0.0389082 0.841285 85.8447 -117.195 0 0.000152317
245 14 0.001 -0.0304473 0.001507 -0.0389082 0.841343 85.8444 -117.195 0 0.000152319
246 14 0.001 -0.0310574 0.00229455 -0.0386546 -5.28817 -76.0104 141.766 0 1.0172e-05
496 17 0.001 -0.0110574 0.00229455 -0.0386546 -5.2881 -76.0104 141.766 0 1.01721e-05
495 17 0.001 -0.0104473 0.001507 -0.0389082 0.841328 85.8444 -117.195 0 0.000152319
746 20 0.001 0.00894259 0.00229455 -0.0386546 -5.28453 -76.0125 141.761 0 1.01698e-05
745 20 0.001 0.00955266 0.00150704 -0.0389083 0.838286 85.8545 -117.202 0 0.000152243
995 23 0.001 0.0295527 0.00150704 -0.0389083 0.838289 85.8545 -117.202 0 0.000152243
996 23 0.001 0.0289426 0.00229455 -0.0386546 -5.28459 -76.0125 141.761 0 1.01698e-05
1246 26 0.001 0.0489426 0.00229455 -0.0386546 -5.28827 -76.0104 141.766 0 1.01721e-05
1245 26 0.001 0.0495527 0.001507 -0.0389082 0.841398 85.8443 -117.195 0 0.00015232
38 13 0.001 -0.0526665 0.00297672 -0.0376783 7.90031 -1.49442 15.0568 0 6.1633e-06
39 13 0.001 -0.0535542 0.00294348 -0.0372037 -1.09744 0.357125 -2.02072 0 6.19165e-06
37 13 0.001 -0.0518058 0.00274579 -0.038147 -21.3719 31.3667 -61.5009 0 6.63394e-06
249 14 0.001 -0.0335542 0.00294348 -0.0372037 -1.0975 0.357118 -2.02084 0 6.19165e-06
247 14 0.001 -0.0318058 0.00274579 -0.038147 -21.3721 31.3668 -61.5012 0 6.63394e-06
248 14 0.001 -0.0326665 0.00297672 -0.0376783 7.90042 -1.49444 15.057 0 6.1633e-06
499 17 0.001 -0.0135542 0.00294348 -0.0372037 -1.0976 0.357105 -2.02101 0 6.19165e-06
498 17 0.001 -0.0126665 0.00297672 -0.0376783 7.90052 -1.49445 15.0572 0 6.1633e-06
497 17 0.001 -0.0118058 0.00274579 -0.038147 -21.3722 31.3668 -61.5014 0 6.63394e-06
748 20 0.001 0.00733353 0.00297672 -0.0376783 7.89861 -1.49431 15.0537 0 6.1633e-06
749 20 0.001 0.00644579 0.00294348 -0.0372037 -1.09743 0.357015 -2.02071 0 6.19165e-06
747 20 0.001 0.00819419 0.00274579 -0.038147 -21.3675 31.3632 -61.4916 0 6.63372e-06
999 23 0.001 0.0264458 0.00294348 -0.0372037 -1.09736 0.357025 -2.02058 0 6.19165e-06
997 23 0.001 0.0281942 0.00274579 -0.038147 -21.3674 31.3631 -61.4914 0 6.63372e-06
998 23 0.001 0.0273335 0.00297672 -0.0376783 7.89853 -1.49429 15.0535 0 6.1633e-06
1249 26 0.001 0.0464458 0.00294348 -0.0372037 -1.09745 0.357129 -2.02073 0 6.19165e-06
1248 26 0.001 0.0473335 0.00297672 -0.0376783 7.90039 -1.49443 15.057 0 6.1633e-06
1247 26 0.001 0.0481942 0.00274579 -0.038147 -21.3721 31.3668 -61.5013 0 6.63395e-06
42 13 0.001 -0.0556409 0.00141316 -0.035782 0.0168641 -0.00746026 0.00273377 0 6.18779e-06
252 14 0.001 -0.0356409 0.00141316 -0.035782 0.0168786 -0.00744583 0.00277065 0 6.18779e-06
502 17 0.001 -0.0156409 0.00141316 -0.035782 0.0169048 -0.00740678 0.00285927 0 6.18779e-06
752 20 0.001 0.00435911 0.00141316 -0.035782 0.0169 -0.00741473 0.00284178 0 6.18779e-06
1002 23 0.001 0.0243591 0.00141316 -0.035782 0.0168773 -0.00745344 0.00275684 0 6.18779e-06
1252 26 0.001 0.0443591 0.00141316 -0.035782 0.0168641 -0.00746026 0.00273377 0 6.18779e-06
40 13 0.001 -0.0543935 0.00265133 -0.0367299 0.162159 -0.00873322 0.275275 0 6.18739e-06
41 13 0.001 -0.05511 0.00212581 -0.0362559 -0.0027972 -0.0175518 -0.028486 0 6.18783e-06
251 14 0.001 -0.03511 0.00212581 -0.0362559 -0.00282791 -0.0175758 -0.0285591 0 6.18783e-06
250 14 0.001 -0.0343935 0.00265133 -0.0367299 0.162207 -0.00871133 0.275375 0 6.18739e-06
501 17 0.001 -0.01511 0.00212581 -0.0362559 -0.00287678 -0.0176175 -0.0286804 0 6.18783e-06
500 17 0.001 -0.0143935 0.00265133 -0.0367299 0.16228 -0.00867738 0.275528 0 6.18739e-06
750 20 0.001 0.00560653 0.00265133 -0.0367299 0.162256 -0.0086824 0.275482 0 6.18739e-06
751 20 0.001 0.00488996 0.00212581 -0.0362559 -0.00286874 -0.0176102 -0.0286598 0 6.18783e-06
1001 23 0.001 0.02489 0.00212581 -0.0362559 -0.0028306 -0.0175752 -0.0285619 0 6.18783e-06
1000 23 0.001 0.0256065 0.00265133 -0.0367299 0.162203 -0.00870824 0.27537 0 6.18739e-06
1251 26 0.001 0.04489 0.00212581 -0.0362559 -0.00279721 -0.0175518 -0.028486 0 6.18783e-06
1250 26 0.001 0.0456065 0.00265133 -0.0367299 0.162159 -0.00873323 0.275276 0 6.18739e-06
44 13 0.001 -0.055979 -0.000311607 -0.0348341 0.0176198 0.00209124 0.000467507 0 6.18779e-06
45 13 0.001 -0.0557564 -0.00117192 -0.0343602 0.0164465 0.00669648 -0.000515317 0 6.18779e-06
254 14 0.001 -0.035979 -0.000311607 -0.0348341 0.0176302 0.00206243 0.00041119 0 6.18779e-06
255 14 0.001 -0.0357564 -0.00117192 -0.0343602 0.016418 0.0067453 -0.000409166 0 6.18779e-06
504 17 0.001 -0.015979 -0.000311607 -0.0348341 0.0176314 0.00208068 0.000445429 0 6.18779e-06
505 17 0.001 -0.0157564 -0.00117192 -0.0343602 0.0164194 0.0067366 -0.000425473 0 6.18779e-06
754 20 0.001 0.00402104 -0.000311607 -0.0348341 0.0176314 0.00207515 0.000435015 0 6.18779e-06
755 20 0.001 0.00424357 -0.00117192 -0.0343602 0.0164185 0.00674009 -0.000418682 0 6.18779e-06
1004 23 0.001 0.024021 -0.000311607 -0.0348341 0.0176337 0.00204113 0.000370477 0 6.18779e-06
1005 23 0.001 0.0242436 -0.00117192 -0.0343602 0.0164078 0.00676795 -0.000362241 0 6.18779e-06
1254 26 0.001 0.044021 -0.000311607 -0.0348341 0.0176198 0.00209124 0.000467507 0 6.18779e-06
1255 26 0.001 0.0442436 -0.00117192 -0.0343602 0.0164465 0.00669648 -0.000515317 0 6.18779e-06
43 13 0.001 -0.0559393 0.000576134 -0.0353081 0.0173304 -0.00368665 -0.000546863 0 6.18779e-06
253 14 0.001 -0.0359393 0.000576134 -0.0353081 0.0173243 -0.00368157 -0.000539527 0 6.18779e-06
503 17 0.001 -0.0159393 0.000576134 -0.0353081 0.0173144 -0.00371118 -0.000598256 0 6.18779e-06
753 20 0.001 0.00406072 0.000576134 -0.0353081 0.0173164 -0.00370394 -0.00058409 0 6.18779e-06
1003 23 0.001 0.0240607 0.000576134 -0.0353081 0.0173254 -0.00366595 -0.000510208 0 6.18779e-06
1253 26 0.001 0.0440607 0.000576134 -0.0353081 0.0173304 -0.00368665 -0.000546863 0 6.18779e-06
46 13 0.001 -0.0552913 -0.00192908 -0.0338863 0.0133876 0.0116514 0.000550253 0 6.18779e-06
47 13 0.001 -0.0546244 -0.00251644 -0.0334123 0.00987734 0.0147505 -0.000565067 0 6.18779e-06
48 13 0.001 -0.0538146 -0.00288231 -0.0329384 0.00454327 0.0171625 0.000559794 0 6.18779e-06
49 13 0.001 -0.0529331 -0.00299447 -0.0324645 -0.000113694 0.0177458 -0.00053486 0 6.18779e-06
256 14 0.001 -0.0352913 -0.00192908 -0.0338863 0.0134443 0.0115938 0.000397674 0 6.18779e-06
257 14 0.001 -0.0346244 -0.00251644 -0.0334123 0.00978966 0.0148012 -0.000373658 0 6.18779e-06
258 14 0.001 -0.0338146 -0.00288231 -0.0329384 0.00465549 0.0171339 0.000340853 0 6.18779e-06
259 14 0.001 -0.0329331 -0.00299447 -0.0324645 -0.000236512 0.0177422 -0.000302464 0 6.18779e-06
506 17 0.001 -0.0152913 -0.00192908 -0.0338863 0.0134436 0.0115965 0.000402529 0 6.18779e-06
507 17 0.001 -0.0146244 -0.00251644 -0.0334123 0.0097889 0.0148011 -0.000372632 0 6.18779e-06
508 17 0.001 -0.0138146 -0.00288231 -0.0329384 0.00465685 0.0171335 0.000338197 0 6.18779e-06
509 17 0.001 -0.0129331 -0.00299447 -0.0324645 -0.000237265 0.0177426 -0.00030108 0 6.18779e-06
756 20 0.001 0.00470872 -0.00192908 -0.0338863 0.0134447 0.0115947 0.000398694 0 6.18779e-06
757 20 0.001 0.00537555 -0.00251644 -0.0334123 0.00978814 0.0148018 -0.000370683 0 6.18779e-06
758 20 0.001 0.00618537 -0.00288231 -0.0329384 0.00465753 0.0171333 0.000336851 0 6.18779e-06
759 20 0.001 0.00706689 -0.00299447 -0.0324645 -0.000238339 0.0177423 -0.000299016 0 6.18779e-06
1006 23 0.001 0.0247087 -0.00192908 -0.0338863 0.0134606 0.0115742 0.000349595 0 6.18779e-06
1007 23 0.001 0.0253756 -0.00251644 -0.0334123 0.00977 0.0148147 -0.000328563 0 6.18779e-06
1008 23 0.001 0.0261854 -0.00288231 -0.0329384 0.00467519 0.0171273 0.000301577 0 6.18779e-06
1009 23 0.001 0.0270669 -0.00299447 -0.0324645 -0.000253401 0.017743 -0.00027053 0 6.18779e-06
1256 26 0.001 0.0447087 -0.00192908 -0.0338863 0.0133876 0.0116514 0.000550253 0 6.18779e-06
1257 26 0.001 0.0453756 -0.00251644 -0.0334123 0.00987734 0.0147505 -0.000565067 0 6.18779e-06
1258 26 0.001 0.0461854 -0.00288231 -0.0329384 0.00454327 0.0171625 0.000559794 0 6.18779e-06
1259 26 0.001 0.0470669 -0.00299447 -0.0324645 -0.000113694 0.0177458 -0.00053486 0 6.18779e-06
50 13 0.001 -0.0520575 -0.00284306 -0.0319905 -0.00583384 0.016773 0.00049094 0 6.18779e-06
51 13 0.001 -0.0512648 -0.0024414 -0.0315166 -0.0100916 0.0145903 -0.000429239 0 6.18779e-06
52 13 0.001 -0.0506249 -0.00182484 -0.0310427 -0.0141975 0.0106737 0.000351813 0 6.18779e-06
260 14 0.001 -0.0320575 -0.00284306 -0.0319905 -0.00571781 0.0168099 0.000260651 0 6.18779e-06
261 14 0.001 -0.0312648 -0.0024414 -0.0315166 -0.0101853 0.0145281 -0.000216557 0 6.18779e-06
262 14 0.001 -0.0306249 -0.00182484 -0.0310427 -0.0141348 0.0107463 0.000170561 0 6.18779e-06
510 17 0.001 -0.0120575 -0.00284306 -0.0319905 -0.00571847 0.0168091 0.000262324 0 6.18779e-06
511 17 0.001 -0.0112648 -0.0024414 -0.0315166 -0.0101832 0.0145304 -0.000222335 0 6.18779e-06
512 17 0.001 -0.0106249 -0.00182484 -0.0310427 -0.0141376 0.0107414 0.000181188 0 6.18779e-06
760 20 0.001 0.00794252 -0.00284306 -0.0319905 -0.00571658 0.0168101 0.000258302 0 6.18779e-06
761 20 0.001 0.00873519 -0.0024414 -0.0315166 -0.010186 0.0145278 -0.000215229 0 6.18779e-06
762 20 0.001 0.00937513 -0.00182484 -0.0310427 -0.0141345 0.0107465 0.000169957 0 6.18779e-06
1010 23 0.001 0.0279425 -0.00284306 -0.0319905 -0.00570536 0.0168129 0.000236509 0 6.18779e-06
1011 23 0.001 0.0287352 -0.0024414 -0.0315166 -0.0101931 0.0145239 -0.000199935 0 6.18779e-06
1012 23 0.001 0.0293751 -0.00182484 -0.0310427 -0.0141309 0.0107498 0.000160839 0 6.18779e-06
1260 26 0.001 0.0479425 -0.00284306 -0.0319905 -0.00583384 0.016773 0.00049094 0 6.18779e-06