ITEM: TIMESTEP
18
ITEM: NUMBER OF ATOMS
1472
ITEM: BOX BOUNDS ff ff ff
-6.0000000000000005e-02 6.0000000000000005e-02
-6.0000000000000001e-03 6.0000000000000001e-03
-5.5000000000000000e-02 5.5000000000000000e-02
ITEM: ATOMS id type radius x y z fx fy fz c_bendingE c_stretchingE
1 1 0.001 -0.0485413 0.000471058 -0.0510749 -16.6472 2.60786 25.4751 0 0.0159271
13 13 0.001 -0.0502371 0.00102849 -0.0483726 -2.30089 14.1995 3.66337 0 0.0118228
433 15 0.001 -0.0500232 0.000470955 -0.0488235 24.9497 -3.13487 -24.4487 0 0.0219985
434 15 0.001 -0.0469435 -0.000267985 -0.0509944 1.50666 20.4964 -4.53933 0 0.0163328
435 15 0.001 -0.047498 -0.000146827 -0.0513789 -14.5306 -20.0933 34.8069 0 0.00503752
436 15 0.001 -0.0455023 0.000117441 -0.049818 16.6376 14.723 -32.8586 0 0.0147567
437 15 0.001 -0.0423231 8.06822e-05 -0.0493417 -17.0328 -11.429 16.5415 0 0.0104685
438 15 0.001 -0.0420322 -0.0013511 -0.0489277 -16.936 12.6614 -7.9932 0 0.00920805
439 15 0.001 -0.0434304 0.000373406 -0.0510441 10.673 4.12847 36.1017 0 0.0159808
440 15 0.001 -0.0423612 -0.00103161 -0.0487344 14.7966 9.99103 -22.8933 0 0.0103491
441 15 0.001 -0.0434766 0.000677776 -0.0495746 3.73157 -15.9255 3.91126 0 0.011289
442 15 0.001 -0.0404545 0.000830837 -0.0494986 -26.5633 -2.59047 -38.0923 0 0.00836438
443 15 0.001 -0.039433 0.000581733 -0.0499879 37.5504 -31.7992 13.9875 0 0.0080524
444 15 0.001 -0.0400657 -0.000272073 -0.0527806 4.84228 9.21858 36.0009 0 0.0267846
445 15 0.001 -0.0391212 0.000481028 -0.0489 -8.79914 18.393 -35.0019 0 0.0408374
446 15 0.001 -0.0353501 0.000249782 -0.050994 -21.905 1.57209 35.4638 0 0.0243428
447 15 0.001 -0.0336098 -0.000488816 -0.0501845 -6.1383 2.87528 0.00567481 0 0.0183906
448 15 0.001 -0.0345019 -0.000463981 -0.0464575 3.17583 6.73891 -69.5034 0 0.0920467
449 15 0.001 -0.0342914 0.000967799 -0.0534952 0.0327694 -25.5578 60.612 0 0.0860481
450 15 0.001 -0.0351192 -0.000432421 -0.0506959 -1.24748 44.1775 -18.4604 0 0.0112746
451 15 0.001 -0.0343873 0.00026953 -0.0492681 24.5347 -40.0528 6.57759 0 0.0167583
223 14 0.001 -0.0297556 0.00117542 -0.0465748 -12.8649 7.65862 -39.0593 0 0.0308568
452 15 0.001 -0.0306815 -0.00035744 -0.0497257 -13.2527 26.3461 8.79585 0 0.0171792
3 3 0.001 -0.0309256 0.00119324 -0.0507574 19.0181 -14.4182 19.0203 0 0.0267814
683 18 0.001 -0.0301642 -0.0001593 -0.0492386 -4.82707 -2.12138 -8.7223 0 0.00770272
684 18 0.001 -0.0286691 -6.05229e-05 -0.0513003 -31.245 -18.1584 44.121 0 0.00504955
685 18 0.001 -0.0275368 -6.9936e-05 -0.050732 39.6384 28.8539 -57.535 0 0.0150038
686 18 0.001 -0.0238219 -0.000204486 -0.0506168 -39.5856 -27.1739 35.0946 0 0.0159897
687 18 0.001 -0.0227699 -0.000532714 -0.04927 32.86 33.3953 -13.5552 0 0.00976963
688 18 0.001 -0.021516 0.00116892 -0.047049 -33.4348 -33.2151 -38.793 0 0.0707374
689 18 0.001 -0.0240685 -0.00173416 -0.0523872 27.0871 27.5487 53.4995 0 0.0756299
690 18 0.001 -0.0231202 -0.0011528 -0.0489703 0.915191 2.68304 -16.6852 0 0.0162147
691 18 0.001 -0.0233224 0.000852947 -0.0497092 6.34331 -9.90598 19.9735 0 0.0124437
692 18 0.001 -0.0201379 0.000602144 -0.0495574 -25.8517 21.1893 -65.4596 0 0.00975241
693 18 0.001 -0.0191357 0.000429546 -0.0498672 19.4458 -5.53403 21.4613 0 0.0084749
694 18 0.001 -0.020212 0.00015349 -0.0527043 10.7278 -1.37465 37.5117 0 0.0246256
695 18 0.001 -0.0189142 0.000651241 -0.0491251 -8.30206 -16.6463 -34.4389 0 0.0286709
696 18 0.001 -0.015786 8.00557e-05 -0.0505734 -5.9461 2.22054 50.0577 0 0.0156051
697 18 0.001 -0.0136372 -0.000448879 -0.0503028 -10.4624 4.90851 -10.1072 0 0.0163732
698 18 0.001 -0.0140892 -0.000314541 -0.0467636 -3.85396 3.67381 -60.0359 0 0.0678877
699 18 0.001 -0.0144498 0.000612739 -0.0529243 7.94697 -24.1545 43.337 0 0.0568374
700 18 0.001 -0.0149407 -0.000181072 -0.0511142 -1.51344 42.3207 -1.96437 0 0.00445245
701 18 0.001 -0.0145387 0.000358864 -0.0491897 24.7816 -35.4781 -1.03549 0 0.0212045
702 18 0.001 -0.0105718 -0.000432653 -0.0497104 -16.4953 24.0956 7.14112 0 0.0205357
5 5 0.001 -0.0108399 0.000992768 -0.0508829 22.0273 -15.2221 18.6156 0 0.0256153
473 17 0.001 -0.00978573 0.00123977 -0.046737 -12.3987 6.30914 -36.8012 0 0.0285715
933 21 0.001 -0.0102384 -9.2067e-05 -0.0491951 -7.03495 -0.495736 -5.03429 0 0.00649408
934 21 0.001 -0.00897741 1.17394e-05 -0.051239 -14.4809 -7.19708 22.1479 0 0.00527663
935 21 0.001 -0.00727143 -0.000114195 -0.0507759 19.6386 6.37621 -21.5972 0 0.0133485
936 21 0.001 -0.00386481 -3.99627e-05 -0.0502183 -23.8389 21.2198 8.54403 0 0.0123131
937 21 0.001 -0.00272409 0.000215345 -0.0496343 5.06587 -25.4741 6.64805 0 0.0048379
938 21 0.001 -0.0015632 -6.37779e-05 -0.0474309 -30.959 5.18322 -43.218 0 0.0626601
939 21 0.001 -0.0053558 -0.000216985 -0.0525877 37.2968 0.631339 67.5864 0 0.10003
940 21 0.001 -0.00337512 0.000121019 -0.0473692 -12.988 -11.8975 -41.9707 0 0.0443188
941 21 0.001 -0.00418001 -5.61767e-05 -0.0492593 30.1964 15.7531 -6.21272 0 0.0270933
942 21 0.001 -1.70093e-05 -4.23074e-06 -0.0510207 -1.99177 2.85595 2.52468 0 0.0318941
943 21 0.001 0.00246747 -0.000239165 -0.0495886 -16.7464 7.83049 -13.2448 0 0.00988566
944 21 0.001 0.000726244 9.66402e-06 -0.0508379 22.9121 -5.48841 64.4051 0 0.00281281
945 21 0.001 -0.000191354 2.69006e-05 -0.0501561 -0.72771 -4.85938 -34.0662 0 0.0211675
946 21 0.001 0.00391689 2.80311e-05 -0.0512389 -30.98 -1.73704 6.9268 0 0.0243207
947 21 0.001 0.00529195 8.09622e-06 -0.0494565 -18.064 -1.17877 9.46816 0 0.00367585
948 21 0.001 0.00407289 4.01846e-06 -0.0502608 23.9252 0.994063 -9.7281 0 0.00584909
949 21 0.001 0.0058079 7.89543e-06 -0.0482871 6.07968 1.02607 -32.1272 0 0.0184803
950 21 0.001 0.00738778 -2.15711e-06 -0.0514698 -24.9327 -0.701761 26.3255 0 0.0227681
951 21 0.001 0.00452917 -3.12118e-05 -0.0500531 31.0372 2.64448 3.8639 0 0.0224736
7 7 0.001 0.01 0 -0.05 -17.1204 4.88363 40.3583 0 0.0284305
723 20 0.001 0.010061 0.000880278 -0.0481154 -18.3954 3.87649 30.6063 0 0.0026941
952 21 0.001 0.00738584 0.00034194 -0.0480233 -0.536943 -5.144 -22.2063 0 0.023408
1183 24 0.001 0.0106449 1.82333e-05 -0.0462834 15.3146 -0.234774 -49.6459 0 0.0528432
1184 24 0.001 0.0137477 -3.14846e-06 -0.050622 -26.9974 0.0855998 20.9864 0 0.0406428
1185 24 0.001 0.0120418 -3.02405e-06 -0.0520921 14.3692 0.0496313 38.6674 0 0.036505
1186 24 0.001 0.0130266 -3.44431e-06 -0.0471024 19.9938 0.0161408 -49.8731 0 0.0672933
1187 24 0.001 0.0171978 7.34478e-06 -0.050088 -30.3036 -1.25123 4.39087 0 0.0365722
1188 24 0.001 0.0185027 1.65724e-05 -0.0517548 -17.3644 0.300803 26.2174 0 0.0187656
1189 24 0.001 0.0160469 -1.44291e-05 -0.0488 31.3636 0.929557 -27.5399 0 0.0264116
1190 24 0.001 0.0171197 1.08357e-05 -0.05187 25.859 -0.241053 19.5029 0 0.0381363
1191 24 0.001 0.0205671 1.19832e-05 -0.0486172 31.3073 -0.991576 -33.9208 0 0.0300465
1192 24 0.001 0.0199714 -1.0673e-05 -0.0505405 -0.415789 -2.73 -24.695 0 0.00249379
1193 24 0.001 0.0202947 -1.52677e-05 -0.0501036 -32.7746 4.07695 -7.24375 0 0.000425228
1194 24 0.001 0.0213013 2.43002e-06 -0.0495588 51.7721 -0.220585 6.71896 0 0.000108594
1195 24 0.001 0.0208564 -2.16935e-06 -0.0502428 -90.028 1.2873 15.5215 0 0.000332817
1196 24 0.001 0.0221912 -3.86294e-06 -0.0504609 13.7022 -1.11626 44.2254 0 0.00411815
1197 24 0.001 0.0245243 -2.35127e-05 -0.050044 -0.496022 2.72064 -19.5583 0 0.00397467
1198 24 0.001 0.0235803 2.13379e-06 -0.0508461 7.04452 -1.6913 27.6572 0 0.0114529
1199 24 0.001 0.0249972 2.57514e-05 -0.047787 2.88256 -1.47818 -40.8924 0 0.0376127
1200 24 0.001 0.0252139 -7.14855e-05 -0.0524096 -8.6831 3.96865 33.9457 0 0.029911
1201 24 0.001 0.0262924 6.0674e-05 -0.0503497 12.045 -5.29725 6.4402 0 0.0230184
9 9 0.001 0.03 0 -0.05 -11.0798 -15.482 33.7255 0 0.0230728
973 23 0.001 0.030061 0.000880278 -0.0481154 -18.3954 3.87649 30.6063 0 0.0026941
1202 24 0.001 0.0290458 6.94534e-05 -0.0472935 -16.9554 1.94661 -26.1814 0 0.0264857
1433 27 0.001 0.0301182 -0.00300853 -0.0480252 18.9946 36.9644 -21.6447 0 0.0425372
1434 27 0.001 0.0333993 0.000104438 -0.049659 -30.694 -3.4737 -4.4938 0 0.0470835
1435 27 0.001 0.031159 0.00270965 -0.0517233 20.6856 -45.6417 12.4354 0 0.0493749
1436 27 0.001 0.032621 -0.0020032 -0.0522032 18.2502 30.9515 16.0859 0 0.0617374
1437 27 0.001 0.0365023 -0.00202657 -0.0491971 -11.7242 20.0163 -5.38443 0 0.0471748
1438 27 0.001 0.0366182 0.00122095 -0.0470677 6.93917 -18.34 -30.6065 0 0.0349998
1439 27 0.001 0.0372284 0.000100949 -0.0508844 -4.22011 2.2947 26.5315 0 0.0297989
1440 27 0.001 0.040286 -0.000203945 -0.0494544 -23.5308 7.66454 -1.42506 0 0.0131155
1441 27 0.001 0.0384881 0.00022797 -0.0490887 -19.8381 -11.7241 -50.8553 0 0.00173512
1442 27 0.001 0.0395395 8.75133e-05 -0.0496538 43.5582 5.73961 63.5217 0 0.00685285
1443 27 0.001 0.0422461 6.59056e-05 -0.0504661 -21.2371 -5.35922 -30.9051 0 0.0144775
1444 27 0.001 0.0418369 0.000681416 -0.0533276 1.90511 -8.31695 50.1659 0 0.0445975
1445 27 0.001 0.040575 -0.000254806 -0.0482645 18.1211 10.0943 -38.866 0 0.0454799
1446 27 0.001 0.0427192 9.96223e-05 -0.0504263 -1.91418 -5.72005 13.0124 0 0.017822
1447 27 0.001 0.045849 -0.000109358 -0.0503678 -7.18325 25.2773 0.811923 0 0.0121972
1448 27 0.001 0.0456329 -1.98774e-06 -0.0481754 -6.10347 -11.3434 -37.4036 0 0.0299146
1449 27 0.001 0.0459464 0.00051703 -0.0528082 -1.07589 -14.3741 45.0718 0 0.0341151
1450 27 0.001 0.0448131 -8.65259e-05 -0.0502251 2.81427 1.28804 -38.9624 0 0.00843436
1451 27 0.001 0.0465588 0.000189388 -0.0503342 -23.2234 -3.73026 55.6507 0 0.00686424
1452 27 0.001 0.0483234 0.000272505 -0.0483412 20.3394 7.72091 -49.8323 0 0.0065957
11 11 0.001 0.0499683 0.000329786 -0.0486772 0.305359 5.91657 34.5353 0 0.00134928
1223 26 0.001 0.0489939 0.00134238 -0.0487465 -3.01027 -16.5577 -31.9532 0 0.000434747
14 13 0.001 -0.0518713 0.00157809 -0.0491968 12.9437 1.86466 1.08421 0 0.00744227
224 14 0.001 -0.031201 0.00189127 -0.0491668 11.3147 2.64391 18.9043 0 0.00954836
474 17 0.001 -0.0113297 0.00181995 -0.0490715 12.3589 2.52428 16.5726 0 0.00841145
724 20 0.001 0.00908247 0.00158055 -0.0487347 -16.3758 26.1124 19.8885 0 0.00028572
974 23 0.001 0.0290825 0.00158055 -0.0487347 -16.3758 26.1124 19.8885 0 0.00028572
1224 26 0.001 0.0483851 0.00181724 -0.04893 8.27518 10.8924 27.5102 0 0.00529185
17 13 0.001 -0.0519332 0.00326744 -0.049477 -3.19184 -4.40527 18.0764 0 0.0233254
15 13 0.001 -0.0495611 0.00179229 -0.0478593 -3.88432 -17.2963 -22.2532 0 0.00617191
16 13 0.001 -0.0491745 0.00220039 -0.0492023 -11.9774 1.84601 -0.58243 0 0.00830328
226 14 0.001 -0.0292807 0.00237243 -0.0491409 -15.04 -11.1463 -7.91795 0 0.00783508
227 14 0.001 -0.0320983 0.00311144 -0.0493002 -0.14852 6.99778 16.5903 0 0.0204153
225 14 0.001 -0.0298922 0.0015806 -0.048125 -6.56024 -0.103963 -0.403816 0 0.00144278
477 17 0.001 -0.0120961 0.00310124 -0.0492888 0.00150064 7.2561 16.3514 0 0.0205292
475 17 0.001 -0.00979247 0.00160635 -0.0481127 -7.22242 -1.69583 -0.940463 0 0.00179766
476 17 0.001 -0.00924328 0.00238476 -0.0491531 -15.1496 -10.2032 -6.96669 0 0.00801825
727 20 0.001 0.00802818 0.00382396 -0.0485784 8.71239 -7.51919 27.5909 0 0.0168014
725 20 0.001 0.00949202 0.000978035 -0.048128 40.3365 -22.7076 -37.4224 0 3.65377e-06
726 20 0.001 0.0100198 0.00172742 -0.0484313 -12.6896 -1.71141 -27.0517 0 0.00726809
976 23 0.001 0.0300198 0.00172742 -0.0484313 -12.6896 -1.71141 -27.0517 0 0.00726809
977 23 0.001 0.0280282 0.00382396 -0.0485784 8.71239 -7.51919 27.5909 0 0.0168014
975 23 0.001 0.029492 0.000978035 -0.048128 40.3365 -22.7076 -37.4224 0 3.65377e-06
1227 26 0.001 0.0478825 0.00317433 -0.0493262 -0.11403 6.04162 19.2185 0 0.0199221
1225 26 0.001 0.0501256 0.000734654 -0.0473247 -6.95767 9.38428 -18.0867 0 0.0090117
1226 26 0.001 0.0505499 0.0022427 -0.049091 -15.7465 -11.2536 -0.917146 0 0.0106039
19 13 0.001 -0.0560042 0.00165387 -0.0456861 -11.5821 -5.82939 -3.4264 0 0.0116191
20 13 0.001 -0.0566419 -0.00108078 -0.0468273 14.4353 18.4975 18.832 0 0.0195643
18 13 0.001 -0.0547753 0.00303467 -0.0469988 21.6099 -15.8657 -5.97598 0 0.0187694
230 14 0.001 -0.0366556 -0.0010466 -0.0467911 15.432 17.5416 18.9722 0 0.0197117
228 14 0.001 -0.0348568 0.00302237 -0.0470802 22.7988 -21.2147 -2.32386 0 0.0164991
229 14 0.001 -0.0360563 0.00164398 -0.0456654 -14.1682 -5.12916 -6.81012 0 0.0114181
480 17 0.001 -0.0166544 -0.00104828 -0.0467946 15.4381 17.5715 19.0066 0 0.0197366
478 17 0.001 -0.0148562 0.00302346 -0.0470856 23.0746 -21.1949 -1.83559 0 0.016417
479 17 0.001 -0.0160549 0.00164785 -0.0456632 -14.3487 -5.23873 -6.97183 0 0.0114889
729 20 0.001 0.00470633 0.00206021 -0.0469313 6.77353 -20.4118 72.719 0 0.0112132
730 20 0.001 0.0038676 -0.00105846 -0.04654 14.3285 25.8061 -5.63458 0 0.0224244
728 20 0.001 0.00551132 0.00351436 -0.0466681 -6.2339 6.78436 -62.5779 0 0.0105229
980 23 0.001 0.0238676 -0.00105846 -0.04654 14.3285 25.8061 -5.63458 0 0.0224244
978 23 0.001 0.0255113 0.00351436 -0.0466681 -6.2339 6.78436 -62.5779 0 0.0105229
979 23 0.001 0.0247063 0.00206021 -0.0469313 6.77353 -20.4118 72.719 0 0.0112132
1230 26 0.001 0.0433411 -0.001025 -0.0467556 15.4212 17.133 18.7279 0 0.0194459
1228 26 0.001 0.0451567 0.00300545 -0.0470519 21.2663 -19.378 -3.80269 0 0.016509
1229 26 0.001 0.0439379 0.00161208 -0.0457047 -13.0602 -4.5394 -6.35542 0 0.0107128
23 13 0.001 -0.0549616 -0.00157448 -0.0455636 -16.2218 21.3508 15.5887 0 0.0183944
233 14 0.001 -0.034956 -0.00157064 -0.0455792 -16.2389 21.3654 16.5586 0 0.0190854
483 17 0.001 -0.0149567 -0.00157084 -0.0455784 -16.2363 21.3736 16.5216 0 0.0190722
733 20 0.001 0.00475856 -0.00183759 -0.045286 -21.7216 -5.97247 43.7942 0 0.00525794
983 23 0.001 0.0247586 -0.00183759 -0.045286 -21.7216 -5.97247 43.7942 0 0.00525794
1233 26 0.001 0.0450548 -0.00156832 -0.0455866 -16.2655 21.272 16.8089 0 0.0191411
21 13 0.001 -0.0545954 0.000701134 -0.0448406 -19.3478 -1.88351 -4.95498 0 0.0130645
22 13 0.001 -0.0558248 0.00219034 -0.0446755 12.0015 -23.5631 -15.846 0 0.0194208
231 14 0.001 -0.0344893 0.000640226 -0.0447462 -20.6631 1.71145 -9.62264 0 0.0143985
232 14 0.001 -0.0358729 0.0022475 -0.0447348 12.9838 -26.8238 -12.031 0 0.020811
481 17 0.001 -0.0144936 0.000642487 -0.0447527 -20.6385 1.60238 -9.38333 0 0.0143376
482 17 0.001 -0.0158718 0.00224589 -0.0447304 12.9453 -26.6947 -12.2278 0 0.0207707
731 20 0.001 0.00504128 0.00214072 -0.0459211 1.30771 -19.2717 -4.53757 0 0.0188773
732 20 0.001 0.00399687 0.000194522 -0.0441743 -4.38805 -1.98203 -26.6397 0 0.0108977
981 23 0.001 0.0250413 0.00214072 -0.0459211 1.30771 -19.2717 -4.53757 0 0.0188773
982 23 0.001 0.0239969 0.000194522 -0.0441743 -4.38805 -1.98203 -26.6397 0 0.0108977
1231 26 0.001 0.0455538 0.000620744 -0.0446706 -20.6401 2.6976 -12.1895 0 0.014987
1232 26 0.001 0.0441268 0.00226091 -0.0447872 13.289 -27.9917 -9.99176 0 0.0211187
25 13 0.001 -0.0545326 -0.000802718 -0.0437693 16.6554 117.705 41.8302 0 0.00078883
26 13 0.001 -0.0545561 -0.0012344 -0.0431015 10.3444 -78.661 86.949 0 6.89915e-05
235 14 0.001 -0.034534 -0.000801644 -0.0437709 15.3855 118.697 41.5789 0 0.000772262
236 14 0.001 -0.0345561 -0.00123471 -0.0431017 11.3574 -79.6154 86.2558 0 6.7661e-05
485 17 0.001 -0.014534 -0.000801688 -0.0437708 15.4383 118.647 41.5948 0 0.000773772
486 17 0.001 -0.0145562 -0.00123471 -0.0431017 11.298 -79.5713 86.2842 0 6.77294e-05
735 20 0.001 0.00545775 -0.000789491 -0.0437537 18.8451 105.734 48.8349 0 0.00122551
736 20 0.001 0.00541948 -0.00124811 -0.0430893 -4.50501 -74.4548 82.4341 0 5.88674e-05
985 23 0.001 0.0254577 -0.000789491 -0.0437537 18.8451 105.734 48.8349 0 0.00122551
986 23 0.001 0.0254195 -0.00124811 -0.0430893 -4.50501 -74.4548 82.4341 0 5.88674e-05
1235 26 0.001 0.0454673 -0.00080157 -0.0437719 14.9778 119.161 41.3884 0 0.000753301
1236 26 0.001 0.0454444 -0.00123454 -0.043102 11.9536 -80.0034 86.0652 0 6.72334e-05
24 13 0.001 -0.0539722 -0.00213099 -0.0444181 16.9627 -3.53668 9.37826 0 0.00152707
234 14 0.001 -0.0339648 -0.00212679 -0.0444024 16.3551 -3.8043 10.8703 0 0.00157137
484 17 0.001 -0.0139646 -0.00212694 -0.0444033 16.397 -3.77904 10.7795 0 0.00157118
734 20 0.001 0.00627922 -0.00209499 -0.04457 22.1097 13.285 -16.6404 0 0.00220784
984 23 0.001 0.0262792 -0.00209499 -0.04457 22.1097 13.285 -16.6404 0 0.00220784
1234 26 0.001 0.0460296 -0.00212564 -0.0443921 15.8377 -4.11418 11.8233 0 0.00156185
27 13 0.001 -0.0547528 -0.000335374 -0.043248 -12.4106 -28.3713 -133.77 0 0.0122077
28 13 0.001 -0.0521574 -0.00214135 -0.0418338 -9.7426 13.0217 -12.3169 0 0.0162861
29 13 0.001 -0.0521625 -0.00207532 -0.0394203 -5.50138 -10.042 -21.5625 0 0.00790933
30 13 0.001 -0.0529647 -0.00152105 -0.0415786 21.373 -3.76752 3.2285 0 0.0188229
237 14 0.001 -0.0347526 -0.0003353 -0.0432483 -12.2437 -28.3114 -133.699 0 0.012207
238 14 0.001 -0.0321575 -0.00214138 -0.0418337 -9.74691 13.0258 -12.3035 0 0.0162857
239 14 0.001 -0.0321625 -0.00207532 -0.0394202 -5.502 -10.045 -21.5623 0 0.00790966
240 14 0.001 -0.0329647 -0.00152097 -0.0415785 21.3725 -3.7696 3.22812 0 0.0188235
487 17 0.001 -0.0147526 -0.000335302 -0.0432483 -12.2436 -28.3136 -133.704 0 0.0122069
488 17 0.001 -0.0121575 -0.00214138 -0.0418337 -9.74698 13.0264 -12.3026 0 0.0162856
489 17 0.001 -0.0121625 -0.00207532 -0.0394202 -5.50228 -10.0454 -21.5623 0 0.00790964
490 17 0.001 -0.0129647 -0.00152098 -0.0415785 21.3726 -3.76943 3.22814 0 0.0188235
737 20 0.001 0.00525623 -0.000333649 -0.0432438 -6.0371 -27.2748 -131.894 0 0.0121483
738 20 0.001 0.00784713 -0.00213959 -0.0418358 -9.65449 13.8507 -11.398 0 0.0162174
739 20 0.001 0.00783685 -0.00207514 -0.0394241 -5.72773 -10.4002 -21.5626 0 0.00789441
740 20 0.001 0.00703632 -0.00152434 -0.0415832 21.4394 -3.61763 3.24228 0 0.0187957
987 23 0.001 0.0252562 -0.000333649 -0.0432438 -6.0371 -27.2748 -131.894 0 0.0121483
988 23 0.001 0.0278471 -0.00213959 -0.0418358 -9.65449 13.8507 -11.398 0 0.0162174
989 23 0.001 0.0278368 -0.00207514 -0.0394241 -5.72773 -10.4002 -21.5626 0 0.00789441
990 23 0.001 0.0270363 -0.00152434 -0.0415832 21.4394 -3.61763 3.24228 0 0.0187957
1237 26 0.001 0.0452473 -0.000335285 -0.0432483 -12.2775 -28.2897 -133.628 0 0.0122082
1238 26 0.001 0.0478424 -0.00214139 -0.0418337 -9.74319 13.013 -12.3284 0 0.0162871
1239 26 0.001 0.0478376 -0.00207533 -0.0394201 -5.49679 -10.0373 -21.5625 0 0.00790995
1240 26 0.001 0.0470353 -0.00152092 -0.0415785 21.3716 -3.77194 3.22786 0 0.018824
31 13 0.001 -0.0497375 -0.00227762 -0.0432979 -13.1625 -1.33145 19.5913 0 0.0191084
241 14 0.001 -0.0297375 -0.00227764 -0.0432978 -13.1628 -1.3309 19.5921 0 0.0191092
491 17 0.001 -0.00973749 -0.00227764 -0.0432978 -13.1628 -1.33092 19.592 0 0.0191092
741 20 0.001 0.0102635 -0.0022768 -0.0432996 -13.1502 -1.35096 19.5575 0 0.019076
991 23 0.001 0.0302635 -0.0022768 -0.0432996 -13.1502 -1.35096 19.5575 0 0.019076
1241 26 0.001 0.0502625 -0.00227766 -0.0432978 -13.163 -1.33049 19.5927 0 0.0191098
32 13 0.001 -0.049787 -0.00289028 -0.0409578 -15.8641 23.4043 0.897925 0 0.0292368
33 13 0.001 -0.0516339 0.000671672 -0.0388199 21.4491 -6.60399 -26.2353 0 0.0451499
242 14 0.001 -0.029787 -0.00289033 -0.0409577 -15.8641 23.4044 0.896707 0 0.0292365
243 14 0.001 -0.0316338 0.000671675 -0.03882 21.4489 -6.60458 -26.2343 0 0.0451488
492 17 0.001 -0.009787 -0.00289033 -0.0409577 -15.8641 23.4044 0.896773 0 0.0292366
493 17 0.001 -0.0116338 0.000671675 -0.03882 21.4488 -6.60456 -26.2344 0 0.0451489
742 20 0.001 0.0102146 -0.00288774 -0.0409608 -15.8671 23.3978 0.950296 0 0.0292474
743 20 0.001 0.00836551 0.00067153 -0.0388173 21.4619 -6.57878 -26.2782 0 0.0451948
992 23 0.001 0.0302146 -0.00288774 -0.0409608 -15.8671 23.3978 0.950301 0 0.0292474
993 23 0.001 0.0283655 0.00067153 -0.0388173 21.4619 -6.57875 -26.2782 0 0.0451948
1242 26 0.001 0.050213 -0.00289038 -0.0409577 -15.864 23.4045 0.895823 0 0.0292364
1243 26 0.001 0.0483662 0.000671677 -0.03882 21.4486 -6.60499 -26.2336 0 0.0451481
34 13 0.001 -0.0503262 0.003447 -0.0416342 -16.9893 -41.9234 22.7542 0 0.0417644
244 14 0.001 -0.0303261 0.00344697 -0.0416342 -16.9904 -41.9213 22.7532 0 0.041761
494 17 0.001 -0.0103261 0.00344697 -0.0416342 -16.9902 -41.9213 22.7533 0 0.041761
744 20 0.001 0.00967142 0.00344813 -0.0416341 -16.94 -42.0113 22.7955 0 0.0419047
994 23 0.001 0.0296714 0.00344813 -0.0416341 -16.94 -42.0114 22.7955 0 0.0419049
1244 26 0.001 0.0496739 0.00344695 -0.0416342 -16.9913 -41.9199 22.7525 0 0.0417588
36 13 0.001 -0.051064 0.00107021 -0.0357334 4.52409 2.65055 -29.8601 0 0.0320777
35 13 0.001 -0.050645 -0.000622517 -0.0402921 -1.69787 33.858 19.3696 0 0.0517919
245 14 0.001 -0.0306452 -0.000622328 -0.0402922 -1.69711 33.855 19.3711 0 0.0517896
246 14 0.001 -0.031064 0.00107017 -0.0357333 4.5372 2.64842 -29.871 0 0.0320782
496 17 0.001 -0.011064 0.00107018 -0.0357333 4.54283 2.64714 -29.8749 0 0.0320784
495 17 0.001 -0.0106452 -0.000622324 -0.0402922 -1.69765 33.855 19.3712 0 0.0517897
746 20 0.001 0.00893647 0.00107216 -0.0357351 4.12893 2.69629 -29.5177 0 0.0320628
745 20 0.001 0.00935988 -0.000630264 -0.040289 -1.74563 33.9854 19.3091 0 0.0518951
995 23 0.001 0.0293599 -0.000630279 -0.040289 -1.74533 33.9856 19.309 0 0.0518951
996 23 0.001 0.0289365 0.00107216 -0.0357351 4.12402 2.69712 -29.5143 0 0.0320626
1246 26 0.001 0.048936 0.00107014 -0.0357333 4.54008 2.64836 -29.8741 0 0.0320783
1245 26 0.001 0.0493548 -0.000622205 -0.0402922 -1.69603 33.8529 19.372 0 0.0517878
38 13 0.001 -0.0539765 0.00442991 -0.0406218 28.9818 -21.3384 60.2526 0 0.0863247
39 13 0.001 -0.0518558 0.00286536 -0.0346918 -17.1315 -1.61771 -48.3832 0 0.0663759
37 13 0.001 -0.051825 0.00226216 -0.0371314 -22.8268 -1.81355 -16.8812 0 0.0284562
249 14 0.001 -0.0318558 0.00286536 -0.0346918 -17.1335 -1.61389 -48.3828 0 0.0663756
247 14 0.001 -0.0318249 0.00226209 -0.0371315 -22.8454 -1.80841 -16.8661 0 0.0284566
248 14 0.001 -0.0339765 0.00442991 -0.0406217 28.9878 -21.3406 60.2473 0 0.0863246
499 17 0.001 -0.0118559 0.00286538 -0.0346918 -17.1351 -1.6124 -48.3826 0 0.0663764
498 17 0.001 -0.0139766 0.00442989 -0.0406217 28.9898 -21.3412 60.2455 0 0.0863247
497 17 0.001 -0.0118248 0.00226208 -0.0371315 -22.8529 -1.80704 -16.8603 0 0.0284564
748 20 0.001 0.00602408 0.0044296 -0.0406229 28.7913 -21.256 60.4118 0 0.0863102
749 20 0.001 0.00814442 0.00286639 -0.0346924 -17.1051 -1.65416 -48.3915 0 0.0663794
747 20 0.001 0.00817058 0.00226453 -0.0371292 -22.26 -1.97505 -17.3444 0 0.0284378
999 23 0.001 0.0281445 0.00286637 -0.0346924 -17.1038 -1.6548 -48.3917 0 0.0663786
997 23 0.001 0.0281705 0.00226455 -0.0371292 -22.2534 -1.97599 -17.3492 0 0.0284378
998 23 0.001 0.0260241 0.00442961 -0.0406229 28.7896 -21.2555 60.4133 0 0.08631
1249 26 0.001 0.0481442 0.00286532 -0.0346918 -17.1327 -1.61609 -48.3829 0 0.0663758
1248 26 0.001 0.0460235 0.00442992 -0.0406217 28.9895 -21.3419 60.2461 0 0.0863253
1247 26 0.001 0.0481752 0.00226206 -0.0371315 -22.8497 -1.80658 -16.8622 0 0.0284569
42 13 0.001 -0.0566476 0.0015077 -0.0362595 17.2616 -12.7644 9.26732 0 0.0339384
252 14 0.001 -0.0366467 0.00150835 -0.0362596 17.2399 -12.7792 9.26368 0 0.0339224
502 17 0.001 -0.0166465 0.00150888 -0.0362595 17.2383 -12.7852 9.25887 0 0.0339222
752 20 0.001 0.00335271 0.001508 -0.0362594 17.2533 -12.7563 9.26783 0 0.0339304
1002 23 0.001 0.0233527 0.00150764 -0.0362594 17.2493 -12.7549 9.27126 0 0.0339258
1252 26 0.001 0.0433524 0.00150773 -0.0362595 17.261 -12.7655 9.267 0 0.033938
40 13 0.001 -0.0532542 0.00196653 -0.036931 -13.8599 10.33 -1.34577 0 0.0267369
41 13 0.001 -0.0568893 0.00181642 -0.0389922 21.9633 -6.69105 20.7235 0 0.0265381
251 14 0.001 -0.0368898 0.00181639 -0.0389922 21.9653 -6.67822 20.7278 0 0.026542
250 14 0.001 -0.0332542 0.00196641 -0.036931 -13.8606 10.3221 -1.34617 0 0.0267417
501 17 0.001 -0.01689 0.00181635 -0.0389921 21.9653 -6.66969 20.7306 0 0.0265439
500 17 0.001 -0.0132542 0.00196623 -0.036931 -13.8598 10.3177 -1.34647 0 0.0267444
750 20 0.001 0.00674553 0.00196542 -0.0369308 -13.8759 10.3539 -1.34882 0 0.0267398
751 20 0.001 0.00311042 0.00181637 -0.0389921 21.9601 -6.71233 20.7256 0 0.0265392
1001 23 0.001 0.0231105 0.00181641 -0.0389922 21.9608 -6.71753 20.7239 0 0.0265383
1000 23 0.001 0.0267455 0.00196557 -0.0369307 -13.8771 10.3564 -1.34861 0 0.0267385
1251 26 0.001 0.0431107 0.00181642 -0.0389922 21.9635 -6.68943 20.7237 0 0.0265383
1250 26 0.001 0.0467458 0.00196656 -0.036931 -13.8593 10.3286 -1.34568 0 0.0267371
44 13 0.001 -0.0562899 0.000278245 -0.03627 24.5514 10.6955 22.2016 0 0.031928
45 13 0.001 -0.0561208 -0.00246501 -0.0355401 2.91574 8.33503 23.3957 0 0.0248883
254 14 0.001 -0.0362899 0.000278483 -0.0362684 24.7928 10.7426 22.1335 0 0.0318515
255 14 0.001 -0.0361239 -0.00245893 -0.0355402 2.30935 8.27409 23.3051 0 0.0245892
504 17 0.001 -0.0162902 0.000277593 -0.0362699 24.7763 10.7407 22.1381 0 0.0318677
505 17 0.001 -0.0161236 -0.00245817 -0.0355391 2.35801 8.25895 23.3117 0 0.0245884
754 20 0.001 0.00371001 0.000278333 -0.0362695 24.7828 10.741 22.143 0 0.0318695
755 20 0.001 0.00387621 -0.00245844 -0.0355396 2.33009 8.26721 23.3077 0 0.0245885
1004 23 0.001 0.0237104 0.000279415 -0.0362672 24.8455 10.751 22.1236 0 0.0318342
1005 23 0.001 0.0238753 -0.00245841 -0.0355411 2.1685 8.28173 23.283 0 0.0245414
1254 26 0.001 0.0437101 0.000278223 -0.03627 24.5515 10.6955 22.2013 0 0.0319277
1255 26 0.001 0.0438792 -0.002465 -0.03554 2.91608 8.3347 23.3957 0 0.0248881
43 13 0.001 -0.0540513 0.000880669 -0.0323657 -30.3704 -3.12428 -42.4136 0 0.0527021
253 14 0.001 -0.0340518 0.000880718 -0.0323662 -30.3736 -3.11693 -42.3786 0 0.0526566
503 17 0.001 -0.0140518 0.000880433 -0.0323662 -30.373 -3.10988 -42.3892 0 0.0526791
753 20 0.001 0.00594858 0.000880823 -0.032366 -30.3808 -3.1223 -42.3943 0 0.0526828
1003 23 0.001 0.0259484 0.000881142 -0.0323662 -30.3803 -3.12784 -42.3723 0 0.0526432
1253 26 0.001 0.0459487 0.000880656 -0.0323657 -30.3701 -3.12384 -42.4133 0 0.0527018
46 13 0.001 -0.0554188 -0.00105662 -0.0318644 12.6523 -3.76002 -9.26117 0 0.0190072
47 13 0.001 -0.0544726 -0.00176368 -0.0330687 -4.50142 -7.69839 -11.0196 0 0.0101734
48 13 0.001 -0.0532789 -0.00407366 -0.0348161 -7.32781 21.0466 12.3411 0 0.0189474
49 13 0.001 -0.0534435 -0.00296845 -0.0318151 -5.00236 -20.034 -9.55601 0 0.00998026
256 14 0.001 -0.0354313 -0.00106505 -0.0318804 14.2623 -3.37776 -7.24801 0 0.0187373
257 14 0.001 -0.0344531 -0.00176296 -0.0330556 -8.25587 -7.74695 -14.7495 0 0.00971174
258 14 0.001 -0.0333338 -0.00404853 -0.0347902 -6.22074 19.8973 12.4189 0 0.0171023
259 14 0.001 -0.033346 -0.00302306 -0.0319321 1.42184 -15.1802 -15.226 0 0.00865889
506 17 0.001 -0.0154299 -0.00106464 -0.0318788 14.1571 -3.37892 -7.42188 0 0.0187441
507 17 0.001 -0.0144552 -0.00176363 -0.033057 -8.0858 -7.77208 -14.4637 0 0.00973298
508 17 0.001 -0.0133304 -0.00404953 -0.0347918 -6.43233 20.1278 12.3329 0 0.0171803
509 17 0.001 -0.0133513 -0.0030197 -0.0319277 1.9812 -16.0412 -15.3077 0 0.00872112
756 20 0.001 0.0045693 -0.0010649 -0.0318797 14.2313 -3.37199 -7.31848 0 0.0187386
757 20 0.001 0.0055459 -0.00176334 -0.0330564 -8.19972 -7.74451 -14.6419 0 0.00971359
758 20 0.001 0.00666694 -0.00404862 -0.0347904 -6.26722 19.9135 12.3965 0 0.0171162
759 20 0.001 0.00665309 -0.00302259 -0.0319309 1.41811 -15.2452 -15.207 0 0.00867141
1006 23 0.001 0.0245654 -0.0010669 -0.0318842 14.5382 -3.34616 -6.79669 0 0.018687
1007 23 0.001 0.0255519 -0.00176216 -0.0330521 -8.93619 -7.74675 -15.535 0 0.00964483
1008 23 0.001 0.0266573 -0.00404466 -0.0347861 -5.98592 19.7031 12.5139 0 0.016828
1009 23 0.001 0.0266697 -0.00303149 -0.0319514 2.80665 -14.2894 -16.2059 0 0.00846554
1256 26 0.001 0.0445812 -0.00105662 -0.0318644 12.6518 -3.75999 -9.26195 0 0.0190071
1257 26 0.001 0.0455273 -0.00176368 -0.0330687 -4.50072 -7.69816 -11.0184 0 0.0101733
1258 26 0.001 0.0467211 -0.00407366 -0.0348161 -7.32837 21.0466 12.3408 0 0.0189475
1259 26 0.001 0.0465565 -0.00296845 -0.0318151 -5.00269 -20.034 -9.55543 0 0.00998033
50 13 0.001 -0.0524381 -0.00240785 -0.0312159 22.3835 35.9134 12.402 0 0.00492274
51 13 0.001 -0.050378 -0.00241146 -0.0326708 7.38851 7.00017 -3.57586 0 0.00820024
52 13 0.001 -0.0509824 -0.00209053 -0.0304702 8.40416 -61.1671 20.3404 0 0.00358036
260 14 0.001 -0.0324357 -0.00237444 -0.0311666 12.2803 27.6503 14.8323 0 0.00370082
261 14 0.001 -0.0305589 -0.00247683 -0.0324771 -10.9199 -5.21078 -11.7681 0 0.00440228
262 14 0.001 -0.0307289 -0.0019686 -0.0308825 11.3625 -16.8498 -5.01964 0 0.00110831
510 17 0.001 -0.0124369 -0.00237548 -0.0311584 14.1706 29.7962 17.2778 0 0.00394219
511 17 0.001 -0.0105329 -0.00246594 -0.0325094 -7.99176 -1.41612 -13.3226 0 0.00487022
512 17 0.001 -0.0107809 -0.00199114 -0.0308321 7.43243 -29.9208 -1.74231 0 0.00130554
760 20 0.001 0.00756443 -0.00237428 -0.0311666 12.5231 27.7418 15.0681 0 0.0037199
761 20 0.001 0.00944387 -0.00247601 -0.03248 -11.1162 -4.51489 -12.112 0 0.00443821
762 20 0.001 0.00926428 -0.00197052 -0.0308793 13.1602 -18.4717 -5.23838 0 0.00112223
1010 23 0.001 0.0275626 -0.00236969 -0.0311561 10.5962 25.9693 15.4642 0 0.00361321
1011 23 0.001 0.0294211 -0.00248216 -0.0324563 -14.6693 -6.46742 -11.7219 0 0.00415661
1012 23 0.001 0.0292919 -0.00195652 -0.0309186 20.6002 -10.6086 -8.59911 0 0.000991179
1260 26 0.001 0.0475619 -0.00240785 -0.0312159 22.3836 35.9132 12.4011 0 0.00492271
1261 26 0.001 0.049622 -0.00241146 -0.0326708 7.38862 7.00027 -3.57565 0 0.00820022
1262 26 0.001 0.0490176 -0.00209053 -0.0304702 8.40459 -61.1672 20.3401 0 0.00358037
53 13 0.001 -0.0502614 -0.00113923 -0.0304157 -95.771 52.6291 -58.5167 0 0.000460761
54 13 0.001 -0.0498074 0.000178308 -0.0305886 45.2613 -35.1404 28.6285 0 0.000913075
263 14 0.001 -0.0303895 -0.00116397 -0.0300277 -34.2753 14.108 -2.27566 0 0.000746244
264 14 0.001 -0.0298498 0.000157908 -0.0305981 -0.172094 -33.9821 13.4547 0 0.000856582
513 17 0.001 -0.0103641 -0.00119429 -0.0300607 -43.9478 29.8353 3.67531 0 0.000912178
514 17 0.001 -0.00984956 0.00020545 -0.0306968 21.3721 10.883 -5.98842 0 0.00160805
763 20 0.001 0.00961314 -0.00117273 -0.0300258 -40.0466 18.6409 2.3651 0 0.000811904
764 20 0.001 0.0101483 0.000172123 -0.0306277 12.1412 -20.7147 5.13775 0 0.00104539