ITEM: TIMESTEP
7
ITEM: NUMBER OF ATOMS
1472
ITEM: BOX BOUNDS ff ff ff
-6.0000000000000005e-02 6.0000000000000005e-02
-6.0000000000000001e-03 6.0000000000000001e-03
-5.5000000000000000e-02 5.5000000000000000e-02
ITEM: ATOMS id type radius x y z fx fy fz c_bendingE c_stretchingE
1 1 0.001 -0.0508666 -0.000175998 -0.0505795 4.08406 -1.50197 15.1414 0 0.00249844
13 13 0.001 -0.0498962 0.00051644 -0.0492673 2.55529 1.92876 -10.1339 0 0.00158333
433 15 0.001 -0.0491592 -2.12851e-05 -0.0501441 -3.35073 14.5323 -22.4795 0 0.00128229
434 15 0.001 -0.0480568 9.24276e-05 -0.0500262 -13.0551 -7.47582 73.5002 0 4.10233e-05
435 15 0.001 -0.0471203 6.78785e-06 -0.0498399 -29.1281 -4.38082 -137.469 0 3.74077e-06
436 15 0.001 -0.0462356 -9.04777e-05 -0.0502935 23.9559 -2.52841 103.385 0 0.000158847
437 15 0.001 -0.0452691 1.27733e-05 -0.0494981 33.9017 0.506539 -13.8475 0 0.000620369
438 15 0.001 -0.044296 4.51007e-05 -0.0505853 11.405 7.86843 -29.0177 0 0.00104582
439 15 0.001 -0.0433064 -4.42794e-05 -0.0494378 -9.58354 -8.58537 31.1423 0 0.000989243
440 15 0.001 -0.0423422 3.1256e-05 -0.0504896 -27.3294 9.90847 0.266182 0 0.000571763
441 15 0.001 -0.0414062 -1.56929e-06 -0.0496423 -10.8737 -75.4163 -47.0198 0 0.000171191
442 15 0.001 -0.0404711 -5.52444e-05 -0.0500654 8.56788 140.268 44.4921 0 8.41911e-06
443 15 0.001 -0.0395576 0.000132035 -0.0504132 32.7753 -73.0494 -22.2979 0 0.00052476
444 15 0.001 -0.0386821 -0.000182687 -0.0492499 -7.34342 3.42954 17.6175 0 0.00136618
445 15 0.001 -0.0376871 0.000117103 -0.050504 -9.51085 1.34457 -22.4228 0 0.000905265
446 15 0.001 -0.0365665 5.78416e-05 -0.0502489 4.05342 -1.93715 15.5491 0 0.000706417
447 15 0.001 -0.0356327 -0.000222532 -0.0490487 48.2272 -3.14612 9.96602 0 0.00522699
448 15 0.001 -0.0347516 0.000317767 -0.051325 3.77105 3.75557 -11.4878 0 0.0124425
449 15 0.001 -0.0338454 -0.000338173 -0.0485712 -6.36687 -4.30483 6.19541 0 0.0140539
450 15 0.001 -0.0329692 0.000184972 -0.0511226 -40.9995 10.2113 -6.31625 0 0.00726072
451 15 0.001 -0.0319406 0.000125677 -0.0497573 -5.28944 -8.37549 -31.5025 0 0.00114267
223 14 0.001 -0.029846 0.000524304 -0.0492183 11.6068 5.1154 -19.7712 0 0.00513421
452 15 0.001 -0.0308461 -0.000210723 -0.0495185 -4.51875 4.93711 26.3502 0 0.00268519
3 3 0.001 -0.0304925 -5.09768e-05 -0.0516084 -7.85489 -8.06766 32.059 0 0.009406
683 18 0.001 -0.029154 -9.94085e-06 -0.0501612 0.624887 29.0877 -52.8348 0 0.00200108
684 18 0.001 -0.0280437 0.00010916 -0.0500728 -28.4606 -43.7584 122.737 0 4.36919e-05
685 18 0.001 -0.0271176 -4.28636e-05 -0.0498021 -12.7667 30.2966 -147.547 0 3.72676e-06
686 18 0.001 -0.026248 -2.10832e-05 -0.0503028 25.6401 -17.6737 87.6496 0 0.000176572
687 18 0.001 -0.0252742 -5.12376e-05 -0.0494865 35.0908 3.94037 -6.58916 0 0.000700713
688 18 0.001 -0.0242975 8.9888e-05 -0.0506048 12.9818 8.23514 -34.9204 0 0.00121232
689 18 0.001 -0.0233022 -7.19557e-05 -0.0494089 -6.76497 -9.05138 40.2779 0 0.00119231
690 18 0.001 -0.0223347 4.75079e-05 -0.0505245 -27.2838 8.75986 -14.7398 0 0.00072494
691 18 0.001 -0.0214029 -1.18299e-05 -0.0496103 -24.8237 -64.6707 -47.9479 0 0.000229027
692 18 0.001 -0.0204716 -4.9505e-05 -0.0500842 21.1677 123.933 70.6316 0 1.22866e-05
693 18 0.001 -0.0195557 0.000130759 -0.0504082 24.6729 -66.3009 -37.9402 0 0.000513249
694 18 0.001 -0.0186819 -0.000183207 -0.0492505 -6.38308 3.47681 17.2376 0 0.00135405
695 18 0.001 -0.0176879 0.000117628 -0.0505046 -9.29648 1.60959 -23.5178 0 0.000905154
696 18 0.001 -0.0165677 5.63708e-05 -0.0502426 2.7785 -2.29483 17.0456 0 0.000683653
697 18 0.001 -0.0156328 -0.000221251 -0.0490564 49.2248 -3.11037 9.7528 0 0.00511076
698 18 0.001 -0.0147516 0.000317182 -0.0513161 4.46158 4.00932 -12.2287 0 0.012167
699 18 0.001 -0.0138513 -0.000338425 -0.0485855 -7.62848 -4.71237 7.16593 0 0.013598
700 18 0.001 -0.0129691 0.000184443 -0.0510924 -43.5992 11.8275 -5.23091 0 0.00686309
701 18 0.001 -0.0119328 0.000129099 -0.0497891 -0.867938 -11.7721 -35.2536 0 0.00102082
702 18 0.001 -0.0108458 -0.000212598 -0.0495084 -5.84723 7.07558 28.4012 0 0.00273994
5 5 0.001 -0.0105029 -4.64537e-05 -0.0516111 -7.7902 -8.25634 32.198 0 0.00949583
473 17 0.001 -0.00984806 0.000524072 -0.0492201 11.4851 5.0715 -19.7264 0 0.0051463
933 21 0.001 -0.00915923 -1.18804e-05 -0.0501592 0.42988 29.4024 -52.7961 0 0.00202937
934 21 0.001 -0.00804617 0.000109912 -0.0500734 -27.9795 -44.4308 121.944 0 4.55446e-05
935 21 0.001 -0.00711173 -4.43951e-05 -0.0498017 -12.9417 31.0571 -145.762 0 3.7488e-06
936 21 0.001 -0.00624582 -1.71066e-05 -0.0503052 26.4514 -17.8963 85.2785 0 0.000178794
937 21 0.001 -0.00527406 -5.47817e-05 -0.0494836 34.9466 3.78579 -4.71536 0 0.000711772
938 21 0.001 -0.0042975 9.18363e-05 -0.0506069 12.8741 8.11976 -35.9489 0 0.00122977
939 21 0.001 -0.00330187 -7.3078e-05 -0.0494068 -5.99663 -7.74877 41.8764 0 0.00121139
940 21 0.001 -0.00233619 4.86728e-05 -0.0505305 -26.6342 2.5914 -18.1918 0 0.000753546
941 21 0.001 -0.00140228 -2.384e-05 -0.0495998 -38.5948 3.90495 -57.2239 0 0.000279699
942 21 0.001 -0.000469633 3.83088e-06 -0.0502214 0.44655 -7.36235 166.835 0 4.48814e-05
943 21 0.001 0.000474803 2.33836e-06 -0.0499172 24.8996 3.88677 -206.415 0 3.19684e-06
944 21 0.001 0.0014275 -1.11358e-06 -0.0500224 8.61536 0.832171 147.701 0 3.35811e-06
945 21 0.001 0.00238204 1.6168e-07 -0.0499875 0.80978 -1.58639 -83.8403 0 3.82611e-06
946 21 0.001 0.00333385 -1.35419e-07 -0.0500198 -0.657012 0.831457 64.4415 0 3.91068e-06
947 21 0.001 0.00428661 1.94499e-07 -0.0499691 -1.40797 -0.527171 -73.9019 0 3.90517e-06
948 21 0.001 0.00523627 -2.19919e-07 -0.0500415 -1.30793 0.472465 88.8426 0 3.63793e-06
949 21 0.001 0.00618976 1.96286e-07 -0.0499518 -0.433945 -0.384021 -96.8693 0 3.18863e-06
950 21 0.001 0.00714327 -1.24087e-07 -0.0500474 0.976216 0.233024 92.8031 0 3.32106e-06
951 21 0.001 0.00809525 3.80056e-08 -0.0499616 1.97185 -0.0693592 -74.3597 0 3.58611e-06
7 7 0.001 0.01 0 -0.05 -18.2958 -4.8531 -6.06759 0 6.7091e-06
723 20 0.001 0.0100849 0.000440749 -0.0491027 29.0397 11.3053 -11.0586 0 0.000297769
952 21 0.001 0.00904795 8.54411e-09 -0.0500221 1.6699 -0.0215142 42.0099 0 3.87433e-06
1183 24 0.001 0.0109522 8.14332e-09 -0.0499999 -0.00121796 -0.0179345 -1.8149 0 4.06449e-06
1184 24 0.001 0.0119047 -1.37097e-08 -0.0500028 -0.00567547 0.0220734 3.02976 0 3.96222e-06
1185 24 0.001 0.012858 2.53576e-08 -0.0499951 -0.0534263 -0.0355397 -7.37816 0 3.97614e-06
1186 24 0.001 0.0138102 -2.17853e-08 -0.050006 -0.0546325 0.0392788 12.6797 0 4.21972e-06
1187 24 0.001 0.0147608 5.5164e-09 -0.0499926 0.0154405 -0.0193227 -14.7972 0 4.07699e-06
1188 24 0.001 0.0157147 3.77742e-09 -0.0500071 0.0169252 -0.00494983 14.1527 0 3.8984e-06
1189 24 0.001 0.0166672 -7.82288e-09 -0.0499949 0.0244989 0.0203224 -11.953 0 4.18279e-06
1190 24 0.001 0.0176179 9.18504e-09 -0.0500033 0.0456053 -0.0219419 8.97655 0 4.13185e-06
1191 24 0.001 0.0185712 -4.84237e-09 -0.049998 0.0156089 0.00917788 -6.57558 0 3.85531e-06
1192 24 0.001 0.019525 -3.73143e-09 -0.0500013 -0.0155384 0.0199564 6.34357 0 3.96091e-06
1193 24 0.001 0.020477 1.32277e-08 -0.0499983 -0.0582289 -0.0710282 -9.82798 0 4.4516e-06
1194 24 0.001 0.0214256 -3.07138e-08 -0.0500045 -0.0869758 0.15019 18.3123 0 4.10857e-06
1195 24 0.001 0.0223817 7.19066e-08 -0.0499894 -0.501486 -0.259439 -32.5493 0 3.77252e-06
1196 24 0.001 0.0233333 -1.36416e-07 -0.0500198 -0.968839 0.378925 51.5129 0 3.89671e-06
1197 24 0.001 0.0242866 1.96238e-07 -0.0499691 -1.4794 -0.465191 -71.9088 0 3.69338e-06
1198 24 0.001 0.0252382 -2.22878e-07 -0.0500416 -1.39806 0.474997 88.886 0 3.63106e-06
1199 24 0.001 0.0261894 1.99869e-07 -0.0499517 -0.393912 -0.391245 -97.1723 0 3.34234e-06
1200 24 0.001 0.0271431 -1.2727e-07 -0.0500475 0.979277 0.239259 93.0018 0 3.31951e-06
1201 24 0.001 0.0280949 4.05397e-08 -0.0499616 1.98762 -0.0742155 -74.492 0 3.56605e-06
9 9 0.001 0.03 0 -0.05 -18.2952 -4.85386 -6.0925 0 6.71519e-06
973 23 0.001 0.0300849 0.000440749 -0.0491027 29.0397 11.3053 -11.0586 0 0.000297769
1202 24 0.001 0.029048 7.11811e-09 -0.0500221 1.67005 -0.0188532 42.0611 0 3.84824e-06
1433 27 0.001 0.0309522 8.05043e-09 -0.0499999 0.000656465 -0.0178253 -1.79374 0 4.05098e-06
1434 27 0.001 0.0319048 -1.36402e-08 -0.0500027 -0.0150214 0.0218657 2.98304 0 4.03514e-06
1435 27 0.001 0.0328571 2.51666e-08 -0.0499952 -0.0443612 -0.0351474 -7.25728 0 4.07286e-06
1436 27 0.001 0.0338093 -2.15774e-08 -0.0500059 -0.0367285 0.0389316 12.4648 0 4.04775e-06
1437 27 0.001 0.0347618 5.5561e-09 -0.0499928 -0.00289095 -0.0395753 -14.5494 0 3.92498e-06
1438 27 0.001 0.0357154 3.53828e-09 -0.050007 0.0233009 0.45236 12.9483 0 4.01154e-06
1439 27 0.001 0.036667 -7.52517e-09 -0.0499949 0.186539 -7.84274 8.55466 0 4.21508e-06
1440 27 0.001 0.0376182 -4.93212e-07 -0.0500031 -2.06082 27.5164 -82.0926 0 4.0091e-06
1441 27 0.001 0.0385719 8.48475e-06 -0.0500281 -20.7212 -45.5048 173.13 0 2.95505e-06
1442 27 0.001 0.0395218 -4.08313e-05 -0.049834 -1.69134 33.6838 -142.076 0 4.88991e-05
1443 27 0.001 0.0404517 0.000105729 -0.050457 60.5013 -3.79425 16.7787 0 0.000610417
1444 27 0.001 0.0413306 -0.000163317 -0.0492606 -4.46494 -7.44758 34.7391 0 0.0015501
1445 27 0.001 0.0422853 0.000130117 -0.0506145 -2.15176 14.1586 -61.4673 0 0.00115099
1446 27 0.001 0.0433884 5.06e-06 -0.0500142 -52.1525 -19.5968 79.7081 0 0.000293409
1447 27 0.001 0.0443744 -0.000151247 -0.0492947 74.0931 4.7637 -18.3752 0 0.00251385
1448 27 0.001 0.0452702 0.000241709 -0.0511243 19.9804 6.9914 -26.5838 0 0.00747114
1449 27 0.001 0.0461548 -0.000257679 -0.0487508 -15.8005 -7.91362 21.5748 0 0.00899984
1450 27 0.001 0.0470366 0.000119241 -0.0509334 -56.125 22.4541 -3.6072 0 0.0043881
1451 27 0.001 0.0480785 0.000135282 -0.0499027 14.9592 -34.3967 -46.569 0 0.000592292
1452 27 0.001 0.0491649 -0.000176979 -0.0494514 -10.4211 20.5029 27.5208 0 0.00615405
11 11 0.001 0.0494584 5.3555e-05 -0.0521511 -7.67421 -3.18913 30.8571 0 0.0144968
1223 26 0.001 0.050135 0.000510559 -0.0492154 10.2622 4.76732 -22.4039 0 0.00877004
14 13 0.001 -0.0500485 0.00183033 -0.0488665 -15.0858 8.06942 23.2517 0 0.00116443
224 14 0.001 -0.0301272 0.00182543 -0.0489313 -23.1216 1.80391 35.2616 0 0.000830488
474 17 0.001 -0.0101232 0.00182595 -0.0489285 -23.0684 1.97778 35.0702 0 0.000844664
724 20 0.001 0.00979362 0.0017569 -0.0489135 -27.518 5.15869 36.2342 0 0.000676306
974 23 0.001 0.0297936 0.0017569 -0.0489135 -27.518 5.15869 36.2342 0 0.000676306
1224 26 0.001 0.0498865 0.00182382 -0.0489094 -24.2454 1.83834 35.0548 0 0.000907409
17 13 0.001 -0.0525404 0.00352059 -0.0472939 -0.794121 -8.71158 -14.8346 0 0.00136254
15 13 0.001 -0.0514714 0.00217046 -0.0495765 -0.487443 -11.9786 -10.673 0 0.00296224
16 13 0.001 -0.0512153 0.00275495 -0.047667 12.7646 4.92421 -5.31506 0 0.00283652
226 14 0.001 -0.0312088 0.00276712 -0.047664 11.4917 5.96147 -5.03776 0 0.00272146
227 14 0.001 -0.0325462 0.00351682 -0.0472967 -0.725309 -9.28299 -15.3546 0 0.00136106
225 14 0.001 -0.0314444 0.00217911 -0.0495442 3.9328 -7.94123 -19.7317 0 0.0025417
477 17 0.001 -0.012546 0.00351761 -0.0472974 -0.751564 -9.35893 -15.2086 0 0.00136196
475 17 0.001 -0.011446 0.00217882 -0.0495458 3.81939 -8.04468 -19.5799 0 0.00256262
476 17 0.001 -0.0112088 0.00276574 -0.0476635 11.6295 5.95369 -5.09007 0 0.00273017
727 20 0.001 0.00742154 0.00375108 -0.0476521 46.5932 -24.6799 93.8695 0 0.00183578
725 20 0.001 0.00869104 0.00231445 -0.0496014 -9.90341 -10.9704 -21.2494 0 0.00263047
726 20 0.001 0.00868568 0.00253907 -0.0475706 20.7491 0.998348 -20.2755 0 0.00344373
976 23 0.001 0.0286857 0.00253907 -0.0475706 20.7491 0.998348 -20.2755 0 0.00344373
977 23 0.001 0.0274215 0.00375108 -0.0476521 46.5932 -24.6799 93.8695 0 0.00183578
975 23 0.001 0.028691 0.00231445 -0.0496014 -9.90341 -10.9704 -21.2494 0 0.00263047
1227 26 0.001 0.0474547 0.00350998 -0.0472884 -0.576263 -8.22901 -17.2966 0 0.00136784
1225 26 0.001 0.0485528 0.00217626 -0.0495592 5.10306 -7.17486 -20.3031 0 0.00265955
1226 26 0.001 0.0487926 0.0027725 -0.0476675 11.6645 4.92893 -4.07407 0 0.00277093
19 13 0.001 -0.0549648 0.00243407 -0.0470689 -21.076 -5.30111 11.1377 0 0.00852565
20 13 0.001 -0.054922 0.00209 -0.0440699 -10.4307 -25.403 -17.0158 0 0.0272778
18 13 0.001 -0.0540318 0.00325589 -0.0476203 6.04102 -3.5811 13.6549 0 0.00094501
230 14 0.001 -0.0349229 0.00208942 -0.0440705 -10.5491 -25.547 -16.9834 0 0.0272182
228 14 0.001 -0.034035 0.00325385 -0.0476261 5.60984 -3.37491 13.805 0 0.000937826
229 14 0.001 -0.0349621 0.00243573 -0.0470633 -20.6821 -5.1649 11.5136 0 0.00847461
480 17 0.001 -0.0149228 0.00208946 -0.0440705 -10.5449 -25.5272 -16.9847 0 0.0272228
478 17 0.001 -0.0140348 0.00325363 -0.0476254 5.64691 -3.3265 13.704 0 0.000937101
479 17 0.001 -0.0149624 0.00243574 -0.0470637 -20.7053 -5.18078 11.4947 0 0.00847799
729 20 0.001 0.00485841 0.00253226 -0.0473233 -12.5456 -54.025 71.017 0 0.0112023
730 20 0.001 0.00514243 0.00210997 -0.0440409 -7.92623 -14.6111 -19.6001 0 0.0304823
728 20 0.001 0.00615887 0.00301452 -0.047152 -48.672 54.6719 -135.313 0 0.000994358
980 23 0.001 0.0251424 0.00210997 -0.0440409 -7.92623 -14.6111 -19.6001 0 0.0304823
978 23 0.001 0.0261589 0.00301452 -0.047152 -48.672 54.6719 -135.313 0 0.000994358
979 23 0.001 0.0248584 0.00253226 -0.0473233 -12.5456 -54.025 71.017 0 0.0112023
1230 26 0.001 0.0450758 0.00208895 -0.0440711 -10.5689 -25.8278 -16.9672 0 0.0271558
1228 26 0.001 0.045962 0.00325954 -0.0476363 5.16824 -3.81123 14.4574 0 0.000959194
1229 26 0.001 0.0450427 0.00243413 -0.0470579 -20.325 -4.99199 11.8031 0 0.00843347
23 13 0.001 -0.0556163 -5.55738e-05 -0.0437907 8.48318 -12.6911 10.058 0 0.00434134
233 14 0.001 -0.0356162 -5.56242e-05 -0.0437909 8.48053 -12.7029 10.0417 0 0.00434033
483 17 0.001 -0.0156162 -5.56212e-05 -0.0437908 8.48081 -12.7021 10.0428 0 0.00434039
733 20 0.001 0.00438261 -5.33384e-05 -0.0437829 8.69444 -12.1438 10.7573 0 0.00438707
983 23 0.001 0.0243826 -5.33384e-05 -0.0437829 8.69444 -12.1438 10.7573 0 0.00438707
1233 26 0.001 0.0443838 -5.56623e-05 -0.043791 8.47645 -12.7129 10.0288 0 0.00433955
21 13 0.001 -0.0563708 0.000677441 -0.0476177 15.9958 13.2045 20.9196 0 0.024601
22 13 0.001 -0.0559123 0.00103225 -0.0450277 11.1172 15.5747 -19.3074 0 0.00651846
231 14 0.001 -0.0363711 0.000677231 -0.0476177 15.9414 13.1296 20.9625 0 0.0245921
232 14 0.001 -0.0359121 0.00103246 -0.0450275 11.1374 15.625 -19.3129 0 0.00652028
481 17 0.001 -0.0163711 0.000677245 -0.0476177 15.9478 13.1339 20.9589 0 0.0245929
482 17 0.001 -0.0159121 0.00103245 -0.0450276 11.1354 15.6219 -19.3124 0 0.00652018
731 20 0.001 0.00364547 0.000686939 -0.0476195 17.9762 13.1945 20.3012 0 0.0250981
732 20 0.001 0.00408069 0.0010226 -0.045037 10.2356 14.0343 -19.1723 0 0.00644497
981 23 0.001 0.0236455 0.000686939 -0.0476195 17.9762 13.1945 20.3012 0 0.0250981
982 23 0.001 0.0240807 0.0010226 -0.045037 10.2356 14.0343 -19.1723 0 0.00644497
1231 26 0.001 0.0436285 0.000677049 -0.0476176 15.8479 13.0899 21.0084 0 0.024581
1232 26 0.001 0.044088 0.00103263 -0.0450274 11.1649 15.6582 -19.318 0 0.00652143
25 13 0.001 -0.0553092 -0.00205306 -0.0438595 47.544 10.903 -24.1619 0 0.000704078
26 13 0.001 -0.0545798 -0.00228802 -0.0427528 -22.241 12.95 3.48593 0 0.000577247
235 14 0.001 -0.0353092 -0.00205305 -0.0438595 47.5395 10.8825 -24.1649 0 0.000704082
236 14 0.001 -0.0345798 -0.00228802 -0.0427528 -22.2371 12.9612 3.486 0 0.000577226
485 17 0.001 -0.0153092 -0.00205305 -0.0438595 47.5398 10.8837 -24.1647 0 0.000704082
486 17 0.001 -0.0145798 -0.00228802 -0.0427528 -22.2373 12.9606 3.486 0 0.000577228
735 20 0.001 0.00469085 -0.00205358 -0.0438604 47.7216 11.7559 -24.0354 0 0.000704087
736 20 0.001 0.00542007 -0.00228789 -0.0427527 -22.4066 12.4863 3.48563 0 0.000578153
985 23 0.001 0.0246909 -0.00205358 -0.0438604 47.7216 11.7559 -24.0354 0 0.000704087
986 23 0.001 0.0254201 -0.00228789 -0.0427527 -22.4066 12.4863 3.48563 0 0.000578153
1235 26 0.001 0.0446908 -0.00205304 -0.0438595 47.5365 10.8679 -24.1671 0 0.000704082
1236 26 0.001 0.0454202 -0.00228802 -0.0427529 -22.2342 12.9692 3.48598 0 0.000577211
24 13 0.001 -0.0558143 -0.00184652 -0.0451946 -30.7912 3.08922 -0.0315157 0 0.00380974
234 14 0.001 -0.0358144 -0.00184655 -0.0451946 -30.7903 3.09319 -0.0241705 0 0.00380913
484 17 0.001 -0.0158144 -0.00184655 -0.0451946 -30.7903 3.09299 -0.0246262 0 0.00380917
734 20 0.001 0.00418698 -0.00184517 -0.0451951 -30.8137 2.94289 -0.356428 0 0.0038379
984 23 0.001 0.024187 -0.00184517 -0.0451951 -30.8137 2.94289 -0.356428 0 0.0038379
1234 26 0.001 0.0441856 -0.00184658 -0.0451946 -30.7903 3.09564 -0.0183765 0 0.00380865
27 13 0.001 -0.0535557 -0.00304541 -0.0432503 -53.8467 5.74448 47.1 0 0.000368129
28 13 0.001 -0.052905 -0.00298794 -0.0423006 89.7764 -45.0577 -125.802 0 6.78849e-05
29 13 0.001 -0.0519613 -0.00281828 -0.0419625 -63.741 38.1745 125.59 0 7.90241e-06
30 13 0.001 -0.0511931 -0.00239098 -0.0414661 28.1922 -0.869208 -43.8133 0 6.56807e-06
237 14 0.001 -0.0335557 -0.00304541 -0.0432503 -53.8467 5.74307 47.0997 0 0.000368132
238 14 0.001 -0.032905 -0.00298794 -0.0423006 89.7758 -45.0575 -125.802 0 6.78872e-05
239 14 0.001 -0.0319613 -0.00281828 -0.0419625 -63.7411 38.1747 125.591 0 7.90246e-06
240 14 0.001 -0.0311931 -0.00239098 -0.0414661 28.1925 -0.869171 -43.8138 0 6.56807e-06
487 17 0.001 -0.0135557 -0.00304541 -0.0432503 -53.8467 5.74315 47.0998 0 0.000368132
488 17 0.001 -0.012905 -0.00298794 -0.0423006 89.7759 -45.0575 -125.802 0 6.78871e-05
489 17 0.001 -0.0119613 -0.00281828 -0.0419625 -63.7411 38.1747 125.591 0 7.90246e-06
490 17 0.001 -0.0111931 -0.00239098 -0.0414661 28.1925 -0.869174 -43.8138 0 6.56807e-06
737 20 0.001 0.00644417 -0.00304537 -0.0432501 -53.8484 5.80002 47.109 0 0.000368048
738 20 0.001 0.00709504 -0.00298794 -0.0423006 89.8019 -45.0637 -125.825 0 6.77872e-05
739 20 0.001 0.00803867 -0.00281828 -0.0419625 -63.7341 38.1667 125.565 0 7.90015e-06
740 20 0.001 0.00880689 -0.00239098 -0.0414661 28.1802 -0.870811 -43.7929 0 6.568e-06
987 23 0.001 0.0264442 -0.00304537 -0.0432501 -53.8484 5.80002 47.109 0 0.000368048
988 23 0.001 0.027095 -0.00298794 -0.0423006 89.8019 -45.0637 -125.825 0 6.77872e-05
989 23 0.001 0.0280387 -0.00281828 -0.0419625 -63.7341 38.1667 125.565 0 7.90015e-06
990 23 0.001 0.0288069 -0.00239098 -0.0414661 28.1802 -0.870811 -43.7929 0 6.568e-06
1237 26 0.001 0.0464443 -0.00304541 -0.0432503 -53.8467 5.74212 47.0996 0 0.000368133
1238 26 0.001 0.047095 -0.00298794 -0.0423006 89.7754 -45.0574 -125.801 0 6.78889e-05
1239 26 0.001 0.0480387 -0.00281828 -0.0419625 -63.7412 38.1748 125.591 0 7.9025e-06
1240 26 0.001 0.0488069 -0.00239098 -0.0414661 28.1927 -0.869144 -43.8141 0 6.56807e-06
31 13 0.001 -0.0505695 -0.00175464 -0.0409956 -3.55752 -3.66761 9.57061 0 6.33207e-06
241 14 0.001 -0.0305695 -0.00175464 -0.0409956 -3.55754 -3.66765 9.57068 0 6.33207e-06
491 17 0.001 -0.0105695 -0.00175464 -0.0409956 -3.55754 -3.66765 9.57068 0 6.33207e-06
741 20 0.001 0.00943054 -0.00175464 -0.0409956 -3.55684 -3.66584 9.56732 0 6.33207e-06
991 23 0.001 0.0294305 -0.00175464 -0.0409956 -3.55684 -3.66584 9.56732 0 6.33207e-06
1241 26 0.001 0.0494305 -0.00175464 -0.0409956 -3.55755 -3.66768 9.57074 0 6.33207e-06
32 13 0.001 -0.0501618 -0.000964447 -0.0405213 0.545869 0.5393 -1.3643 0 6.35288e-06
33 13 0.001 -0.0500037 -8.92498e-05 -0.0400474 -0.0656601 -0.0889438 0.179792 0 6.34992e-06
242 14 0.001 -0.0301618 -0.000964447 -0.0405213 0.54587 0.539301 -1.3643 0 6.35288e-06
243 14 0.001 -0.0300037 -8.92498e-05 -0.0400474 -0.0656601 -0.0889439 0.179792 0 6.34992e-06
492 17 0.001 -0.0101618 -0.000964447 -0.0405213 0.54587 0.539301 -1.3643 0 6.35288e-06
493 17 0.001 -0.0100037 -8.92498e-05 -0.0400474 -0.0656601 -0.0889439 0.179792 0 6.34992e-06
742 20 0.001 0.00983823 -0.000964447 -0.0405213 0.545817 0.539266 -1.3642 0 6.35288e-06
743 20 0.001 0.0099963 -8.92498e-05 -0.0400474 -0.0656582 -0.0889408 0.179786 0 6.34992e-06
992 23 0.001 0.0298382 -0.000964447 -0.0405213 0.545817 0.539266 -1.3642 0 6.35288e-06
993 23 0.001 0.0299963 -8.92498e-05 -0.0400474 -0.0656582 -0.0889406 0.179785 0 6.34992e-06
1242 26 0.001 0.0498382 -0.000964447 -0.0405213 0.545871 0.539302 -1.3643 0 6.35288e-06
1243 26 0.001 0.0499963 -8.92498e-05 -0.0400474 -0.0656602 -0.0889439 0.179792 0 6.34992e-06
34 13 0.001 -0.0501094 0.000793791 -0.0395735 -0.0163338 0.00445764 -0.0171925 0 6.35018e-06
244 14 0.001 -0.0301094 0.000793791 -0.0395735 -0.0163339 0.00445771 -0.0171927 0 6.35018e-06
494 17 0.001 -0.0101094 0.000793791 -0.0395735 -0.0163339 0.00445783 -0.0171929 0 6.35018e-06
744 20 0.001 0.00989062 0.000793791 -0.0395735 -0.0163339 0.00445781 -0.0171929 0 6.35018e-06
994 23 0.001 0.0298906 0.000793791 -0.0395735 -0.0163339 0.0044576 -0.0171925 0 6.35018e-06
1244 26 0.001 0.0498906 0.000793791 -0.0395735 -0.0163338 0.00445764 -0.0171925 0 6.35018e-06
36 13 0.001 -0.0510523 0.00227869 -0.0386256 -0.0124451 -0.0145193 -5.39322e-05 0 6.35017e-06
35 13 0.001 -0.0504695 0.00160696 -0.0390995 -0.0161208 -0.0109528 0.00121157 0 6.35017e-06
245 14 0.001 -0.0304695 0.00160696 -0.0390995 -0.0161207 -0.0109529 0.00121176 0 6.35017e-06
246 14 0.001 -0.0310523 0.00227869 -0.0386256 -0.0124452 -0.0145192 -5.4173e-05 0 6.35017e-06
496 17 0.001 -0.0110523 0.00227869 -0.0386256 -0.0124454 -0.014519 -5.46893e-05 0 6.35017e-06
495 17 0.001 -0.0104695 0.00160696 -0.0390995 -0.0161206 -0.010953 0.00121217 0 6.35017e-06
746 20 0.001 0.00894765 0.00227869 -0.0386256 -0.0124454 -0.014519 -5.46577e-05 0 6.35017e-06
745 20 0.001 0.0095305 0.00160696 -0.0390995 -0.0161206 -0.010953 0.00121214 0 6.35017e-06
995 23 0.001 0.0295305 0.00160696 -0.0390995 -0.0161207 -0.0109528 0.00121172 0 6.35017e-06
996 23 0.001 0.0289477 0.00227869 -0.0386256 -0.0124452 -0.0145192 -5.42564e-05 0 6.35017e-06
1246 26 0.001 0.0489477 0.00227869 -0.0386256 -0.0124451 -0.0145193 -5.39322e-05 0 6.35017e-06
1245 26 0.001 0.0495305 0.00160696 -0.0390995 -0.0161208 -0.0109528 0.00121157 0 6.35017e-06
38 13 0.001 -0.052666 0.00297896 -0.0376777 -0.00213258 -0.0190201 4.28146e-07 0 6.35017e-06
39 13 0.001 -0.0535547 0.00294586 -0.0372038 0.00354146 -0.0188087 -1.36612e-07 0 6.35017e-06
37 13 0.001 -0.0518066 0.00274984 -0.0381517 -0.00761933 -0.0175576 5.45275e-07 0 6.35017e-06
249 14 0.001 -0.0335547 0.00294586 -0.0372038 0.00354163 -0.0188087 1.89878e-07 0 6.35017e-06
247 14 0.001 -0.0318066 0.00274984 -0.0381517 -0.00761919 -0.0175577 8.34042e-07 0 6.35017e-06
248 14 0.001 -0.032666 0.00297896 -0.0376777 -0.00213275 -0.0190201 1.0708e-07 0 6.35017e-06
499 17 0.001 -0.0135547 0.00294586 -0.0372038 0.00354187 -0.0188086 6.4746e-07 0 6.35017e-06
498 17 0.001 -0.012666 0.00297896 -0.0376777 -0.00213303 -0.01902 -4.23808e-07 0 6.35017e-06
497 17 0.001 -0.0118066 0.00274984 -0.0381517 -0.00761892 -0.0175578 1.38952e-06 0 6.35017e-06
748 20 0.001 0.00733404 0.00297896 -0.0376777 -0.002133 -0.01902 -3.77105e-07 0 6.35017e-06
749 20 0.001 0.00644532 0.00294586 -0.0372038 0.00354184 -0.0188086 5.93864e-07 0 6.35017e-06
747 20 0.001 0.00819337 0.00274984 -0.0381517 -0.00761893 -0.0175578 1.35119e-06 0 6.35017e-06
999 23 0.001 0.0264453 0.00294586 -0.0372038 0.0035417 -0.0188087 3.25666e-07 0 6.35017e-06
997 23 0.001 0.0281934 0.00274984 -0.0381517 -0.00761911 -0.0175577 9.88038e-07 0 6.35017e-06
998 23 0.001 0.027334 0.00297896 -0.0376777 -0.00213284 -0.0190201 -6.0996e-08 0 6.35017e-06
1249 26 0.001 0.0464453 0.00294586 -0.0372038 0.00354146 -0.0188087 -1.36612e-07 0 6.35017e-06
1248 26 0.001 0.047334 0.00297896 -0.0376777 -0.00213258 -0.0190201 4.28146e-07 0 6.35017e-06
1247 26 0.001 0.0481934 0.00274984 -0.0381517 -0.00761933 -0.0175576 5.45275e-07 0 6.35017e-06
42 13 0.001 -0.055643 0.0014143 -0.035782 0.0168749 -0.00903039 -7.36479e-07 0 6.35017e-06
252 14 0.001 -0.035643 0.0014143 -0.035782 0.0168749 -0.00903044 -8.75669e-07 0 6.35017e-06
502 17 0.001 -0.015643 0.0014143 -0.035782 0.0168749 -0.00903051 -1.02615e-06 0 6.35017e-06
752 20 0.001 0.00435699 0.0014143 -0.035782 0.0168749 -0.00903049 -9.79913e-07 0 6.35017e-06
1002 23 0.001 0.024357 0.0014143 -0.035782 0.0168749 -0.00903041 -8.15569e-07 0 6.35017e-06
1252 26 0.001 0.044357 0.0014143 -0.035782 0.0168749 -0.00903039 -7.36479e-07 0 6.35017e-06
40 13 0.001 -0.0543946 0.00265347 -0.0367299 0.00890409 -0.0169419 -1.7325e-07 0 6.35017e-06
41 13 0.001 -0.0551117 0.00212752 -0.0362559 0.0134832 -0.0135836 4.72e-07 0 6.35017e-06
251 14 0.001 -0.0351117 0.00212752 -0.0362559 0.0134833 -0.0135835 7.06189e-07 0 6.35017e-06
250 14 0.001 -0.0343946 0.00265347 -0.0367299 0.00890395 -0.016942 -4.71218e-07 0 6.35017e-06
501 17 0.001 -0.0151117 0.00212752 -0.0362559 0.0134834 -0.0135834 9.54735e-07 0 6.35017e-06
500 17 0.001 -0.0143946 0.00265347 -0.0367299 0.00890377 -0.0169421 -8.27691e-07 0 6.35017e-06
750 20 0.001 0.00560541 0.00265347 -0.0367299 0.0089038 -0.0169421 -7.71159e-07 0 6.35017e-06
751 20 0.001 0.00488826 0.00212752 -0.0362559 0.0134833 -0.0135834 9.00634e-07 0 6.35017e-06
1001 23 0.001 0.0248883 0.00212752 -0.0362559 0.0134833 -0.0135835 7.10213e-07 0 6.35017e-06
1000 23 0.001 0.0256054 0.00265347 -0.0367299 0.00890391 -0.016942 -5.45919e-07 0 6.35017e-06
1251 26 0.001 0.0448883 0.00212752 -0.0362559 0.0134832 -0.0135836 4.72e-07 0 6.35017e-06
1250 26 0.001 0.0456054 0.00265347 -0.0367299 0.00890409 -0.0169419 -1.7325e-07 0 6.35017e-06
44 13 0.001 -0.0559814 -0.000311858 -0.0348341 0.0190355 0.00199056 -1.11643e-06 0 6.35017e-06
45 13 0.001 -0.0557587 -0.00117286 -0.0343602 0.0176132 0.00748909 1.22971e-06 0 6.35017e-06
254 14 0.001 -0.0359814 -0.000311858 -0.0348341 0.0190354 0.00199062 -1.00472e-06 0 6.35017e-06
255 14 0.001 -0.0357587 -0.00117286 -0.0343602 0.0176132 0.00748898 9.81973e-07 0 6.35017e-06
504 17 0.001 -0.0159814 -0.000311858 -0.0348341 0.0190354 0.00199061 -1.02309e-06 0 6.35017e-06
505 17 0.001 -0.0157587 -0.00117286 -0.0343602 0.0176132 0.00748897 9.6878e-07 0 6.35017e-06
754 20 0.001 0.00401864 -0.000311858 -0.0348341 0.0190354 0.00199062 -1.00256e-06 0 6.35017e-06
755 20 0.001 0.00424135 -0.00117286 -0.0343602 0.0176132 0.00748897 9.61032e-07 0 6.35017e-06
1004 23 0.001 0.0240186 -0.000311858 -0.0348341 0.0190354 0.00199069 -8.71318e-07 0 6.35017e-06
1005 23 0.001 0.0242413 -0.00117286 -0.0343602 0.0176133 0.00748891 8.42375e-07 0 6.35017e-06
1254 26 0.001 0.0440186 -0.000311858 -0.0348341 0.0190355 0.00199056 -1.11643e-06 0 6.35017e-06
1255 26 0.001 0.0442413 -0.00117286 -0.0343602 0.0176132 0.00748909 1.22971e-06 0 6.35017e-06
43 13 0.001 -0.0559416 0.000576598 -0.0353081 0.0187819 -0.00368096 9.52804e-07 0 6.35017e-06
253 14 0.001 -0.0359416 0.000576598 -0.0353081 0.0187819 -0.00368096 9.73495e-07 0 6.35017e-06
503 17 0.001 -0.0159416 0.000576598 -0.0353081 0.0187819 -0.00368092 1.04601e-06 0 6.35017e-06
753 20 0.001 0.00405835 0.000576598 -0.0353081 0.0187819 -0.00368094 1.01174e-06 0 6.35017e-06
1003 23 0.001 0.0240584 0.000576598 -0.0353081 0.0187819 -0.00368101 8.66219e-07 0 6.35017e-06
1253 26 0.001 0.0440584 0.000576598 -0.0353081 0.0187819 -0.00368096 9.52804e-07 0 6.35017e-06
46 13 0.001 -0.0552931 -0.00193063 -0.0338863 0.0146416 0.0123262 -1.29801e-06 0 6.35017e-06
47 13 0.001 -0.0546258 -0.00251847 -0.0334123 0.0103795 0.0160803 1.32604e-06 0 6.35017e-06
48 13 0.001 -0.0538153 -0.00288463 -0.0329384 0.00520612 0.0184176 -1.31547e-06 0 6.35017e-06
49 13 0.001 -0.0529331 -0.00299688 -0.0324645 -0.00042808 0.0191345 1.26467e-06 0 6.35017e-06
256 14 0.001 -0.0352931 -0.00193063 -0.0338863 0.0146414 0.0123263 -9.21313e-07 0 6.35017e-06
257 14 0.001 -0.0346258 -0.00251847 -0.0334123 0.0103798 0.0160802 8.38482e-07 0 6.35017e-06
258 14 0.001 -0.0338153 -0.00288463 -0.0329384 0.00520582 0.0184176 -7.46201e-07 0 6.35017e-06
259 14 0.001 -0.0329331 -0.00299688 -0.0324645 -0.000427757 0.0191345 6.52641e-07 0 6.35017e-06
506 17 0.001 -0.0152931 -0.00193063 -0.0338863 0.0146414 0.0123263 -8.94858e-07 0 6.35017e-06
507 17 0.001 -0.0146258 -0.00251847 -0.0334123 0.0103798 0.0160802 8.11692e-07 0 6.35017e-06
508 17 0.001 -0.0138153 -0.00288463 -0.0329384 0.00520581 0.0184176 -7.26806e-07 0 6.35017e-06
509 17 0.001 -0.0129331 -0.00299688 -0.0324645 -0.000427753 0.0191345 6.4409e-07 0 6.35017e-06
756 20 0.001 0.00470687 -0.00193063 -0.0338863 0.0146414 0.0123263 -8.96624e-07 0 6.35017e-06
757 20 0.001 0.00537424 -0.00251847 -0.0334123 0.0103798 0.0160802 8.18378e-07 0 6.35017e-06
758 20 0.001 0.00618471 -0.00288463 -0.0329384 0.00520582 0.0184176 -7.3369e-07 0 6.35017e-06
759 20 0.001 0.00706694 -0.00299688 -0.0324645 -0.000427754 0.0191345 6.47312e-07 0 6.35017e-06
1006 23 0.001 0.0247069 -0.00193063 -0.0338863 0.0146414 0.0123264 -7.90969e-07 0 6.35017e-06
1007 23 0.001 0.0253742 -0.00251847 -0.0334123 0.0103798 0.0160801 7.27036e-07 0 6.35017e-06
1008 23 0.001 0.0261847 -0.00288463 -0.0329384 0.00520578 0.0184177 -6.57775e-07 0 6.35017e-06
1009 23 0.001 0.0270669 -0.00299688 -0.0324645 -0.000427723 0.0191345 5.87146e-07 0 6.35017e-06
1256 26 0.001 0.0447069 -0.00193063 -0.0338863 0.0146416 0.0123262 -1.29801e-06 0 6.35017e-06
1257 26 0.001 0.0453742 -0.00251847 -0.0334123 0.0103795 0.0160803 1.32604e-06 0 6.35017e-06
1258 26 0.001 0.0461847 -0.00288463 -0.0329384 0.00520612 0.0184176 -1.31547e-06 0 6.35017e-06
1259 26 0.001 0.0470669 -0.00299688 -0.0324645 -0.00042808 0.0191345 1.26467e-06 0 6.35017e-06
50 13 0.001 -0.0520567 -0.00284535 -0.0319905 -0.00602206 0.0181671 -1.17028e-06 0 6.35017e-06
51 13 0.001 -0.0512634 -0.00244336 -0.0315166 -0.0110882 0.0156001 1.03001e-06 0 6.35017e-06
52 13 0.001 -0.050623 -0.00182631 -0.0310427 -0.0151767 0.011661 -8.45323e-07 0 6.35017e-06
260 14 0.001 -0.0320567 -0.00284535 -0.0319905 -0.00602237 0.018167 -5.61089e-07 0 6.35017e-06
261 14 0.001 -0.0312634 -0.00244336 -0.0315166 -0.011088 0.0156002 4.70729e-07 0 6.35017e-06
262 14 0.001 -0.030623 -0.00182631 -0.0310427 -0.0151768 0.0116608 -3.78261e-07 0 6.35017e-06
510 17 0.001 -0.0120567 -0.00284535 -0.0319905 -0.00602237 0.018167 -5.63804e-07 0 6.35017e-06
511 17 0.001 -0.0112634 -0.00244336 -0.0315166 -0.011088 0.0156002 4.83467e-07 0 6.35017e-06