ITEM: TIMESTEP
5
ITEM: NUMBER OF ATOMS
1472
ITEM: BOX BOUNDS ff ff ff
-6.0000000000000005e-02 6.0000000000000005e-02
-6.0000000000000001e-03 6.0000000000000001e-03
-5.5000000000000000e-02 5.5000000000000000e-02
ITEM: ATOMS id type radius x y z fx fy fz c_bendingE c_stretchingE
1 1 0.001 -0.0500962 -0.000122745 -0.0497848 -24.5703 3.15899 -34.9099 0 3.13711e-05
13 13 0.001 -0.0501882 0.000917989 -0.049689 49.449 -33.7113 60.6301 0 4.07019e-05
433 15 0.001 -0.0490599 1.01226e-05 -0.0500225 -1.10867 -13.8946 28.3022 0 2.09047e-05
434 15 0.001 -0.0481011 -9.92848e-06 -0.0499797 0.568215 22.1034 -44.3469 0 3.07739e-06
435 15 0.001 -0.0471438 2.33511e-06 -0.0500097 0.771307 -9.41297 14.405 0 3.41964e-06
436 15 0.001 -0.0461889 1.5289e-06 -0.0500029 -0.407022 -2.22973 17.8469 0 4.11679e-06
437 15 0.001 -0.0452398 -2.93983e-06 -0.0499786 -0.341256 3.31424 -27.3805 0 4.12526e-06
438 15 0.001 -0.0442859 2.28351e-06 -0.0500227 0.198244 -3.0462 29.9964 0 3.7037e-06
439 15 0.001 -0.0433324 -7.66812e-08 -0.0499907 0.363803 1.78811 -25.0583 0 4.04539e-06
440 15 0.001 -0.0423815 -2.76234e-07 -0.0500015 0.130921 -0.395126 14.508 0 4.06212e-06
441 15 0.001 -0.0414277 0 -0.05 -0.0122142 -0.182659 -5.3063 0 4.01266e-06
442 15 0.001 -0.0404762 0 -0.05 0.191611 0.101027 0.943881 0 4.21457e-06
443 15 0.001 -0.0395247 0 -0.05 -0.181365 -0.658615 2.47286 0 4.0983e-06
444 15 0.001 -0.0385719 0 -0.05 -0.0461721 3.51989 -13.752 0 3.91593e-06
445 15 0.001 -0.0376183 1.16225e-06 -0.0500042 -0.826537 -9.74554 39.898 0 3.92663e-06
446 15 0.001 -0.0366661 -5.89314e-06 -0.0499769 -3.81011 18.8149 -80.0113 0 3.88685e-06
447 15 0.001 -0.0357158 1.37097e-05 -0.0500591 -6.9781 -28.2475 122.295 0 3.09631e-06
448 15 0.001 -0.0347628 -2.01515e-05 -0.0499089 -5.1664 35.3654 -153.824 0 2.27158e-06
449 15 0.001 -0.0338099 2.24601e-05 -0.0500942 0.364259 -37.468 166.917 0 2.09929e-06
450 15 0.001 -0.0328512 -2.09471e-05 -0.0499137 5.19322 27.4809 -150.795 0 2.75537e-06
451 15 0.001 -0.0319081 1.01943e-05 -0.0500689 8.1854 -3.54914 96.9011 0 4.35677e-06
223 14 0.001 -0.0301883 0.000917855 -0.0496877 51.9325 -31.6711 60.8402 0 4.62434e-05
452 15 0.001 -0.0309668 3.1992e-06 -0.0499728 3.403 -11.357 -34.4637 0 4.04049e-06
3 3 0.001 -0.0300074 -0.00013486 -0.04978 -24.6179 6.8721 -29.9733 0 2.27375e-05
683 18 0.001 -0.0290565 1.00308e-05 -0.0500243 -0.512239 -13.7404 30.7237 0 3.29879e-06
684 18 0.001 -0.0281006 -8.11051e-06 -0.0499796 0.700034 22.2984 -49.2894 0 3.2423e-06
685 18 0.001 -0.027143 1.25868e-07 -0.0500095 0.768978 -7.8684 16.8798 0 3.68876e-06
686 18 0.001 -0.0261915 2.67282e-06 -0.0500032 -0.406785 -5.69668 18.7859 0 4.01651e-06
687 18 0.001 -0.0252382 -3.83553e-06 -0.0499765 -0.464719 5.96611 -29.8111 0 3.77334e-06
688 18 0.001 -0.024285 3.02346e-06 -0.0500249 0.237678 -4.38021 33.0081 0 3.89484e-06
689 18 0.001 -0.0233334 -2.6721e-07 -0.0499899 0.47477 2.56583 -27.4669 0 4.04003e-06
690 18 0.001 -0.0223808 -2.85015e-07 -0.0500016 0.132509 -0.729305 15.8906 0 3.96137e-06
691 18 0.001 -0.0214277 0 -0.05 0.0347949 -0.106357 -5.81994 0 4.11617e-06
692 18 0.001 -0.0204767 0 -0.05 0.0203318 0.0970377 1.03311 0 4.08168e-06
693 18 0.001 -0.0195231 0 -0.05 -0.22968 -0.661887 2.4801 0 4.24386e-06
694 18 0.001 -0.0185738 0 -0.05 0.160512 3.50967 -13.6805 0 3.97866e-06
695 18 0.001 -0.0176168 1.16504e-06 -0.0500042 -0.877196 -9.75081 39.8303 0 3.94049e-06
696 18 0.001 -0.0166675 -5.88195e-06 -0.049977 -3.71776 18.8021 -79.758 0 3.96362e-06
697 18 0.001 -0.0157146 1.37125e-05 -0.050059 -7.03663 -28.2392 121.904 0 2.97921e-06
698 18 0.001 -0.0147635 -2.01412e-05 -0.0499091 -5.00848 35.3744 -153.178 0 2.36115e-06
699 18 0.001 -0.0138111 2.23935e-05 -0.0500935 0.401992 -37.5332 165.942 0 2.10599e-06
700 18 0.001 -0.0128549 -2.08421e-05 -0.0499152 5.68157 27.5571 -148.772 0 2.13443e-06
701 18 0.001 -0.0118981 1.03451e-05 -0.0500679 7.36923 -3.66555 95.2702 0 5.85746e-06
702 18 0.001 -0.0109717 2.85471e-06 -0.0499729 3.53362 -11.0912 -34.2993 0 6.17935e-06
5 5 0.001 -0.0100118 -0.000134433 -0.04978 -24.6608 6.76245 -30.013 0 2.21931e-05
473 17 0.001 -0.0101883 0.00091783 -0.0496877 51.821 -31.7643 60.8396 0 4.58861e-05
933 21 0.001 -0.00906264 9.9876e-06 -0.050024 -0.440102 -13.5406 30.34 0 2.84916e-06
934 21 0.001 -0.00810099 -7.98932e-06 -0.0499799 0.687013 22.0218 -48.8302 0 2.57519e-06
935 21 0.001 -0.00713718 -3.35962e-08 -0.0500093 0.661791 -7.66792 16.6782 0 3.74305e-06
936 21 0.001 -0.00618953 2.76452e-06 -0.0500033 -0.396282 -5.85858 18.921 0 4.56814e-06
937 21 0.001 -0.00523814 -3.85969e-06 -0.0499764 -0.458817 6.08864 -30.0215 0 4.00605e-06
938 21 0.001 -0.00428584 3.03691e-06 -0.0500249 0.262612 -4.4321 33.1546 0 3.85371e-06
939 21 0.001 -0.00333295 -2.67771e-07 -0.0499899 0.452917 2.58254 -27.5452 0 4.07263e-06
940 21 0.001 -0.00238193 -2.85897e-07 -0.0500016 0.155638 -0.734084 15.9301 0 4.00202e-06
941 21 0.001 -0.00142753 0 -0.05 -0.007595 -0.106657 -5.81895 0 3.88256e-06
942 21 0.001 -0.000475117 0 -0.05 -0.0391426 0.097265 1.03358 0 4.27411e-06
943 21 0.001 0.000474887 0 -0.05 0.0407193 -9.47531e-05 0.00569202 0 4.25654e-06
944 21 0.001 0.0014275 0 -0.05 0.0138453 0.00017071 0.011903 0 3.86788e-06
945 21 0.001 0.00238186 -3.61156e-10 -0.05 -0.0196168 -9.93829e-05 -0.12393 0 3.93277e-06
946 21 0.001 0.00333374 8.41555e-10 -0.0500001 0.00794534 0.000836715 0.372254 0 4.05519e-06
947 21 0.001 0.00428664 -3.69323e-10 -0.0499997 -0.0215733 -0.00357797 -0.758956 0 4.21253e-06
948 21 0.001 0.00523684 -2.95984e-09 -0.0500005 0.0232342 0.00723853 1.2292 0 4.18427e-06
949 21 0.001 0.00619006 6.50667e-09 -0.0499992 -0.00127331 -0.00857506 -1.66228 0 3.91448e-06
950 21 0.001 0.00714322 -3.84496e-09 -0.050001 -0.0110314 0.00572965 1.87772 0 4.04133e-06
951 21 0.001 0.008095 -1.28282e-09 -0.049999 0.008455 -0.000647123 -1.68064 0 4.07447e-06
7 7 0.001 0.01 0 -0.05 -25.3751 9.88023 -41.1433 0 5.4657e-06
723 20 0.001 0.00981944 0.000913788 -0.0496702 54.9924 -44.1312 75.772 0 2.1176e-05
952 21 0.001 0.00904777 2.08762e-09 -0.0500007 -0.00322639 -0.00197714 1.0063 0 4.03481e-06
1183 24 0.001 0.0109523 1.60102e-09 -0.05 0.000128204 -0.00115051 -0.209637 0 4.07369e-06
1184 24 0.001 0.0119046 2.05455e-10 -0.0500005 0.00778535 0.00112723 0.202957 0 3.98582e-06
1185 24 0.001 0.0128578 1.70134e-09 -0.0499997 -0.00743717 -0.00162315 -0.273876 0 3.98157e-06
1186 24 0.001 0.0138102 -2.35548e-09 -0.0500002 -0.013093 0.00181315 0.412202 0 4.21552e-06
1187 24 0.001 0.0147608 -1.95925e-12 -0.0499997 0.0253011 -0.000631506 -0.349423 0 4.08358e-06
1188 24 0.001 0.0157147 9.1198e-10 -0.0500001 -0.0126462 -0.00071093 0.190854 0 3.93701e-06
1189 24 0.001 0.016667 -7.39085e-10 -0.05 -0.00869741 0.000914837 -0.101909 0 4.17535e-06
1190 24 0.001 0.0176182 2.52206e-10 -0.05 0.0203101 -0.000126436 0.0721202 0 4.04892e-06
1191 24 0.001 0.0185719 0 -0.05 -0.0128487 -0.000250996 -0.0471287 0 3.9625e-06
1192 24 0.001 0.019524 0 -0.05 0.00514014 8.0198e-05 0.0138673 0 4.04552e-06
1193 24 0.001 0.0204768 0 -0.05 -0.00497636 -9.44882e-05 0.00563438 0 4.28549e-06
1194 24 0.001 0.0214264 0 -0.05 0.0291896 0.000169731 0.0121156 0 4.03733e-06
1195 24 0.001 0.0223822 -3.6177e-10 -0.05 -0.0409358 -0.00010024 -0.124429 0 3.93278e-06
1196 24 0.001 0.0233328 8.41359e-10 -0.0500001 0.0238957 0.000848435 0.372958 0 4.10244e-06
1197 24 0.001 0.0242865 -3.65194e-10 -0.0499997 -0.0151461 -0.00361369 -0.759403 0 3.99477e-06
1198 24 0.001 0.0252383 -2.99088e-09 -0.0500005 -0.00529579 0.00732475 1.23186 0 4.2126e-06
1199 24 0.001 0.0261896 6.57154e-09 -0.0499992 0.0191389 -0.00869806 -1.66558 0 4.04494e-06
1200 24 0.001 0.0271433 -3.91452e-09 -0.050001 -0.0189371 0.00585603 1.87985 0 4.03171e-06
1201 24 0.001 0.0280946 -1.22228e-09 -0.049999 0.01552 -0.000756803 -1.68228 0 4.07302e-06
9 9 0.001 0.03 0 -0.05 -25.3749 9.88022 -41.1437 0 5.48458e-06
973 23 0.001 0.0298194 0.000913788 -0.0496702 54.9924 -44.1312 75.772 0 2.1176e-05
1202 24 0.001 0.0290479 2.04415e-09 -0.0500008 -0.00784548 -0.00191512 1.00681 0 4.00475e-06
1433 27 0.001 0.0309522 1.60197e-09 -0.05 0.00354031 -0.00115533 -0.20924 0 4.05259e-06
1434 27 0.001 0.0319048 1.90039e-10 -0.0500005 -0.000530926 0.00112781 0.202016 0 4.01811e-06
1435 27 0.001 0.0328574 1.69869e-09 -0.0499997 -0.00692189 -0.00161622 -0.27166 0 4.10217e-06
1436 27 0.001 0.033809 -2.34487e-09 -0.0500002 0.00904279 0.00180481 0.408082 0 4.07844e-06
1437 27 0.001 0.0347619 2.15142e-12 -0.0499997 0.00607389 -0.00063139 -0.344854 0 3.91141e-06
1438 27 0.001 0.0357155 9.05777e-10 -0.0500001 -0.0215115 -0.00069977 0.187563 0 4.08957e-06
1439 27 0.001 0.0366663 -7.35024e-10 -0.05 0.00983534 0.000902892 -0.100102 0 4.21829e-06
1440 27 0.001 0.0376184 2.4979e-10 -0.05 0.015922 -0.000123525 0.0715396 0 3.93114e-06
1441 27 0.001 0.0385726 0 -0.05 -0.0314465 -0.000249404 -0.0470082 0 4.1149e-06
1442 27 0.001 0.0395227 0 -0.05 0.0321505 7.997e-05 0.0138274 0 4.10763e-06
1443 27 0.001 0.0404769 0 -0.05 -0.156828 -0.552835 2.18428 0 4.01667e-06
1444 27 0.001 0.041428 0 -0.05 0.106444 2.92442 -12.1229 0 4.11408e-06
1445 27 0.001 0.0423811 9.84229e-07 -0.0500037 -0.642508 -8.01439 35.2375 0 4.03556e-06
1446 27 0.001 0.0433327 -4.88688e-06 -0.0499796 -2.93087 15.3164 -70.9488 0 3.84093e-06
1447 27 0.001 0.0442853 1.10847e-05 -0.0500521 -5.5867 -22.8651 109.679 0 3.18566e-06
1448 27 0.001 0.0452368 -1.58321e-05 -0.0499199 -4.09538 28.2148 -139.475 0 2.55694e-06
1449 27 0.001 0.0461898 1.73642e-05 -0.0500827 0.165389 -28.7974 152.378 0 2.2608e-06
1450 27 0.001 0.0471447 -1.46623e-05 -0.049924 4.47087 18.2988 -137.25 0 2.26374e-06
1451 27 0.001 0.048102 4.72737e-06 -0.0500617 5.80968 3.46877 89.0142 0 5.86377e-06
1452 27 0.001 0.0490295 4.25693e-06 -0.0499749 2.9158 -14.2742 -33.5064 0 5.9809e-06
11 11 0.001 0.0499717 -0.000121499 -0.0498145 -23.5774 7.17999 -27.0074 0 1.66483e-05
1223 26 0.001 0.0498116 0.00091884 -0.0496883 51.7016 -33.7787 62.5174 0 4.20789e-05
14 13 0.001 -0.0502938 0.00158824 -0.0488315 -27.0492 32.831 -52.283 0 5.25777e-05
224 14 0.001 -0.0303027 0.00158856 -0.0488379 -31.7228 31.18 -54.1578 0 4.5714e-05
474 17 0.001 -0.0103023 0.00158857 -0.0488376 -31.4963 31.2612 -54.0776 0 4.60072e-05
724 20 0.001 0.00966795 0.00159032 -0.0488521 -34.4156 29.7717 -53.3107 0 3.16884e-05
974 23 0.001 0.0296679 0.00159032 -0.0488521 -34.4156 29.7717 -53.3107 0 3.16884e-05
1224 26 0.001 0.0496969 0.00158704 -0.0488362 -30.8311 32.1391 -53.5079 0 4.60329e-05
17 13 0.001 -0.0525602 0.00312157 -0.0472356 -30.9925 49.06 -86.9795 0 0.000290364
15 13 0.001 -0.0511587 0.00223766 -0.0487902 -8.0847 17.6408 -11.3576 0 6.0921e-05
16 13 0.001 -0.0518793 0.00289824 -0.0482642 44.2757 -49.3273 66.2255 0 0.000191211
226 14 0.001 -0.0318777 0.00289803 -0.048262 44.7697 -48.5905 66.3384 0 0.000191354
227 14 0.001 -0.032561 0.00312176 -0.0472365 -31.2697 48.6549 -87.3959 0 0.000288641
225 14 0.001 -0.0311535 0.00223677 -0.0487878 -6.96747 18.6979 -10.1089 0 5.76737e-05
477 17 0.001 -0.012561 0.00312178 -0.0472366 -31.2458 48.6895 -87.3967 0 0.000288472
475 17 0.001 -0.0111537 0.0022368 -0.048788 -6.99991 18.6806 -10.1513 0 5.78194e-05
476 17 0.001 -0.0118776 0.00289801 -0.048262 44.7073 -48.6757 66.3286 0 0.000191211
727 20 0.001 0.00740525 0.00312737 -0.0473109 -21.7621 54.0442 -86.3249 0 0.000169758
725 20 0.001 0.00884022 0.00223433 -0.0488266 9.49534 30.7113 -1.19155 0 6.02117e-05
726 20 0.001 0.00817221 0.00288507 -0.0481889 15.24 -61.7704 49.2161 0 0.000141198
976 23 0.001 0.0281722 0.00288507 -0.0481889 15.24 -61.7704 49.2161 0 0.000141198
977 23 0.001 0.0274053 0.00312737 -0.0473109 -21.7621 54.0442 -86.3249 0 0.000169758
975 23 0.001 0.0288402 0.00223433 -0.0488266 9.49534 30.7113 -1.19155 0 6.02117e-05
1227 26 0.001 0.0474397 0.00312154 -0.0472351 -31.3161 48.4874 -87.1205 0 0.000291398
1225 26 0.001 0.0488472 0.00223748 -0.0487882 -7.5957 18.0749 -11.1001 0 5.80342e-05
1226 26 0.001 0.0481215 0.00289841 -0.0482633 45.1749 -48.1314 66.3263 0 0.000192964
19 13 0.001 -0.0546388 0.00260693 -0.0468544 31.9164 21.1113 22.824 0 0.000316305
20 13 0.001 -0.0550056 0.0021522 -0.0456285 -35.7266 -23.9723 0.416306 0 0.000972896
18 13 0.001 -0.0537777 0.00298175 -0.0474028 -3.98722 -27.6569 48.8257 0 0.000162327
230 14 0.001 -0.0350057 0.00215218 -0.0456286 -35.7729 -23.9907 0.364742 0 0.000972397
228 14 0.001 -0.033778 0.00298177 -0.047403 -4.07693 -27.5212 48.8455 0 0.000161805
229 14 0.001 -0.0346386 0.00260695 -0.046854 32.0608 21.0875 22.9593 0 0.00031576
480 17 0.001 -0.0150057 0.00215218 -0.0456286 -35.7683 -23.9906 0.368512 0 0.000972425
478 17 0.001 -0.013778 0.00298177 -0.047403 -4.06495 -27.5283 48.8558 0 0.000161719
479 17 0.001 -0.0146386 0.00260695 -0.046854 32.0486 21.0939 22.9521 0 0.000315786
729 20 0.001 0.00534659 0.00260122 -0.0468737 24.2976 27.3829 20.7807 0 0.000336175
730 20 0.001 0.00499452 0.00215411 -0.0456262 -32.1501 -23.9562 3.1186 0 0.000992705
728 20 0.001 0.00624353 0.00298583 -0.0473516 4.67198 -34.6774 51.1263 0 0.000102549
980 23 0.001 0.0249945 0.00215411 -0.0456262 -32.1501 -23.9562 3.1186 0 0.000992705
978 23 0.001 0.0262435 0.00298583 -0.0473516 4.67198 -34.6774 51.1263 0 0.000102549
979 23 0.001 0.0253466 0.00260122 -0.0468737 24.2976 27.3829 20.7807 0 0.000336175
1230 26 0.001 0.0449943 0.00215215 -0.0456286 -35.8358 -23.9901 0.315396 0 0.000972046
1228 26 0.001 0.0462216 0.00298174 -0.047404 -4.23586 -27.4219 48.6039 0 0.000163187
1229 26 0.001 0.0453617 0.00260706 -0.0468537 32.2223 21.0012 23.051 0 0.000315451
23 13 0.001 -0.0559949 -0.000456893 -0.0448895 28.7923 54.8349 149.254 0 3.06896e-05
233 14 0.001 -0.0359949 -0.000456895 -0.0448896 28.7911 54.833 149.246 0 3.06944e-05
483 17 0.001 -0.0159949 -0.000456895 -0.0448896 28.7911 54.8331 149.247 0 3.06941e-05
733 20 0.001 0.00400517 -0.000456841 -0.0448895 28.7964 54.9191 149.594 0 3.04889e-05
983 23 0.001 0.0240052 -0.000456841 -0.0448895 28.7964 54.9191 149.594 0 3.04889e-05
1233 26 0.001 0.0440051 -0.000456896 -0.0448896 28.7911 54.8315 149.24 0 3.06979e-05
21 13 0.001 -0.0559382 0.00106228 -0.0462494 2.30864 15.9829 -12.6113 0 0.00102091
22 13 0.001 -0.055854 0.000617141 -0.0449368 -28.3447 -3.52682 -81.7094 0 0.000362891
231 14 0.001 -0.0359383 0.00106225 -0.0462495 2.29169 15.9761 -12.5954 0 0.001021
232 14 0.001 -0.035854 0.00061715 -0.0449368 -28.3376 -3.51811 -81.6999 0 0.000363002
481 17 0.001 -0.0159383 0.00106225 -0.0462495 2.29293 15.9766 -12.5966 0 0.001021
482 17 0.001 -0.015854 0.000617149 -0.0449368 -28.338 -3.51871 -81.7005 0 0.000362995
731 20 0.001 0.00406367 0.00106311 -0.0462473 3.16705 16.3454 -13.4619 0 0.00101586
732 20 0.001 0.00414535 0.00061678 -0.044938 -28.6381 -3.98391 -82.1506 0 0.000358098
981 23 0.001 0.0240637 0.00106311 -0.0462473 3.16705 16.3454 -13.4619 0 0.00101586
982 23 0.001 0.0241454 0.00061678 -0.044938 -28.6381 -3.98391 -82.1506 0 0.000358098
1231 26 0.001 0.0440617 0.00106224 -0.0462495 2.27522 15.9711 -12.5802 0 0.00102109
1232 26 0.001 0.044146 0.000617156 -0.0449368 -28.3324 -3.51041 -81.6923 0 0.000363086
25 13 0.001 -0.0552348 -0.00200142 -0.0438436 -8.47402 25.9929 51.6986 0 6.44078e-06
26 13 0.001 -0.0545508 -0.00256646 -0.0433643 2.57311 -6.04642 -10.801 0 6.466e-06
235 14 0.001 -0.0352348 -0.00200142 -0.0438436 -8.47411 25.9938 51.7001 0 6.44078e-06
236 14 0.001 -0.0345508 -0.00256646 -0.0433643 2.57309 -6.0465 -10.801 0 6.466e-06
485 17 0.001 -0.0152348 -0.00200142 -0.0438436 -8.47411 25.9938 51.7 0 6.44078e-06
486 17 0.001 -0.0145508 -0.00256646 -0.0433643 2.57309 -6.0465 -10.801 0 6.466e-06
735 20 0.001 0.00476521 -0.00200142 -0.0438436 -8.47051 25.9554 51.6316 0 6.44074e-06
736 20 0.001 0.00544917 -0.00256646 -0.0433643 2.57408 -6.04261 -10.7979 0 6.466e-06
985 23 0.001 0.0247652 -0.00200142 -0.0438436 -8.47051 25.9554 51.6316 0 6.44074e-06
986 23 0.001 0.0254492 -0.00256646 -0.0433643 2.57408 -6.04261 -10.7979 0 6.466e-06
1235 26 0.001 0.0447652 -0.00200142 -0.0438436 -8.47418 25.9944 51.7013 0 6.44079e-06
1236 26 0.001 0.0454492 -0.00256646 -0.0433643 2.57307 -6.04657 -10.8011 0 6.466e-06
24 13 0.001 -0.0557262 -0.00124061 -0.0442857 8.46103 -75.1183 -114.563 0 9.2342e-06
234 14 0.001 -0.0357262 -0.00124061 -0.0442857 8.46096 -75.1199 -114.565 0 9.23441e-06
484 17 0.001 -0.0157262 -0.00124061 -0.0442857 8.46098 -75.1199 -114.565 0 9.2344e-06
734 20 0.001 0.00427383 -0.00124061 -0.0442857 8.4713 -75.0484 -114.475 0 9.22516e-06
984 23 0.001 0.0242738 -0.00124061 -0.0442857 8.4713 -75.0484 -114.475 0 9.22516e-06
1234 26 0.001 0.0442738 -0.0012406 -0.0442857 8.46077 -75.1211 -114.567 0 9.23456e-06
27 13 0.001 -0.0537293 -0.00290876 -0.042891 -0.961033 0.658464 2.12228 0 6.42443e-06
28 13 0.001 -0.0528438 -0.00299471 -0.0424171 0.147435 -0.0461095 -0.287549 0 6.42948e-06
29 13 0.001 -0.051972 -0.00281708 -0.0419431 -0.02303 0.0209192 0.0288742 0 6.42903e-06
30 13 0.001 -0.0511907 -0.0023915 -0.0414692 -0.010917 0.0159167 -0.00180655 0 6.42904e-06
237 14 0.001 -0.0337293 -0.00290876 -0.042891 -0.961036 0.658466 2.12229 0 6.42443e-06
238 14 0.001 -0.0328438 -0.00299471 -0.0424171 0.147435 -0.0461095 -0.287549 0 6.42948e-06
239 14 0.001 -0.031972 -0.00281708 -0.0419431 -0.02303 0.0209192 0.0288742 0 6.42903e-06
240 14 0.001 -0.0311907 -0.0023915 -0.0414692 -0.010917 0.0159167 -0.00180655 0 6.42904e-06
487 17 0.001 -0.0137293 -0.00290876 -0.042891 -0.961036 0.658465 2.12228 0 6.42443e-06
488 17 0.001 -0.0128438 -0.00299471 -0.0424171 0.147435 -0.0461095 -0.287549 0 6.42948e-06
489 17 0.001 -0.011972 -0.00281708 -0.0419431 -0.02303 0.0209192 0.0288742 0 6.42903e-06
490 17 0.001 -0.0111907 -0.0023915 -0.0414692 -0.010917 0.0159167 -0.00180654 0 6.42904e-06
737 20 0.001 0.0062707 -0.00290876 -0.042891 -0.960912 0.658395 2.12202 0 6.42443e-06
738 20 0.001 0.0071562 -0.00299471 -0.0424171 0.147435 -0.0461095 -0.287549 0 6.42948e-06
739 20 0.001 0.00802797 -0.00281708 -0.0419431 -0.02303 0.0209192 0.0288742 0 6.42903e-06
740 20 0.001 0.00880927 -0.0023915 -0.0414692 -0.010917 0.0159167 -0.00180654 0 6.42904e-06
987 23 0.001 0.0262707 -0.00290876 -0.042891 -0.960912 0.658395 2.12202 0 6.42443e-06
988 23 0.001 0.0271562 -0.00299471 -0.0424171 0.147435 -0.0461095 -0.287549 0 6.42948e-06
989 23 0.001 0.028028 -0.00281708 -0.0419431 -0.02303 0.0209192 0.0288742 0 6.42903e-06
990 23 0.001 0.0288093 -0.0023915 -0.0414692 -0.010917 0.0159167 -0.00180653 0 6.42904e-06
1237 26 0.001 0.0462707 -0.00290876 -0.042891 -0.961038 0.658467 2.12229 0 6.42443e-06
1238 26 0.001 0.0471562 -0.00299471 -0.0424171 0.147435 -0.0461095 -0.287549 0 6.42948e-06
1239 26 0.001 0.048028 -0.00281708 -0.0419431 -0.02303 0.0209192 0.0288742 0 6.42903e-06
1240 26 0.001 0.0488093 -0.0023915 -0.0414692 -0.010917 0.0159167 -0.00180655 0 6.42904e-06
31 13 0.001 -0.0505687 -0.00175541 -0.0409953 -0.0160874 0.0115815 5.54298e-05 0 6.42904e-06
241 14 0.001 -0.0305687 -0.00175541 -0.0409953 -0.0160874 0.0115815 5.54311e-05 0 6.42904e-06
491 17 0.001 -0.0105687 -0.00175541 -0.0409953 -0.0160874 0.0115816 5.54232e-05 0 6.42904e-06
741 20 0.001 0.0094313 -0.00175541 -0.0409953 -0.0160874 0.0115816 5.54215e-05 0 6.42904e-06
991 23 0.001 0.0294313 -0.00175541 -0.0409953 -0.0160874 0.0115816 5.54176e-05 0 6.42904e-06
1241 26 0.001 0.0494313 -0.00175541 -0.0409953 -0.0160874 0.0115815 5.54298e-05 0 6.42904e-06
32 13 0.001 -0.0501607 -0.000964808 -0.0405213 -0.0187522 0.00637201 1.20338e-08 0 6.42904e-06
33 13 0.001 -0.0500025 -8.92849e-05 -0.0400474 -0.0197965 0.000589685 -1.56577e-08 0 6.42904e-06
242 14 0.001 -0.0301607 -0.000964808 -0.0405213 -0.0187522 0.00637201 1.0727e-08 0 6.42904e-06
243 14 0.001 -0.0300025 -8.92849e-05 -0.0400474 -0.0197965 0.000589684 -1.43455e-08 0 6.42904e-06
492 17 0.001 -0.0101607 -0.000964808 -0.0405213 -0.0187522 0.00637201 1.47049e-08 0 6.42904e-06
493 17 0.001 -0.0100025 -8.92849e-05 -0.0400474 -0.0197965 0.000589684 -1.3459e-08 0 6.42904e-06
742 20 0.001 0.00983934 -0.000964808 -0.0405213 -0.0187522 0.00637201 1.56206e-08 0 6.42904e-06
743 20 0.001 0.00999745 -8.92849e-05 -0.0400474 -0.0197965 0.000589684 -1.38851e-08 0 6.42904e-06
992 23 0.001 0.0298393 -0.000964808 -0.0405213 -0.0187522 0.006372 2.18897e-08 0 6.42904e-06
993 23 0.001 0.0299975 -8.92849e-05 -0.0400474 -0.0197965 0.000589688 -2.1559e-08 0 6.42904e-06
1242 26 0.001 0.0498393 -0.000964808 -0.0405213 -0.0187522 0.00637201 1.20338e-08 0 6.42904e-06
1243 26 0.001 0.0499975 -8.92849e-05 -0.0400474 -0.0197965 0.000589685 -1.56577e-08 0 6.42904e-06
34 13 0.001 -0.0501083 0.000794097 -0.0395735 -0.0190983 -0.00524457 1.81111e-08 0 6.42904e-06
244 14 0.001 -0.0301083 0.000794097 -0.0395735 -0.0190983 -0.00524457 1.64396e-08 0 6.42904e-06
494 17 0.001 -0.0101083 0.000794097 -0.0395735 -0.0190983 -0.00524457 1.07713e-08 0 6.42904e-06
744 20 0.001 0.00989173 0.000794097 -0.0395735 -0.0190983 -0.00524457 1.09936e-08 0 6.42904e-06
994 23 0.001 0.0298917 0.000794097 -0.0395735 -0.0190983 -0.00524457 1.91424e-08 0 6.42904e-06
1244 26 0.001 0.0498917 0.000794097 -0.0395735 -0.0190983 -0.00524457 1.81111e-08 0 6.42904e-06
36 13 0.001 -0.0510516 0.00227957 -0.0386256 -0.0128681 -0.0150553 1.74927e-08 0 6.42904e-06
35 13 0.001 -0.0504685 0.00160758 -0.0390995 -0.016719 -0.0106172 -1.88379e-08 0 6.42904e-06
245 14 0.001 -0.0304685 0.00160758 -0.0390995 -0.016719 -0.0106172 -1.62558e-08 0 6.42904e-06
246 14 0.001 -0.0310516 0.00227957 -0.0386256 -0.0128681 -0.0150553 1.35514e-08 0 6.42904e-06
496 17 0.001 -0.0110516 0.00227957 -0.0386256 -0.0128681 -0.0150553 2.03821e-09 0 6.42904e-06
495 17 0.001 -0.0104685 0.00160758 -0.0390995 -0.016719 -0.0106172 -6.84236e-09 0 6.42904e-06
746 20 0.001 0.0089484 0.00227957 -0.0386256 -0.0128681 -0.0150553 2.40183e-09 0 6.42904e-06
745 20 0.001 0.00953148 0.00160758 -0.0390995 -0.016719 -0.0106172 -7.06744e-09 0 6.42904e-06
995 23 0.001 0.0295315 0.00160758 -0.0390995 -0.016719 -0.0106172 -1.49814e-08 0 6.42904e-06
996 23 0.001 0.0289484 0.00227957 -0.0386256 -0.0128681 -0.0150553 9.61754e-09 0 6.42904e-06
1246 26 0.001 0.0489484 0.00227957 -0.0386256 -0.0128681 -0.0150553 1.74927e-08 0 6.42904e-06
1245 26 0.001 0.0495315 0.00160758 -0.0390995 -0.016719 -0.0106172 -1.88379e-08 0 6.42904e-06
38 13 0.001 -0.0526658 0.00298011 -0.0376777 -0.00220702 -0.0196819 8.93361e-09 0 6.42904e-06
39 13 0.001 -0.0535549 0.002947 -0.0372038 0.00366478 -0.0194633 -2.76713e-09 0 6.42904e-06
37 13 0.001 -0.0518062 0.0027509 -0.0381517 -0.00788457 -0.0181682 -1.40676e-08 0 6.42904e-06
249 14 0.001 -0.0335549 0.002947 -0.0372038 0.00366478 -0.0194632 4.10657e-09 0 6.42904e-06
247 14 0.001 -0.0318062 0.0027509 -0.0381517 -0.00788457 -0.0181682 -8.67078e-09 0 6.42904e-06
248 14 0.001 -0.0326658 0.00298011 -0.0376777 -0.00220702 -0.0196819 2.43581e-09 0 6.42904e-06
499 17 0.001 -0.0135549 0.002947 -0.0372038 0.00366479 -0.0194632 1.25027e-08 0 6.42904e-06
498 17 0.001 -0.0126658 0.00298011 -0.0376777 -0.00220703 -0.0196819 -8.15874e-09 0 6.42904e-06
497 17 0.001 -0.0118062 0.0027509 -0.0381517 -0.00788456 -0.0181682 3.14522e-09 0 6.42904e-06
748 20 0.001 0.00733417 0.00298011 -0.0376777 -0.00220703 -0.0196819 -7.32323e-09 0 6.42904e-06
749 20 0.001 0.0064451 0.002947 -0.0372038 0.00366479 -0.0194632 1.14455e-08 0 6.42904e-06
747 20 0.001 0.00819383 0.0027509 -0.0381517 -0.00788456 -0.0181682 2.56113e-09 0 6.42904e-06
999 23 0.001 0.0264451 0.002947 -0.0372038 0.00366479 -0.0194632 7.25075e-09 0 6.42904e-06
997 23 0.001 0.0281938 0.0027509 -0.0381517 -0.00788456 -0.0181682 -3.69735e-09 0 6.42904e-06
998 23 0.001 0.0273342 0.00298011 -0.0376777 -0.00220702 -0.0196819 -2.11923e-09 0 6.42904e-06
1249 26 0.001 0.0464451 0.002947 -0.0372038 0.00366478 -0.0194633 -2.76713e-09 0 6.42904e-06
1248 26 0.001 0.0473342 0.00298011 -0.0376777 -0.00220702 -0.0196819 8.93361e-09 0 6.42904e-06
1247 26 0.001 0.0481938 0.0027509 -0.0381517 -0.00788457 -0.0181682 -1.40676e-08 0 6.42904e-06
42 13 0.001 -0.055644 0.00141485 -0.035782 0.0174623 -0.00934427 -1.42878e-08 0 6.42904e-06
252 14 0.001 -0.035644 0.00141485 -0.035782 0.0174623 -0.00934427 -1.73455e-08 0 6.42904e-06
502 17 0.001 -0.015644 0.00141485 -0.035782 0.0174623 -0.00934427 -1.88954e-08 0 6.42904e-06
752 20 0.001 0.00435597 0.00141485 -0.035782 0.0174623 -0.00934427 -1.79323e-08 0 6.42904e-06
1002 23 0.001 0.024356 0.00141485 -0.035782 0.0174623 -0.00934427 -1.55006e-08 0 6.42904e-06
1252 26 0.001 0.044356 0.00141485 -0.035782 0.0174623 -0.00934427 -1.42878e-08 0 6.42904e-06
40 13 0.001 -0.0543951 0.00265449 -0.0367299 0.00921401 -0.0175314 -3.6179e-09 0 6.42904e-06
41 13 0.001 -0.0551126 0.00212834 -0.0362559 0.0139522 -0.0140565 9.47406e-09 0 6.42904e-06
251 14 0.001 -0.0351126 0.00212834 -0.0362559 0.0139522 -0.0140565 1.4489e-08 0 6.42904e-06
250 14 0.001 -0.0343951 0.00265449 -0.0367299 0.00921401 -0.0175314 -9.97677e-09 0 6.42904e-06
501 17 0.001 -0.0151126 0.00212834 -0.0362559 0.0139522 -0.0140565 1.79423e-08 0 6.42904e-06
500 17 0.001 -0.0143951 0.00265449 -0.0367299 0.009214 -0.0175314 -1.5819e-08 0 6.42904e-06
750 20 0.001 0.00560488 0.00265449 -0.0367299 0.009214 -0.0175314 -1.46378e-08 0 6.42904e-06
751 20 0.001 0.00488745 0.00212834 -0.0362559 0.0139522 -0.0140565 1.67881e-08 0 6.42904e-06
1001 23 0.001 0.0248874 0.00212834 -0.0362559 0.0139522 -0.0140565 1.40227e-08 0 6.42904e-06
1000 23 0.001 0.0256049 0.00265449 -0.0367299 0.009214 -0.0175314 -1.12826e-08 0 6.42904e-06
1251 26 0.001 0.0448874 0.00212834 -0.0362559 0.0139522 -0.0140565 9.47406e-09 0 6.42904e-06
1250 26 0.001 0.0456049 0.00265449 -0.0367299 0.00921401 -0.0175314 -3.6179e-09 0 6.42904e-06
44 13 0.001 -0.0559825 -0.000311978 -0.0348341 0.0196978 0.00206043 -2.02657e-08 0 6.42904e-06
45 13 0.001 -0.0557597 -0.00117332 -0.0343602 0.0182264 0.0077491 2.17663e-08 0 6.42904e-06
254 14 0.001 -0.0359825 -0.000311978 -0.0348341 0.0196978 0.00206043 -1.85148e-08 0 6.42904e-06
255 14 0.001 -0.0357597 -0.00117332 -0.0343602 0.0182264 0.0077491 1.74783e-08 0 6.42904e-06
504 17 0.001 -0.0159825 -0.000311978 -0.0348341 0.0196978 0.00206043 -1.80131e-08 0 6.42904e-06
505 17 0.001 -0.0157597 -0.00117332 -0.0343602 0.0182264 0.0077491 1.66687e-08 0 6.42904e-06
754 20 0.001 0.00401749 -0.000311978 -0.0348341 0.0196978 0.00206043 -1.77301e-08 0 6.42904e-06
755 20 0.001 0.00424028 -0.00117332 -0.0343602 0.0182264 0.0077491 1.67073e-08 0 6.42904e-06
1004 23 0.001 0.0240175 -0.000311978 -0.0348341 0.0196978 0.00206043 -1.55339e-08 0 6.42904e-06
1005 23 0.001 0.0242403 -0.00117332 -0.0343602 0.0182264 0.0077491 1.46334e-08 0 6.42904e-06
1254 26 0.001 0.0440175 -0.000311978 -0.0348341 0.0196978 0.00206043 -2.02657e-08 0 6.42904e-06
1255 26 0.001 0.0442403 -0.00117332 -0.0343602 0.0182264 0.0077491 2.17663e-08 0 6.42904e-06
43 13 0.001 -0.0559428 0.00057682 -0.0353081 0.0194354 -0.00380956 1.78575e-08 0 6.42904e-06
253 14 0.001 -0.0359428 0.00057682 -0.0353081 0.0194354 -0.00380956 1.85956e-08 0 6.42904e-06
503 17 0.001 -0.0159428 0.00057682 -0.0353081 0.0194354 -0.00380956 1.88405e-08 0 6.42904e-06
753 20 0.001 0.00405722 0.00057682 -0.0353081 0.0194354 -0.00380956 1.81937e-08 0 6.42904e-06
1003 23 0.001 0.0240572 0.00057682 -0.0353081 0.0194354 -0.00380957 1.59129e-08 0 6.42904e-06
1253 26 0.001 0.0440572 0.00057682 -0.0353081 0.0194354 -0.00380956 1.78575e-08 0 6.42904e-06
46 13 0.001 -0.055294 -0.00193138 -0.0338863 0.0151506 0.0127557 -2.26353e-08 0 6.42904e-06
47 13 0.001 -0.0546264 -0.00251944 -0.0334123 0.0107413 0.0166395 2.30493e-08 0 6.42904e-06
48 13 0.001 -0.0538156 -0.00288574 -0.0329384 0.00538661 0.0190587 -2.30312e-08 0 6.42904e-06
49 13 0.001 -0.052933 -0.00299803 -0.0324645 -0.000442298 0.0198003 2.246e-08 0 6.42904e-06
256 14 0.001 -0.035294 -0.00193138 -0.0338863 0.0151506 0.0127557 -1.58691e-08 0 6.42904e-06
257 14 0.001 -0.0346264 -0.00251944 -0.0334123 0.0107413 0.0166395 1.40255e-08 0 6.42904e-06
258 14 0.001 -0.0338156 -0.00288574 -0.0329384 0.0053866 0.0190587 -1.22081e-08 0 6.42904e-06
259 14 0.001 -0.032933 -0.00299803 -0.0324645 -0.000442292 0.0198003 1.05749e-08 0 6.42904e-06
506 17 0.001 -0.015294 -0.00193138 -0.0338863 0.0151506 0.0127557 -1.50524e-08 0 6.42904e-06
507 17 0.001 -0.0146264 -0.00251944 -0.0334123 0.0107413 0.0166395 1.33812e-08 0 6.42904e-06
508 17 0.001 -0.0138156 -0.00288574 -0.0329384 0.0053866 0.0190587 -1.18237e-08 0 6.42904e-06
509 17 0.001 -0.012933 -0.00299803 -0.0324645 -0.000442292 0.0198003 1.04688e-08 0 6.42904e-06
756 20 0.001 0.00470599 -0.00193138 -0.0338863 0.0151506 0.0127557 -1.53006e-08 0 6.42904e-06
757 20 0.001 0.00537362 -0.00251944 -0.0334123 0.0107413 0.0166395 1.36978e-08 0 6.42904e-06
758 20 0.001 0.0061844 -0.00288574 -0.0329384 0.0053866 0.0190587 -1.2082e-08 0 6.42904e-06
759 20 0.001 0.00706697 -0.00299803 -0.0324645 -0.000442292 0.0198003 1.05873e-08 0 6.42904e-06
1006 23 0.001 0.024706 -0.00193138 -0.0338863 0.0151506 0.0127557 -1.34371e-08 0 6.42904e-06
1007 23 0.001 0.0253736 -0.00251944 -0.0334123 0.0107413 0.0166395 1.21242e-08 0 6.42904e-06
1008 23 0.001 0.0261844 -0.00288574 -0.0329384 0.0053866 0.0190587 -1.0831e-08 0 6.42904e-06
1009 23 0.001 0.027067 -0.00299803 -0.0324645 -0.000442291 0.0198003 9.64144e-09 0 6.42904e-06
1256 26 0.001 0.044706 -0.00193138 -0.0338863 0.0151506 0.0127557 -2.26353e-08 0 6.42904e-06
1257 26 0.001 0.0453736 -0.00251944 -0.0334123 0.0107413 0.0166395 2.30493e-08 0 6.42904e-06
1258 26 0.001 0.0461844 -0.00288574 -0.0329384 0.00538661 0.0190587 -2.30312e-08 0 6.42904e-06
1259 26 0.001 0.047067 -0.00299803 -0.0324645 -0.000442298 0.0198003 2.246e-08 0 6.42904e-06
50 13 0.001 -0.0520564 -0.00284644 -0.0319905 -0.00623223 0.0187992 -2.11316e-08 0 6.42904e-06
51 13 0.001 -0.0512627 -0.0024443 -0.0315166 -0.0114736 0.0161433 1.88565e-08 0 6.42904e-06
52 13 0.001 -0.050622 -0.00182702 -0.0310427 -0.0157051 0.0120664 -1.55636e-08 0 6.42904e-06
260 14 0.001 -0.0320564 -0.00284644 -0.0319905 -0.00623223 0.0187992 -9.1608e-09 0 6.42904e-06
261 14 0.001 -0.0312627 -0.0024443 -0.0315166 -0.0114736 0.0161433 7.88138e-09 0 6.42904e-06
262 14 0.001 -0.030622 -0.00182702 -0.0310427 -0.0157051 0.0120664 -6.57552e-09 0 6.42904e-06
510 17 0.001 -0.0120564 -0.00284644 -0.0319905 -0.00623223 0.0187992 -9.2997e-09 0 6.42904e-06