ITEM: TIMESTEP
6
ITEM: NUMBER OF ATOMS
1472
ITEM: BOX BOUNDS ff ff ff
-6.0000000000000005e-02 6.0000000000000005e-02
-6.0000000000000001e-03 6.0000000000000001e-03
-5.5000000000000000e-02 5.5000000000000000e-02
ITEM: ATOMS id type radius x y z fx fy fz c_bendingE c_stretchingE
1 1 0.001 -0.0504158 -0.000243172 -0.0500954 -4.33901 10.7748 -5.3999 0 0.000421487
13 13 0.001 -0.0500551 0.000811155 -0.0496029 5.40677 -39.3498 52.2912 0 0.000189668
433 15 0.001 -0.0490754 -4.61329e-05 -0.0499146 -14.2955 16.9862 -70.6605 0 0.000307941
434 15 0.001 -0.0480992 8.46427e-05 -0.0501606 8.49365 -18.1765 66.0419 0 5.70777e-06
435 15 0.001 -0.0471404 -4.03561e-05 -0.0499511 3.49733 18.815 11.013 0 3.65159e-06
436 15 0.001 -0.0461908 -6.32492e-06 -0.0499293 -8.9928 -15.98 -91.7007 0 3.56552e-06
437 15 0.001 -0.0452415 9.48945e-06 -0.0500837 -5.41273 -1.91541 144.679 0 2.40873e-06
438 15 0.001 -0.044285 -1.00455e-05 -0.0499023 -2.48467 14.132 -168.27 0 2.07787e-06
439 15 0.001 -0.0433305 8.38422e-06 -0.0501011 4.67046 -12.8019 162.048 0 2.30022e-06
440 15 0.001 -0.0423811 -2.43905e-06 -0.0499337 8.05846 7.51005 -130.635 0 2.83244e-06
441 15 0.001 -0.0414272 -8.72132e-07 -0.0500253 4.28149 0.0366475 85.5226 0 3.6255e-06
442 15 0.001 -0.0404756 4.82368e-07 -0.0499955 0.790845 -11.7724 -15.5913 0 4.32742e-06
443 15 0.001 -0.0395258 -3.14466e-06 -0.0499882 -6.42099 28.9706 -91.4773 0 3.93277e-06
444 15 0.001 -0.0385722 1.68062e-05 -0.0500657 -22.9858 -45.3016 184.606 0 2.85856e-06
445 15 0.001 -0.037622 -4.4207e-05 -0.0498179 -12.8504 43.2869 -182.711 0 2.31925e-05
446 15 0.001 -0.0366846 7.80484e-05 -0.0503358 28.588 -21.8128 93.3684 0 0.00016619
447 15 0.001 -0.0357495 -0.000106997 -0.0495358 31.5332 1.08317 -7.56991 0 0.000521516
448 15 0.001 -0.0347889 0.000126499 -0.0505438 13.2631 9.34478 -30.6176 0 0.000962332
449 15 0.001 -0.0338089 -0.000129821 -0.0494115 -7.86266 -11.7433 32.9995 0 0.00113795
450 15 0.001 -0.0328243 8.5212e-05 -0.0505281 -35.9544 -1.34025 4.17369 0 0.000737941
451 15 0.001 -0.0318685 5.85555e-06 -0.0496799 -23.4123 26.004 -97.6946 0 0.000188209
223 14 0.001 -0.0300428 0.00082081 -0.0496001 10.7568 -41.775 61.6096 0 0.000102181
452 15 0.001 -0.0309589 -4.94957e-05 -0.0501107 21.9638 -22.7309 152.9 0 0.000148105
3 3 0.001 -0.0302796 -0.000203103 -0.0500041 7.06696 12.2052 -78.3125 0 0.000317126
683 18 0.001 -0.0290667 -4.57998e-05 -0.0499071 -16.1605 19.2034 -77.7295 0 0.000130629
684 18 0.001 -0.028098 8.91888e-05 -0.050183 10.8144 -16.1955 65.6809 0 6.43392e-06
685 18 0.001 -0.0271396 -3.74887e-05 -0.0499389 3.89374 6.75226 13.8623 0 4.668e-06
686 18 0.001 -0.0261937 -2.0283e-05 -0.0499262 -10.9136 4.64025 -95.0039 0 3.77385e-06
687 18 0.001 -0.0252403 2.02228e-05 -0.0500909 -6.64576 -20.0054 150.545 0 2.17353e-06
688 18 0.001 -0.0242838 -1.4936e-05 -0.0498923 -3.10472 25.7157 -176.999 0 2.10936e-06
689 18 0.001 -0.023331 1.17165e-05 -0.0501109 5.54831 -20.0341 172.376 0 2.16753e-06
690 18 0.001 -0.02238 -4.0522e-06 -0.0499274 9.32123 11.5877 -140.621 0 2.71614e-06
691 18 0.001 -0.0214275 -5.07815e-07 -0.0500278 5.11662 -2.26494 93.2659 0 3.71912e-06
692 18 0.001 -0.0204766 4.63321e-07 -0.0499951 1.02892 -10.5624 -19.6916 0 4.11033e-06
693 18 0.001 -0.0195239 -3.16028e-06 -0.0499882 -6.49861 28.7098 -90.4457 0 3.9313e-06
694 18 0.001 -0.0185738 1.67574e-05 -0.0500653 -22.6491 -45.3902 184.345 0 3.25626e-06
695 18 0.001 -0.0176204 -4.42266e-05 -0.0498182 -13.4107 43.4056 -182.713 0 2.21381e-05
696 18 0.001 -0.0166856 7.80095e-05 -0.0503348 28.4607 -22.1022 94.2456 0 0.00016469
697 18 0.001 -0.0157486 -0.000106951 -0.0495374 31.4076 1.3328 -8.47108 0 0.000514964
698 18 0.001 -0.014789 0.000126567 -0.0505413 13.1773 9.19598 -29.8546 0 0.000945335
699 18 0.001 -0.0138103 -0.000130266 -0.0494148 -8.76493 -11.6237 31.5184 0 0.00111202
700 18 0.001 -0.012826 8.58055e-05 -0.0505216 -36.0338 -1.67754 7.45542 0 0.000721526
701 18 0.001 -0.011861 5.5885e-06 -0.0496854 -22.8086 26.8641 -101.815 0 0.000185535
702 18 0.001 -0.0109636 -4.89348e-05 -0.0501101 22.9908 -23.4308 154.762 0 0.000149589
5 5 0.001 -0.0102873 -0.000203953 -0.0500048 7.10829 12.6187 -78.3778 0 0.000322154
473 17 0.001 -0.0100434 0.000820296 -0.0496 10.5651 -41.6133 61.2157 0 0.000104033
933 21 0.001 -0.00907366 -4.4928e-05 -0.0499085 -15.6129 18.423 -76.7063 0 0.000132389
934 21 0.001 -0.00809849 8.81054e-05 -0.0501815 10.4347 -15.5588 64.8489 0 7.91202e-06
935 21 0.001 -0.00713315 -3.68527e-05 -0.0499396 3.64294 6.13171 14.248 0 5.73566e-06
936 21 0.001 -0.00619118 -2.08684e-05 -0.0499258 -11.0984 5.73753 -95.6987 0 4.3114e-06
937 21 0.001 -0.00524017 2.07588e-05 -0.0500917 -6.67156 -20.9773 151.508 0 2.22752e-06
938 21 0.001 -0.00428465 -1.51571e-05 -0.0498917 -2.94137 26.2192 -177.709 0 2.1267e-06
939 21 0.001 -0.00333051 1.17952e-05 -0.0501113 5.48536 -20.3022 172.97 0 2.24372e-06
940 21 0.001 -0.00238151 -4.07678e-06 -0.0499272 9.40451 11.8418 -141.956 0 2.65957e-06
941 21 0.001 -0.00142726 -5.0925e-07 -0.0500278 5.17741 -4.77973 95.465 0 3.48408e-06
942 21 0.001 -0.000474989 4.64406e-07 -0.0499951 1.09495 0.607807 -48.4411 0 4.27488e-06
943 21 0.001 0.000474614 -4.52413e-10 -0.05 0.096557 0.489934 17.3272 0 4.27333e-06
944 21 0.001 0.00142747 8.15081e-10 -0.0499999 0.0127171 -0.233568 -4.71318 0 3.83263e-06
945 21 0.001 0.00238201 -1.19683e-09 -0.0500005 -0.0246022 0.0342878 2.83023 0 3.92631e-06
946 21 0.001 0.0033338 5.67813e-09 -0.0499985 -0.00257156 -0.0305643 -4.81565 0 4.05809e-06
947 21 0.001 0.00428674 -1.75098e-08 -0.0500032 -0.0493248 0.0479929 7.85214 0 4.24158e-06
948 21 0.001 0.00523656 2.78538e-08 -0.0499951 -0.00274807 -0.058347 -10.8622 0 4.1979e-06
949 21 0.001 0.00618996 -2.70435e-08 -0.0500062 -0.020788 0.0538007 12.8688 0 3.87604e-06
950 21 0.001 0.00714325 1.89062e-08 -0.0499933 -0.00139036 -0.0347133 -12.9432 0 4.01742e-06
951 21 0.001 0.00809501 -6.11793e-09 -0.0500057 0.0475028 0.0102539 10.6325 0 4.06518e-06
7 7 0.001 0.01 0 -0.05 7.61084 15.6891 -22.2048 0 1.35751e-05
723 20 0.001 0.00999269 0.000750238 -0.0494863 -16.9741 -30.5654 41.8057 0 5.29104e-05
952 21 0.001 0.00904779 -3.53574e-09 -0.0499969 0.0309191 0.00370775 -6.08513 0 4.0319e-06
1183 24 0.001 0.0109522 -3.04025e-09 -0.0500009 0.000632522 0.00331435 0.394176 0 4.07086e-06
1184 24 0.001 0.0119046 5.113e-09 -0.0499998 0.00794871 -0.00497005 -0.752209 0 3.97335e-06
1185 24 0.001 0.012858 -3.71567e-09 -0.0500006 -0.00994153 0.00722363 1.34067 0 3.97802e-06
1186 24 0.001 0.0138102 3.8377e-09 -0.0499985 -0.0147663 -0.00666357 -1.90128 0 4.23301e-06
1187 24 0.001 0.0147608 -2.76812e-09 -0.0500011 0.0280317 0.00231445 2.04058 0 4.09084e-06
1188 24 0.001 0.0157147 -1.67165e-09 -0.0499994 -0.0112851 0.00168236 -1.76536 0 3.91758e-06
1189 24 0.001 0.0166672 2.88986e-09 -0.0500005 -0.0119676 -0.00300371 1.29139 0 4.1914e-06
1190 24 0.001 0.017618 -9.92751e-11 -0.0499996 0.0214974 0.00201812 -0.852805 0 4.09482e-06
1191 24 0.001 0.0185716 -1.19842e-09 -0.0500002 -0.0042621 -0.00051219 0.515221 0 3.90299e-06
1192 24 0.001 0.0195245 3.82917e-10 -0.0499999 -0.00412484 -0.000941904 -0.291563 0 3.99683e-06
1193 24 0.001 0.020477 -4.51148e-10 -0.05 -0.0283236 0.00295938 0.351327 0 4.38484e-06
1194 24 0.001 0.0214258 8.10405e-10 -0.0499999 0.0576133 -0.00677214 -0.97507 0 4.08077e-06
1195 24 0.001 0.0223821 -1.20215e-09 -0.0500005 -0.0445258 0.0154879 2.43981 0 3.87234e-06
1196 24 0.001 0.023333 5.7337e-09 -0.0499985 0.00897581 -0.0307963 -4.82079 0 4.07765e-06
1197 24 0.001 0.0242866 -1.76725e-08 -0.0500032 -0.0392794 0.048426 7.85443 0 4.00451e-06
1198 24 0.001 0.0252384 2.82024e-08 -0.0499951 -0.0366416 -0.0591193 -10.8871 0 4.21957e-06
1199 24 0.001 0.0261895 -2.74957e-08 -0.0500062 0.00102071 0.0547542 12.9039 0 4.04402e-06
1200 24 0.001 0.0271432 1.93552e-08 -0.0499933 -0.00716328 -0.0355827 -12.9648 0 4.0099e-06
1201 24 0.001 0.0280947 -6.49878e-09 -0.0500057 0.0536177 0.0109568 10.6469 0 4.05527e-06
9 9 0.001 0.03 0 -0.05 7.61092 15.6892 -22.2017 0 1.35891e-05
973 23 0.001 0.0299927 0.000750238 -0.0494863 -16.9741 -30.5654 41.8057 0 5.29104e-05
1202 24 0.001 0.0290479 -3.33835e-09 -0.0499969 0.0268209 0.00331731 -6.08958 0 4.00155e-06
1433 27 0.001 0.0309522 -3.06039e-09 -0.0500009 0.00353415 0.00330352 0.391105 0 4.05158e-06
1434 27 0.001 0.0319048 5.09192e-09 -0.0499998 -0.00154302 -0.0049499 -0.745712 0 4.02607e-06
1435 27 0.001 0.0328573 -3.68554e-09 -0.0500006 -0.00590402 0.00717046 1.32418 0 4.09268e-06
1436 27 0.001 0.0338092 3.8148e-09 -0.0499985 0.00544435 -0.00660821 -1.87168 0 4.07213e-06
1437 27 0.001 0.0347618 -2.76269e-09 -0.0500011 0.00838771 0.00232135 2.00791 0 3.92141e-06
1438 27 0.001 0.0357155 -1.62881e-09 -0.0499994 -0.0184833 0.00161304 -1.7396 0 4.05772e-06
1439 27 0.001 0.0366666 2.84094e-09 -0.0500005 0.00415267 -0.00292002 1.27297 0 4.22933e-06
1440 27 0.001 0.0376183 -9.02091e-11 -0.0499996 0.018862 -0.103208 -0.828204 0 3.98118e-06
1441 27 0.001 0.0385723 -1.19082e-09 -0.0500002 -0.0242104 1.77754 -5.78406 0 4.0724e-06
1442 27 0.001 0.039523 3.81829e-10 -0.0499999 -0.30987 -8.55184 34.7478 0 4.11301e-06
1443 27 0.001 0.0404765 -2.63959e-06 -0.0499896 -5.07735 23.2495 -100.086 0 3.79574e-06
1444 27 0.001 0.0414282 1.39631e-05 -0.0500579 -20.4554 -40.0539 179.115 0 2.90774e-06
1445 27 0.001 0.0423781 -3.62974e-05 -0.0498392 -18.8245 42.6621 -196.844 0 1.35015e-05
1446 27 0.001 0.0433184 6.33567e-05 -0.050298 17.6535 -26.5025 126.122 0 0.000105683
1447 27 0.001 0.0442582 -8.66083e-05 -0.0495818 29.985 6.92297 -38.3628 0 0.000355606
1448 27 0.001 0.0452161 0.000101353 -0.0504984 15.6662 4.8529 -9.9243 0 0.000691294
1449 27 0.001 0.0461898 -9.95283e-05 -0.0494555 -7.34623 -8.64106 16.2405 0 0.000836679
1450 27 0.001 0.0471676 5.49772e-05 -0.0504865 -32.2126 -1.12577 24.1979 0 0.00055006
1451 27 0.001 0.0481313 2.7799e-05 -0.0497026 -17.2258 17.679 -117.147 0 0.000144164
1452 27 0.001 0.0490351 -6.08617e-05 -0.0501102 26.0238 -10.6812 166.294 0 0.000181585
11 11 0.001 0.0496938 -0.000173238 -0.0500248 5.91583 15.6416 -110.795 0 0.000215672
1223 26 0.001 0.0499564 0.00081283 -0.0495933 7.06125 -41.1051 59.2278 0 9.59873e-05
14 13 0.001 -0.0501788 0.00163033 -0.0487847 3.19275 33.0724 -26.9509 0 0.000411888
224 14 0.001 -0.0302188 0.00162326 -0.0488067 1.60306 35.0727 -32.641 0 0.000317987
474 17 0.001 -0.0102169 0.00162369 -0.0488057 1.72427 35.0079 -32.3851 0 0.000322017
724 20 0.001 0.00970627 0.00162403 -0.0488443 10.2697 20.7662 -16.1336 0 0.000187177
974 23 0.001 0.0297063 0.00162403 -0.0488443 10.2697 20.7662 -16.1336 0 0.000187177
1224 26 0.001 0.0497844 0.00162497 -0.0488005 3.03532 33.7044 -30.2662 0 0.0003304
17 13 0.001 -0.052706 0.00346274 -0.0476147 65.2364 -59.3379 146.552 0 0.000536003
15 13 0.001 -0.0513216 0.00229006 -0.0492203 2.77165 -36.0249 15.4483 0 0.000878908
16 13 0.001 -0.0515294 0.00272322 -0.0478021 -7.49672 43.2999 -68.5026 0 0.000899877
226 14 0.001 -0.031524 0.00272641 -0.0477976 -8.04194 44.4705 -69.2712 0 0.000894742
227 14 0.001 -0.0327088 0.00346108 -0.0476183 65.0053 -59.3924 147.296 0 0.000540209
225 14 0.001 -0.0313059 0.00229305 -0.0492087 2.90735 -35.6506 17.9103 0 0.000790111
477 17 0.001 -0.0127087 0.00346127 -0.0476184 65.0178 -59.3039 147.21 0 0.000540536
475 17 0.001 -0.0113066 0.00229303 -0.0492094 2.81301 -35.6967 17.8015 0 0.000794525
476 17 0.001 -0.0115242 0.00272597 -0.0477976 -7.95262 44.3638 -69.1765 0 0.000895844
727 20 0.001 0.0072743 0.00349712 -0.0477475 58.263 -24.2497 111.415 0 0.000683216
725 20 0.001 0.00876795 0.00234312 -0.0492316 -0.971442 -28.7905 7.36667 0 0.000799891
726 20 0.001 0.0084266 0.00263995 -0.0477474 0.980868 30.21 -55.419 0 0.0010764
976 23 0.001 0.0284266 0.00263995 -0.0477474 0.980868 30.21 -55.419 0 0.0010764
977 23 0.001 0.0272743 0.00349712 -0.0477475 58.263 -24.2497 111.415 0 0.000683216
975 23 0.001 0.028768 0.00234312 -0.0492316 -0.971442 -28.7905 7.36667 0 0.000799891
1227 26 0.001 0.0472922 0.00345985 -0.0476144 64.9197 -60.3561 147.698 0 0.000535387
1225 26 0.001 0.0486922 0.00229128 -0.0492141 3.24145 -35.3605 16.9269 0 0.000806696
1226 26 0.001 0.0484764 0.00272933 -0.0477999 -8.11249 44.4505 -69.3164 0 0.000899747
19 13 0.001 -0.0547611 0.00267291 -0.0471621 -17.0476 -63.8408 83.965 0 0.00353428
20 13 0.001 -0.0549445 0.00216764 -0.0449139 -8.098 -19.4959 27.1151 0 0.00925708
18 13 0.001 -0.0537388 0.00292508 -0.0471024 -69.5206 81.153 -171.364 0 0.000188615
230 14 0.001 -0.0349448 0.00216752 -0.0449143 -8.17729 -19.5704 27.126 0 0.00924662
228 14 0.001 -0.0337398 0.0029258 -0.0471028 -69.8564 80.4278 -172.483 0 0.000186738
229 14 0.001 -0.03476 0.00267286 -0.0471608 -16.9189 -63.4664 84.6698 0 0.00352553
480 17 0.001 -0.0149447 0.00216753 -0.0449143 -8.16774 -19.5641 27.1262 0 0.00924729
478 17 0.001 -0.0137397 0.00292577 -0.0471026 -69.8431 80.3935 -172.391 0 0.00018701
479 17 0.001 -0.0147601 0.00267287 -0.0471609 -16.9472 -63.4714 84.6117 0 0.00352611
729 20 0.001 0.00517498 0.00269124 -0.0472071 -30.3606 -52.1486 45.5104 0 0.00393899
730 20 0.001 0.00507248 0.0021716 -0.0448968 -1.67894 -16.5702 26.5183 0 0.00968727
728 20 0.001 0.0063396 0.00290004 -0.0469965 -57.974 41.943 -106.939 0 0.000365468
980 23 0.001 0.0250725 0.0021716 -0.0448968 -1.67894 -16.5702 26.5183 0 0.00968727
978 23 0.001 0.0263396 0.00290004 -0.0469965 -57.974 41.943 -106.939 0 0.000365468
979 23 0.001 0.025175 0.00269124 -0.0472071 -30.3606 -52.1486 45.5104 0 0.00393899
1230 26 0.001 0.0450549 0.00216746 -0.0449146 -8.3233 -19.648 27.1212 0 0.00923794
1228 26 0.001 0.0462588 0.0029262 -0.0471057 -69.9625 81.444 -173.582 0 0.000184136
1229 26 0.001 0.0452413 0.00267265 -0.0471597 -16.3956 -63.6941 85.4312 0 0.00351812
23 13 0.001 -0.0558804 -0.000252548 -0.0442821 31.3543 -1.54384 -24.2913 0 0.000548777
233 14 0.001 -0.0358805 -0.000252559 -0.0442822 31.3622 -1.54989 -24.3111 0 0.000548728
483 17 0.001 -0.0158805 -0.000252559 -0.0442822 31.3618 -1.54954 -24.3099 0 0.000548731
733 20 0.001 0.00411978 -0.000252041 -0.0442803 31.0446 -1.27706 -23.3947 0 0.000550829
983 23 0.001 0.0241198 -0.000252041 -0.0442803 31.0446 -1.27706 -23.3947 0 0.000550829
1233 26 0.001 0.0441195 -0.000252568 -0.0442822 31.368 -1.55434 -24.3265 0 0.000548692
21 13 0.001 -0.056199 0.000843209 -0.0468789 18.6409 11.1631 -22.9146 0 0.00749442
22 13 0.001 -0.0558799 0.000734714 -0.0449894 -1.37754 37.6913 2.98803 0 0.0018722
231 14 0.001 -0.0361992 0.00084313 -0.0468789 18.6244 11.1472 -22.9116 0 0.00749265
232 14 0.001 -0.0358798 0.000734773 -0.0449893 -1.36923 37.713 2.9955 0 0.00187273
481 17 0.001 -0.0161992 0.000843134 -0.0468789 18.6255 11.1486 -22.912 0 0.00749278
482 17 0.001 -0.0158798 0.000734769 -0.0449893 -1.36998 37.7118 2.99508 0 0.00187271
731 20 0.001 0.0038089 0.00084663 -0.0468787 19.1306 11.8938 -22.9133 0 0.00758709
732 20 0.001 0.00411752 0.00073181 -0.0449938 -1.88403 36.8118 2.67091 0 0.0018513
981 23 0.001 0.0238089 0.00084663 -0.0468787 19.1306 11.8938 -22.9133 0 0.00758709
982 23 0.001 0.0241175 0.00073181 -0.0449938 -1.88403 36.8118 2.67091 0 0.0018513
1231 26 0.001 0.0438007 0.000843077 -0.0468789 18.6099 11.128 -22.9052 0 0.00749096
1232 26 0.001 0.0441202 0.000734822 -0.0449892 -1.3593 37.7288 3.00066 0 0.0018731
25 13 0.001 -0.0552742 -0.00187963 -0.0436016 0.929985 -61.8308 -104.72 0 0.000227978
26 13 0.001 -0.0545385 -0.00259466 -0.0434153 -11.2412 70.1305 149.414 0 1.42918e-05
235 14 0.001 -0.0352742 -0.00187963 -0.0436015 0.930034 -61.8299 -104.719 0 0.000227995
236 14 0.001 -0.0345385 -0.00259466 -0.0434153 -11.2409 70.13 149.414 0 1.42923e-05
485 17 0.001 -0.0152742 -0.00187963 -0.0436015 0.930047 -61.8299 -104.719 0 0.000227994
486 17 0.001 -0.0145385 -0.00259466 -0.0434153 -11.2409 70.13 149.414 0 1.42923e-05
735 20 0.001 0.00472578 -0.00187981 -0.0436019 0.9413 -61.8633 -104.769 0 0.000227218
736 20 0.001 0.0054615 -0.00259464 -0.0434153 -11.2619 70.1489 149.433 0 1.42684e-05
985 23 0.001 0.0247258 -0.00187981 -0.0436019 0.9413 -61.8633 -104.769 0 0.000227218
986 23 0.001 0.0254615 -0.00259464 -0.0434153 -11.2619 70.1489 149.433 0 1.42684e-05
1235 26 0.001 0.0447258 -0.00187963 -0.0436015 0.929851 -61.8294 -104.718 0 0.000228008
1236 26 0.001 0.0454615 -0.00259466 -0.0434153 -11.2405 70.1297 149.413 0 1.42927e-05
24 13 0.001 -0.055688 -0.00158459 -0.0448053 -34.4621 17.1852 27.2854 0 0.000652453
234 14 0.001 -0.035688 -0.0015846 -0.0448053 -34.4681 17.1818 27.2915 0 0.000652445
484 17 0.001 -0.015688 -0.0015846 -0.0448053 -34.4677 17.182 27.2911 0 0.000652446
734 20 0.001 0.00431208 -0.00158426 -0.0448049 -34.2113 17.3304 27.0053 0 0.000652929
984 23 0.001 0.0243121 -0.00158426 -0.0448049 -34.2113 17.3304 27.0053 0 0.000652929
1234 26 0.001 0.044312 -0.0015846 -0.0448053 -34.4725 17.1793 27.2964 0 0.000652436
27 13 0.001 -0.0537338 -0.00290521 -0.042881 38.2251 -30.1049 -79.4745 0 7.31795e-06
28 13 0.001 -0.0528431 -0.0029945 -0.0424184 -13.1017 1.32686 24.9724 0 6.35776e-06
29 13 0.001 -0.0519723 -0.00281657 -0.041943 2.34872 -0.463345 -4.11208 0 6.40308e-06
30 13 0.001 -0.051191 -0.00239107 -0.0414692 -0.364996 -0.0697496 0.654803 0 6.39156e-06
237 14 0.001 -0.0337338 -0.00290521 -0.042881 38.2257 -30.1051 -79.4755 0 7.31797e-06
238 14 0.001 -0.0328431 -0.0029945 -0.0424184 -13.1019 1.32683 24.9728 0 6.35776e-06
239 14 0.001 -0.0319723 -0.00281657 -0.041943 2.34872 -0.46335 -4.11209 0 6.40308e-06
240 14 0.001 -0.031191 -0.00239107 -0.0414692 -0.364996 -0.0697497 0.654804 0 6.39156e-06
487 17 0.001 -0.0137338 -0.00290521 -0.042881 38.2257 -30.1051 -79.4754 0 7.31797e-06
488 17 0.001 -0.0128431 -0.0029945 -0.0424184 -13.1019 1.32683 24.9727 0 6.35776e-06
489 17 0.001 -0.0119723 -0.00281657 -0.041943 2.34872 -0.46335 -4.11209 0 6.40308e-06
490 17 0.001 -0.011191 -0.00239107 -0.0414692 -0.364996 -0.0697497 0.654804 0 6.39156e-06
737 20 0.001 0.00626624 -0.00290521 -0.042881 38.2021 -30.0973 -79.4339 0 7.31701e-06
738 20 0.001 0.00715688 -0.0029945 -0.0424184 -13.0935 1.32815 24.957 0 6.35776e-06
739 20 0.001 0.00802772 -0.00281657 -0.041943 2.34839 -0.463113 -4.11157 0 6.40308e-06
740 20 0.001 0.00880895 -0.00239107 -0.0414692 -0.364973 -0.0697454 0.654762 0 6.39156e-06
987 23 0.001 0.0262662 -0.00290521 -0.042881 38.2021 -30.0973 -79.4339 0 7.31701e-06
988 23 0.001 0.0271569 -0.0029945 -0.0424184 -13.0935 1.32815 24.957 0 6.35776e-06
989 23 0.001 0.0280277 -0.00281657 -0.041943 2.34839 -0.463113 -4.11157 0 6.40308e-06
990 23 0.001 0.028809 -0.00239107 -0.0414692 -0.364973 -0.0697454 0.654762 0 6.39156e-06
1237 26 0.001 0.0462662 -0.00290521 -0.042881 38.2261 -30.1052 -79.4762 0 7.31799e-06
1238 26 0.001 0.0471569 -0.0029945 -0.0424184 -13.102 1.32681 24.973 0 6.35776e-06
1239 26 0.001 0.0480277 -0.00281657 -0.041943 2.34873 -0.463354 -4.1121 0 6.40308e-06
1240 26 0.001 0.048809 -0.00239107 -0.0414692 -0.364997 -0.0697498 0.654805 0 6.39156e-06
31 13 0.001 -0.0505691 -0.0017551 -0.0409953 0.021207 0.0301328 -0.0732942 0 6.39278e-06
241 14 0.001 -0.0305691 -0.0017551 -0.0409953 0.021207 0.0301328 -0.0732943 0 6.39278e-06
491 17 0.001 -0.0105691 -0.0017551 -0.0409953 0.021207 0.0301328 -0.0732942 0 6.39278e-06
741 20 0.001 0.00943087 -0.0017551 -0.0409953 0.021207 0.0301328 -0.0732942 0 6.39278e-06
991 23 0.001 0.0294309 -0.0017551 -0.0409953 0.021207 0.0301328 -0.0732942 0 6.39278e-06
1241 26 0.001 0.0494309 -0.0017551 -0.0409953 0.021207 0.0301328 -0.0732942 0 6.39278e-06
32 13 0.001 -0.0501612 -0.000964637 -0.0405213 -0.0210246 0.00394084 0.00607215 0 6.39269e-06
33 13 0.001 -0.0500031 -8.92691e-05 -0.0400474 -0.019392 0.000735618 -0.000318524 0 6.39269e-06
242 14 0.001 -0.0301612 -0.000964637 -0.0405213 -0.0210246 0.00394083 0.00607216 0 6.39269e-06
243 14 0.001 -0.0300031 -8.92691e-05 -0.0400474 -0.019392 0.000735624 -0.000318537 0 6.39269e-06
492 17 0.001 -0.0101612 -0.000964637 -0.0405213 -0.0210246 0.00394084 0.00607213 0 6.39269e-06
493 17 0.001 -0.0100031 -8.92691e-05 -0.0400474 -0.019392 0.000735628 -0.000318543 0 6.39269e-06
742 20 0.001 0.00983884 -0.000964637 -0.0405213 -0.0210246 0.00394085 0.00607212 0 6.39269e-06
743 20 0.001 0.00999692 -8.92691e-05 -0.0400474 -0.019392 0.000735625 -0.000318538 0 6.39269e-06
992 23 0.001 0.0298388 -0.000964637 -0.0405213 -0.0210246 0.00394087 0.00607208 0 6.39269e-06
993 23 0.001 0.0299969 -8.92691e-05 -0.0400474 -0.019392 0.000735597 -0.000318485 0 6.39269e-06
1242 26 0.001 0.0498388 -0.000964637 -0.0405213 -0.0210246 0.00394084 0.00607215 0 6.39269e-06
1243 26 0.001 0.0499969 -8.92691e-05 -0.0400474 -0.019392 0.000735618 -0.000318524 0 6.39269e-06
34 13 0.001 -0.0501088 0.000793956 -0.0395735 -0.0188044 -0.00516798 8.08208e-06 0 6.39269e-06
244 14 0.001 -0.0301088 0.000793956 -0.0395735 -0.0188044 -0.00516799 8.09868e-06 0 6.39269e-06
494 17 0.001 -0.0101088 0.000793956 -0.0395735 -0.0188044 -0.00516801 8.13546e-06 0 6.39269e-06
744 20 0.001 0.00989122 0.000793956 -0.0395735 -0.0188044 -0.00516801 8.13219e-06 0 6.39269e-06
994 23 0.001 0.0298912 0.000793956 -0.0395735 -0.0188044 -0.00516798 8.07424e-06 0 6.39269e-06
1244 26 0.001 0.0498912 0.000793956 -0.0395735 -0.0188044 -0.00516798 8.08208e-06 0 6.39269e-06
36 13 0.001 -0.0510519 0.00227916 -0.0386256 -0.0126692 -0.0148224 -1.20737e-07 0 6.39269e-06
35 13 0.001 -0.050469 0.0016073 -0.0390995 -0.0164604 -0.0104531 1.31165e-07 0 6.39269e-06
245 14 0.001 -0.030469 0.0016073 -0.0390995 -0.0164605 -0.0104531 1.08198e-07 0 6.39269e-06
246 14 0.001 -0.0310519 0.00227916 -0.0386256 -0.0126692 -0.0148225 -8.96189e-08 0 6.39269e-06
496 17 0.001 -0.0110519 0.00227916 -0.0386256 -0.0126691 -0.0148225 -1.30515e-08 0 6.39269e-06
495 17 0.001 -0.010469 0.0016073 -0.0390995 -0.0164605 -0.010453 4.67305e-08 0 6.39269e-06
746 20 0.001 0.00894806 0.00227916 -0.0386256 -0.0126691 -0.0148225 -1.64946e-08 0 6.39269e-06
745 20 0.001 0.00953103 0.0016073 -0.0390995 -0.0164605 -0.010453 4.9518e-08 0 6.39269e-06
995 23 0.001 0.029531 0.0016073 -0.0390995 -0.0164605 -0.0104531 1.07372e-07 0 6.39269e-06
996 23 0.001 0.0289481 0.00227916 -0.0386256 -0.0126692 -0.0148225 -7.04472e-08 0 6.39269e-06
1246 26 0.001 0.0489481 0.00227916 -0.0386256 -0.0126692 -0.0148224 -1.20737e-07 0 6.39269e-06
1245 26 0.001 0.049531 0.0016073 -0.0390995 -0.0164604 -0.0104531 1.31165e-07 0 6.39269e-06
38 13 0.001 -0.0526659 0.00297958 -0.0376777 -0.00217293 -0.0193776 -6.17893e-08 0 6.39269e-06
39 13 0.001 -0.0535548 0.00294647 -0.0372038 0.00360813 -0.0191623 1.97203e-08 0 6.39269e-06
37 13 0.001 -0.0518064 0.00275042 -0.0381517 -0.00776261 -0.0178873 9.68235e-08 0 6.39269e-06
249 14 0.001 -0.0335548 0.00294647 -0.0372038 0.00360811 -0.0191623 -2.72952e-08 0 6.39269e-06
247 14 0.001 -0.0318064 0.00275042 -0.0381517 -0.00776263 -0.0178873 5.75014e-08 0 6.39269e-06
248 14 0.001 -0.0326659 0.00297958 -0.0376777 -0.00217291 -0.0193776 -1.64961e-08 0 6.39269e-06
499 17 0.001 -0.0135548 0.00294647 -0.0372038 0.00360807 -0.0191623 -8.95944e-08 0 6.39269e-06
498 17 0.001 -0.0126659 0.00297958 -0.0376777 -0.00217287 -0.0193776 5.85013e-08 0 6.39269e-06
497 17 0.001 -0.0118064 0.00275042 -0.0381517 -0.00776267 -0.0178873 -2.32083e-08 0 6.39269e-06
748 20 0.001 0.00733411 0.00297958 -0.0376777 -0.00217287 -0.0193776 5.22514e-08 0 6.39269e-06
749 20 0.001 0.0064452 0.00294647 -0.0372038 0.00360808 -0.0191623 -8.20999e-08 0 6.39269e-06
747 20 0.001 0.00819362 0.00275042 -0.0381517 -0.00776267 -0.0178873 -1.8456e-08 0 6.39269e-06
999 23 0.001 0.0264452 0.00294647 -0.0372038 0.0036081 -0.0191623 -4.83909e-08 0 6.39269e-06
997 23 0.001 0.0281936 0.00275042 -0.0381517 -0.00776264 -0.0178873 2.93086e-08 0 6.39269e-06
998 23 0.001 0.0273341 0.00297958 -0.0376777 -0.00217289 -0.0193776 1.16029e-08 0 6.39269e-06
1249 26 0.001 0.0464452 0.00294647 -0.0372038 0.00360813 -0.0191623 1.97203e-08 0 6.39269e-06
1248 26 0.001 0.0473341 0.00297958 -0.0376777 -0.00217293 -0.0193776 -6.17893e-08 0 6.39269e-06
1247 26 0.001 0.0481936 0.00275042 -0.0381517 -0.00776261 -0.0178873 9.68235e-08 0 6.39269e-06
42 13 0.001 -0.0556436 0.0014146 -0.035782 0.0171924 -0.00919974 1.01975e-07 0 6.39269e-06
252 14 0.001 -0.0356436 0.0014146 -0.035782 0.0171924 -0.00919973 1.22901e-07 0 6.39269e-06
502 17 0.001 -0.0156436 0.0014146 -0.035782 0.0171924 -0.00919973 1.39124e-07 0 6.39269e-06
752 20 0.001 0.00435644 0.0014146 -0.035782 0.0171924 -0.00919973 1.32526e-07 0 6.39269e-06
1002 23 0.001 0.0243564 0.0014146 -0.035782 0.0171924 -0.00919974 1.12377e-07 0 6.39269e-06
1252 26 0.001 0.0443564 0.0014146 -0.035782 0.0171924 -0.00919974 1.01975e-07 0 6.39269e-06
40 13 0.001 -0.0543949 0.00265402 -0.0367299 0.00907156 -0.0172604 2.44824e-08 0 6.39269e-06
41 13 0.001 -0.0551122 0.00212796 -0.0362559 0.0137365 -0.0138392 -6.61905e-08 0 6.39269e-06
251 14 0.001 -0.0351122 0.00212796 -0.0362559 0.0137365 -0.0138392 -1.00572e-07 0 6.39269e-06
250 14 0.001 -0.0343949 0.00265402 -0.0367299 0.00907158 -0.0172603 6.78598e-08 0 6.39269e-06
501 17 0.001 -0.0151122 0.00212796 -0.0362559 0.0137365 -0.0138392 -1.3063e-07 0 6.39269e-06
500 17 0.001 -0.0143949 0.00265402 -0.0367299 0.0090716 -0.0172603 1.14071e-07 0 6.39269e-06
750 20 0.001 0.00560512 0.00265402 -0.0367299 0.0090716 -0.0172603 1.05971e-07 0 6.39269e-06
751 20 0.001 0.00488782 0.00212796 -0.0362559 0.0137365 -0.0138392 -1.22818e-07 0 6.39269e-06
1001 23 0.001 0.0248878 0.00212796 -0.0362559 0.0137365 -0.0138392 -9.95961e-08 0 6.39269e-06
1000 23 0.001 0.0256051 0.00265402 -0.0367299 0.00907158 -0.0172603 7.82187e-08 0 6.39269e-06
1251 26 0.001 0.0448878 0.00212796 -0.0362559 0.0137365 -0.0138392 -6.61905e-08 0 6.39269e-06
1250 26 0.001 0.0456051 0.00265402 -0.0367299 0.00907156 -0.0172604 2.44824e-08 0 6.39269e-06
44 13 0.001 -0.055982 -0.000311923 -0.0348341 0.0193932 0.00202866 1.50418e-07 0 6.39269e-06
45 13 0.001 -0.0557592 -0.00117311 -0.0343602 0.0179446 0.0076292 -1.63913e-07 0 6.39269e-06
254 14 0.001 -0.035982 -0.000311923 -0.0348341 0.0193932 0.00202865 1.36463e-07 0 6.39269e-06
255 14 0.001 -0.0357592 -0.00117311 -0.0343602 0.0179446 0.00762922 -1.31188e-07 0 6.39269e-06
504 17 0.001 -0.015982 -0.000311923 -0.0348341 0.0193932 0.00202865 1.35799e-07 0 6.39269e-06
505 17 0.001 -0.0157592 -0.00117311 -0.0343602 0.0179446 0.00762922 -1.27169e-07 0 6.39269e-06
754 20 0.001 0.00401802 -0.000311923 -0.0348341 0.0193932 0.00202865 1.33323e-07 0 6.39269e-06
755 20 0.001 0.00424077 -0.00117311 -0.0343602 0.0179446 0.00762922 -1.267e-07 0 6.39269e-06
1004 23 0.001 0.024018 -0.000311923 -0.0348341 0.0193932 0.00202864 1.16494e-07 0 6.39269e-06
1005 23 0.001 0.0242408 -0.00117311 -0.0343602 0.0179446 0.00762923 -1.11188e-07 0 6.39269e-06
1254 26 0.001 0.044018 -0.000311923 -0.0348341 0.0193932 0.00202866 1.50418e-07 0 6.39269e-06
1255 26 0.001 0.0442408 -0.00117311 -0.0343602 0.0179446 0.0076292 -1.63913e-07 0 6.39269e-06
43 13 0.001 -0.0559423 0.000576718 -0.0353081 0.0191349 -0.00375074 -1.30092e-07 0 6.39269e-06
253 14 0.001 -0.0359423 0.000576718 -0.0353081 0.0191349 -0.00375074 -1.34445e-07 0 6.39269e-06
503 17 0.001 -0.0159423 0.000576718 -0.0353081 0.0191349 -0.00375075 -1.40364e-07 0 6.39269e-06
753 20 0.001 0.00405774 0.000576718 -0.0353081 0.0191349 -0.00375074 -1.35685e-07 0 6.39269e-06
1003 23 0.001 0.0240577 0.000576718 -0.0353081 0.0191349 -0.00375073 -1.17486e-07 0 6.39269e-06
1253 26 0.001 0.0440577 0.000576718 -0.0353081 0.0191349 -0.00375074 -1.30092e-07 0 6.39269e-06
46 13 0.001 -0.0552936 -0.00193104 -0.0338863 0.0149163 0.0125585 1.71877e-07 0 6.39269e-06
47 13 0.001 -0.0546261 -0.00251899 -0.0334123 0.0105753 0.0163822 -1.75271e-07 0 6.39269e-06
48 13 0.001 -0.0538155 -0.00288523 -0.0329384 0.00530322 0.018764 1.74327e-07 0 6.39269e-06
49 13 0.001 -0.052933 -0.0029975 -0.0324645 -0.000435359 0.0194942 -1.68536e-07 0 6.39269e-06
256 14 0.001 -0.0352936 -0.00193104 -0.0338863 0.0149163 0.0125585 1.21173e-07 0 6.39269e-06
257 14 0.001 -0.0346261 -0.00251899 -0.0334123 0.0105753 0.0163822 -1.08778e-07 0 6.39269e-06
258 14 0.001 -0.0338155 -0.00288523 -0.0329384 0.00530326 0.018764 9.58321e-08 0 6.39269e-06
259 14 0.001 -0.032933 -0.0029975 -0.0324645 -0.000435404 0.0194942 -8.34374e-08 0 6.39269e-06
506 17 0.001 -0.0152936 -0.00193104 -0.0338863 0.0149164 0.0125585 1.16221e-07 0 6.39269e-06
507 17 0.001 -0.0146261 -0.00251899 -0.0334123 0.0105753 0.0163822 -1.04472e-07 0 6.39269e-06
508 17 0.001 -0.0138155 -0.00288523 -0.0329384 0.00530326 0.018764 9.30212e-08 0 6.39269e-06
509 17 0.001 -0.012933 -0.0029975 -0.0324645 -0.000435404 0.0194942 -8.24054e-08 0 6.39269e-06
756 20 0.001 0.0047064 -0.00193104 -0.0338863 0.0149164 0.0125585 1.17165e-07 0 6.39269e-06
757 20 0.001 0.00537391 -0.00251899 -0.0334123 0.0105753 0.0163822 -1.06035e-07 0 6.39269e-06
758 20 0.001 0.00618454 -0.00288523 -0.0329384 0.00530326 0.018764 9.44348e-08 0 6.39269e-06
759 20 0.001 0.00706696 -0.0029975 -0.0324645 -0.000435404 0.0194942 -8.31062e-08 0 6.39269e-06
1006 23 0.001 0.0247064 -0.00193104 -0.0338863 0.0149164 0.0125585 1.0325e-07 0 6.39269e-06
1007 23 0.001 0.0253739 -0.00251899 -0.0334123 0.0105753 0.0163822 -9.40678e-08 0 6.39269e-06
1008 23 0.001 0.0261845 -0.00288523 -0.0329384 0.00530327 0.018764 8.46342e-08 0 6.39269e-06
1009 23 0.001 0.027067 -0.0029975 -0.0324645 -0.000435408 0.0194942 -7.54783e-08 0 6.39269e-06
1256 26 0.001 0.0447064 -0.00193104 -0.0338863 0.0149163 0.0125585 1.71877e-07 0 6.39269e-06
1257 26 0.001 0.0453739 -0.00251899 -0.0334123 0.0105753 0.0163822 -1.75271e-07 0 6.39269e-06
1258 26 0.001 0.0461845 -0.00288523 -0.0329384 0.00530322 0.018764 1.74327e-07 0 6.39269e-06
1259 26 0.001 0.047067 -0.0029975 -0.0324645 -0.000435359 0.0194942 -1.68536e-07 0 6.39269e-06
50 13 0.001 -0.0520565 -0.00284594 -0.0319905 -0.00613596 0.0185085 1.56992e-07 0 6.39269e-06
51 13 0.001 -0.051263 -0.00244387 -0.0315166 -0.0112962 0.0158937 -1.38931e-07 0 6.39269e-06
52 13 0.001 -0.0506225 -0.0018267 -0.0310427 -0.0154623 0.0118798 1.14263e-07 0 6.39269e-06
260 14 0.001 -0.0320565 -0.00284594 -0.0319905 -0.00613591 0.0185085 7.19143e-08 0 6.39269e-06
261 14 0.001 -0.031263 -0.00244387 -0.0315166 -0.0112962 0.0158937 -6.09127e-08 0 6.39269e-06