ITEM: TIMESTEP
12
ITEM: NUMBER OF ATOMS
1472
ITEM: BOX BOUNDS ff ff ff
-6.0000000000000005e-02 6.0000000000000005e-02
-6.0000000000000001e-03 6.0000000000000001e-03
-5.5000000000000000e-02 5.5000000000000000e-02
ITEM: ATOMS id type radius x y z fx fy fz c_bendingE c_stretchingE
1 1 0.001 -0.0495772 0.000250482 -0.0519442 -6.86709 -6.59429 29.2352 0 0.0155589
13 13 0.001 -0.0494438 -0.000413554 -0.04854 -6.80218 21.715 -17.1695 0 0.025229
433 15 0.001 -0.0506307 0.000364896 -0.0499411 21.4361 0.249207 -4.22293 0 0.0147716
434 15 0.001 -0.047389 0.000205723 -0.048964 -7.9336 -6.72797 -29.5093 0 0.0304629
435 15 0.001 -0.0476289 -0.00057438 -0.0529603 8.01604 15.346 44.4869 0 0.0421522
436 15 0.001 -0.0458774 0.000336935 -0.0490226 -1.52966 -11.288 -17.7432 0 0.0316606
437 15 0.001 -0.0433285 -0.000291252 -0.0474693 -17.2267 12.7996 -40.8884 0 0.0555981
438 15 0.001 -0.0438323 0.000310093 -0.0532821 7.24076 -11.9188 81.6557 0 0.109052
439 15 0.001 -0.043385 -0.0002858 -0.0467419 7.11613 3.05631 -83.7836 0 0.115266
440 15 0.001 -0.0428732 0.000107 -0.0528862 5.39427 -12.2983 66.3317 0 0.0831681
441 15 0.001 -0.0424494 -0.00155121 -0.0483299 5.83831 34.0333 -29.0485 0 0.0599312
442 15 0.001 -0.0399864 0.00256964 -0.0492237 -6.01498 -40.8484 -13.2688 0 0.0586748
443 15 0.001 -0.0384375 -0.000400833 -0.0526393 -22.836 18.5013 57.1131 0 0.0817202
444 15 0.001 -0.0396768 -0.000893245 -0.0466165 11.2812 15.6122 -85.6739 0 0.123991
445 15 0.001 -0.0390185 0.000748563 -0.0533609 7.27992 -20.7118 72.1555 0 0.102005
446 15 0.001 -0.0359815 -0.000190465 -0.0495645 8.8265 8.90856 -29.6247 0 0.0396288
447 15 0.001 -0.0336486 -0.00058832 -0.0476414 -27.6105 5.79963 -30.2086 0 0.0443295
448 15 0.001 -0.0341901 0.000696062 -0.0526938 -1.74569 -17.3576 67.9874 0 0.0794617
449 15 0.001 -0.0345157 -0.000733322 -0.047206 3.39456 20.0319 -71.2763 0 0.0877901
450 15 0.001 -0.0347729 0.000768233 -0.0527098 25.828 -24.6687 28.714 0 0.0512236
451 15 0.001 -0.0328232 2.14059e-07 -0.0507549 -19.5892 21.0105 33.8667 0 0.024892
223 14 0.001 -0.0290131 -0.000287925 -0.0488856 2.56698 33.5883 71.46 0 0.0158908
452 15 0.001 -0.0306162 -0.000378097 -0.0474586 7.35927 -8.99062 -33.4831 0 0.022908
3 3 0.001 -0.0285992 -0.000159613 -0.0490483 -36.8553 -8.31347 -77.9847 0 0.0166442
683 18 0.001 -0.0305265 0.000208759 -0.0517575 26.8844 -5.0077 40.2646 0 0.039909
684 18 0.001 -0.0279302 -6.66481e-05 -0.047728 -9.36928 -1.64675 -57.9596 0 0.0664354
685 18 0.001 -0.0273939 0.000101826 -0.0530419 1.16637 1.6044 56.4525 0 0.0572166
686 18 0.001 -0.0256542 4.42371e-05 -0.0492954 9.32348 -6.6304 -22.1472 0 0.0269758
687 18 0.001 -0.0235502 -0.000424858 -0.0473454 -10.4816 12.7771 -40.668 0 0.0586373
688 18 0.001 -0.0239295 0.000516775 -0.0533375 6.69401 -15.0999 83.9404 0 0.117866
689 18 0.001 -0.0232247 -0.000437498 -0.0466531 -4.13974 5.80731 -86.3982 0 0.125091
690 18 0.001 -0.022804 9.28935e-05 -0.0530424 2.21188 -13.6687 70.3775 0 0.0885933
691 18 0.001 -0.02285 -0.00129661 -0.0483616 12.9701 30.9002 -29.3543 0 0.058965
692 18 0.001 -0.0195043 0.0021092 -0.0488958 -12.0464 -34.5431 -18.493 0 0.0553908
693 18 0.001 -0.0186158 -0.000212405 -0.0528177 -16.7152 15.537 61.9984 0 0.0820719
694 18 0.001 -0.0196717 -0.000819981 -0.0466509 11.1641 16.9594 -86.5157 0 0.126331
695 18 0.001 -0.0189698 0.00077998 -0.0533972 6.16971 -20.458 71.3793 0 0.102006
696 18 0.001 -0.0161181 -0.000223648 -0.0494686 7.44949 8.29701 -29.2058 0 0.0402669
697 18 0.001 -0.0135907 -0.000585622 -0.0476829 -27.1126 6.54207 -29.6155 0 0.0442653
698 18 0.001 -0.0141561 0.000706219 -0.0526925 -2.51369 -17.4667 67.539 0 0.0789778
699 18 0.001 -0.0145701 -0.000712163 -0.0472006 4.16201 19.5917 -70.9321 0 0.0870824
700 18 0.001 -0.0148289 0.000761243 -0.0526651 27.2067 -20.7338 26.7889 0 0.0505934
701 18 0.001 -0.0127244 -1.58797e-05 -0.0508376 -21.723 15.1021 35.8854 0 0.0256198
702 18 0.001 -0.0105921 -0.000380751 -0.0474393 8.62946 -6.67497 -33.4403 0 0.0232374
5 5 0.001 -0.00861897 -8.04645e-05 -0.0490217 -36.3975 3.63351 -76.9957 0 0.016436
473 17 0.001 -0.0090282 -0.00028581 -0.04889 -0.77814 18.826 69.2252 0 0.0157031
933 21 0.001 -0.0105322 0.000194961 -0.0517529 26.9283 -4.12826 40.2362 0 0.0395596
934 21 0.001 -0.00796224 -6.52116e-05 -0.0477338 -11.078 0.213383 -57.8278 0 0.0644725
935 21 0.001 -0.0074538 0.000187031 -0.0529523 0.172621 -0.477012 57.4498 0 0.054472
936 21 0.001 -0.00546701 -8.26934e-05 -0.0494472 15.7422 -5.19756 -23.9539 0 0.0254286
937 21 0.001 -0.00364901 -0.000387826 -0.0472704 -14.0994 11.5858 -40.8693 0 0.0596222
938 21 0.001 -0.00397055 0.000584059 -0.0533308 6.46682 -13.5813 84.7015 0 0.119904
939 21 0.001 -0.00312155 -0.000429282 -0.0466432 -11.5374 14.768 -85.6637 0 0.123877
940 21 0.001 -0.00308195 0.000291649 -0.0529397 -1.31736 -5.74002 74.059 0 0.0894161
941 21 0.001 -0.00337806 -2.34548e-05 -0.0479048 17.8628 -3.38845 -32.5462 0 0.0434646
942 21 0.001 -0.000276053 -0.000212865 -0.04903 3.47692 2.80004 -27.0357 0 0.0497688
943 21 0.001 0.00250729 5.04804e-05 -0.0536833 -26.1797 -2.21883 75.8465 0 0.113787
944 21 0.001 0.00117714 -1.0421e-06 -0.0466748 -2.14604 0.773129 -74.5191 0 0.0966047
945 21 0.001 0.000139105 3.41435e-05 -0.050856 26.8674 -1.1234 17.6479 0 0.0386715
946 21 0.001 0.0037459 -4.70057e-05 -0.0523209 1.82147 1.4916 40.5691 0 0.0568276
947 21 0.001 0.00453508 8.74112e-05 -0.0468959 2.13726 -2.00546 -69.5363 0 0.0837515
948 21 0.001 0.00454647 -3.43262e-05 -0.05258 4.32533 0.893588 61.9197 0 0.0762125
949 21 0.001 0.00590909 3.60301e-06 -0.0477307 15.1232 -0.0209846 -32.6188 0 0.0490433
950 21 0.001 0.0072496 1.7515e-06 -0.0513637 15.23 0.319641 -3.99317 0 0.0182022
951 21 0.001 0.00782936 4.55887e-06 -0.0495607 -50.5242 -0.179023 12.2628 0 0.00402905
7 7 0.001 0.01 0 -0.05 29.4817 1.31298 -0.664336 0 0.00527102
723 20 0.001 0.0111953 -0.000366953 -0.0477993 -19.9947 18.0993 -12.6436 0 0.0214533
952 21 0.001 0.00972605 -6.57801e-06 -0.0503903 -30.0327 -1.40438 9.01668 0 0.0028537
1183 24 0.001 0.0106786 5.43214e-06 -0.0492075 1.71618 -0.170525 0.138578 0 0.000847195
1184 24 0.001 0.0120706 -9.85641e-07 -0.0500483 34.3664 0.0968193 13.9556 0 0.00126089
1185 24 0.001 0.0126149 -2.83732e-06 -0.0513796 -9.89574 -0.000441382 -3.60858 0 0.00889384
1186 24 0.001 0.0134648 1.604e-06 -0.0484521 -9.19363 -0.0172821 -0.0832234 0 0.0127422
1187 24 0.001 0.0154634 -1.4041e-06 -0.0498648 7.44617 -0.0255947 -3.15519 0 0.00547151
1188 24 0.001 0.0161605 3.45669e-06 -0.0514751 29.1632 0.102627 7.18776 0 0.00815169
1189 24 0.001 0.0162798 -8.35129e-06 -0.0486241 -5.25712 -0.11296 0.880647 0 0.0120955
1190 24 0.001 0.0175097 1.2189e-05 -0.050904 -12.2954 0.116518 -27.7835 0 0.0108093
1191 24 0.001 0.0191866 -3.20974e-06 -0.0488253 3.56431 -0.0309478 6.68122 0 0.0171241
1192 24 0.001 0.0200977 -1.29956e-05 -0.052087 -17.5077 0.194972 37.3875 0 0.0441845
1193 24 0.001 0.0206321 2.54262e-05 -0.0470645 -11.0184 -0.609115 -72.4374 0 0.0939862
1194 24 0.001 0.0212201 -3.27408e-05 -0.0535894 -0.0712287 0.829728 92.6958 0 0.14314
1195 24 0.001 0.0217822 3.42368e-05 -0.0461887 3.02458 -0.843925 -94.5243 0 0.149547
1196 24 0.001 0.0224778 -2.71826e-05 -0.0529891 13.0537 0.644511 69.315 0 0.106106
1197 24 0.001 0.0246636 1.55558e-05 -0.0480597 2.94056 -0.453406 -49.6732 0 0.0550236
1198 24 0.001 0.0244176 -1.02624e-05 -0.0519283 8.33604 0.255978 34.7542 0 0.0357237
1199 24 0.001 0.0259476 9.35789e-06 -0.0481332 3.827 -0.0184857 -7.29088 0 0.0275521
1200 24 0.001 0.0271891 -1.11141e-05 -0.0509096 -33.7799 -0.430346 -7.83576 0 0.00867942
1201 24 0.001 0.0280163 8.15421e-06 -0.0498535 -14.8402 0.0976811 -34.2738 0 0.0016081
9 9 0.001 0.03 0 -0.05 61.1399 29.3063 -12.7177 0 0.00548007
973 23 0.001 0.0311953 -0.000366953 -0.0477993 -19.9947 18.0993 -12.6436 0 0.0214533
1202 24 0.001 0.029762 -1.55784e-06 -0.050292 -50.6154 1.36494 77.4946 0 0.00204749
1433 27 0.001 0.0306811 -0.000306304 -0.049426 -7.12609 -39.1059 -31.8844 0 0.000437865
1434 27 0.001 0.031889 -0.000151421 -0.050202 35.5978 -4.78115 70.8024 0 0.000475929
1435 27 0.001 0.0324131 0.000835496 -0.0502226 -18.6392 15.4228 -60.1448 0 0.0016207
1436 27 0.001 0.0336908 -0.000510613 -0.0504516 -19.6675 13.6738 22.4922 0 0.002933
1437 27 0.001 0.0350097 -0.000227608 -0.0492546 21.0003 -24.4759 -57.1764 0 0.00135529
1438 27 0.001 0.0358928 7.54157e-05 -0.0490506 -7.76123 -0.610129 31.4012 0 0.00475083
1439 27 0.001 0.03679 -0.000199333 -0.0513973 8.05539 9.18411 18.9675 0 0.00989142
1440 27 0.001 0.0391946 0.00072176 -0.0511149 -9.83635 -12.7712 24.4157 0 0.0367538
1441 27 0.001 0.0372422 -0.000797925 -0.0467919 29.0606 11.5566 -47.5238 0 0.0611317
1442 27 0.001 0.0402218 4.94403e-05 -0.0505187 -26.0348 12.247 1.4189 0 0.0374103
1443 27 0.001 0.0420313 0.000645739 -0.0528051 -10.6992 -19.9894 54.3884 0 0.0656768
1444 27 0.001 0.0412338 -0.000736589 -0.0466163 13.323 20.2689 -91.7992 0 0.141665
1445 27 0.001 0.0410847 0.000885449 -0.0539378 10.1239 -20.0612 89.2302 0 0.140151
1446 27 0.001 0.0419785 -0.000491193 -0.0478348 14.191 10.366 -44.7469 0 0.0918174
1447 27 0.001 0.0471128 -0.000272648 -0.0487673 -40.3768 3.96622 -17.4572 0 0.0553717
1448 27 0.001 0.0462523 0.000638983 -0.0527208 -7.17431 -13.8737 57.5736 0 0.0639742
1449 27 0.001 0.0452306 -0.000615441 -0.0472457 9.41985 16.2803 -68.0423 0 0.0827486
1450 27 0.001 0.0450332 0.00054771 -0.052517 20.616 -8.68942 40.2184 0 0.0471779
1451 27 0.001 0.0476399 2.92256e-05 -0.0509976 -4.70532 2.87151 10.9777 0 0.0215267
1452 27 0.001 0.0493096 -0.000181537 -0.0478846 -1.45102 11.2064 -16.255 0 0.0130332
11 11 0.001 0.0487821 0.000134479 -0.048349 -4.86762 -1.75208 -18.1713 0 0.00294521
1223 26 0.001 0.0506645 -0.000290705 -0.0493629 -11.1567 13.5136 10.3784 0 0.0174244
14 13 0.001 -0.0508345 0.00282878 -0.0482554 2.43191 -25.8029 -16.2374 0 0.0227696
224 14 0.001 -0.0311934 0.00270793 -0.0481978 4.76192 -22.8935 -19.5684 0 0.0256936
474 17 0.001 -0.0111828 0.00270837 -0.0481944 5.50621 -21.7953 -18.3202 0 0.0255452
724 20 0.001 0.00875744 0.00264652 -0.0480611 14.5765 -20.8088 -17.2156 0 0.0279594
974 23 0.001 0.0287574 0.00264652 -0.0480611 14.5765 -20.8088 -17.2156 0 0.0279594
1224 26 0.001 0.0488389 0.00270293 -0.0482013 10.5011 -20.2702 -14.3756 0 0.0249206
17 13 0.001 -0.0517846 0.00417565 -0.04762 -7.54726 -15.7086 -11.6529 0 0.0248061
15 13 0.001 -0.0514976 0.00142926 -0.0510635 19.3249 12.9822 40.1469 0 0.0359207
16 13 0.001 -0.0492245 0.00226939 -0.0471355 -25.0034 8.89222 -19.5742 0 0.0361116
226 14 0.001 -0.0292815 0.00236834 -0.0470853 -22.7943 8.61423 -20.8952 0 0.0363058
227 14 0.001 -0.031824 0.00412089 -0.0476248 -8.92372 -17.3547 -10.9864 0 0.0240256
225 14 0.001 -0.0312588 0.00157558 -0.0512581 20.3335 12.3187 43.3396 0 0.0374359
477 17 0.001 -0.0118219 0.00412012 -0.0476252 -8.87606 -17.2897 -11.0131 0 0.0240371
475 17 0.001 -0.0112669 0.00157324 -0.0512547 21.3185 12.2474 43.2673 0 0.0374577
476 17 0.001 -0.00927684 0.00236693 -0.0470874 -22.9157 8.59219 -20.851 0 0.0363341
727 20 0.001 0.00890412 0.00430525 -0.0459361 -20.3168 -4.89063 -35.8979 0 0.0615002
725 20 0.001 0.00853234 0.00161528 -0.0512589 10.9929 5.11893 42.1018 0 0.0325262
726 20 0.001 0.0105502 0.00178255 -0.0475117 -24.7475 6.08212 -9.20864 0 0.0328288
976 23 0.001 0.0305502 0.00178255 -0.0475117 -24.7475 6.08212 -9.20864 0 0.0328288
977 23 0.001 0.0289041 0.00430525 -0.0459361 -20.3168 -4.89063 -35.8979 0 0.0615002
975 23 0.001 0.0285323 0.00161528 -0.0512589 10.9929 5.11893 42.1018 0 0.0325262
1227 26 0.001 0.0481696 0.00411676 -0.0476288 -8.85078 -17.3414 -11.3683 0 0.0244351
1225 26 0.001 0.0487444 0.00157772 -0.051268 6.80012 1.02643 47.9297 0 0.0376464
1226 26 0.001 0.0507187 0.00234802 -0.0470764 -22.9507 8.82739 -20.9938 0 0.0366212
19 13 0.001 -0.05648 0.00106503 -0.045706 17.8083 17.4102 -7.18232 0 0.0340101
20 13 0.001 -0.0555016 0.000694249 -0.0429032 -5.16272 1.76654 -49.0879 0 0.0471184
18 13 0.001 -0.055279 0.0041777 -0.0488841 14.1699 -16.9525 25.2522 0 0.0407984
230 14 0.001 -0.035506 0.000683554 -0.0428967 -5.09994 1.97536 -48.8962 0 0.0469319
228 14 0.001 -0.0353132 0.00415379 -0.0489119 14.4786 -16.1684 25.4052 0 0.0407613
229 14 0.001 -0.0364598 0.00109711 -0.0456673 17.1885 16.6764 -7.50433 0 0.0336828
480 17 0.001 -0.0155059 0.000684487 -0.0428972 -5.10141 1.95496 -48.9097 0 0.0469444
478 17 0.001 -0.0153111 0.00415546 -0.0489105 14.4553 -16.2243 25.3961 0 0.0407589
479 17 0.001 -0.0164618 0.0010957 -0.0456698 17.2254 16.7382 -7.47144 0 0.0337053
729 20 0.001 0.0033051 0.000359275 -0.0457863 22.4681 35.5324 -18.1632 0 0.0629842
730 20 0.001 0.00463912 0.000997923 -0.0429806 -5.37078 -3.09703 -48.0889 0 0.0478474
728 20 0.001 0.00453027 0.00467989 -0.0500396 21.3115 -28.7835 52.5224 0 0.103398
980 23 0.001 0.0246391 0.000997923 -0.0429806 -5.37078 -3.09703 -48.0889 0 0.0478474
978 23 0.001 0.0245303 0.00467989 -0.0500396 21.3115 -28.7835 52.5224 0 0.103398
979 23 0.001 0.0233051 0.000359275 -0.0457863 22.4681 35.5324 -18.1632 0 0.0629842
1230 26 0.001 0.0444949 0.000670007 -0.0428915 -5.04161 2.17742 -48.7781 0 0.0467927
1228 26 0.001 0.0446678 0.00416098 -0.0489521 14.7591 -16.2056 26.1118 0 0.0414803
1229 26 0.001 0.0435708 0.00111157 -0.0456393 16.6704 16.2165 -8.02851 0 0.0339277
23 13 0.001 -0.0544613 -0.00023339 -0.042022 -13.0708 -6.82942 -56.6482 0 0.0777857
233 14 0.001 -0.0344613 -0.000234045 -0.0420229 -13.0696 -6.8192 -56.6326 0 0.0777645
483 17 0.001 -0.0144613 -0.000234 -0.0420228 -13.0702 -6.81966 -56.6336 0 0.0777663
733 20 0.001 0.00554134 -0.000202199 -0.0419859 -13.2466 -7.45653 -57.3047 0 0.0785961
983 23 0.001 0.0255413 -0.000202199 -0.0419859 -13.2466 -7.45653 -57.3047 0 0.0785961
1233 26 0.001 0.0455388 -0.00023464 -0.0420235 -13.055 -6.81552 -56.6215 0 0.0777389
21 13 0.001 -0.0561713 0.0010271 -0.048282 4.22664 5.57294 44.5947 0 0.0441923
22 13 0.001 -0.0553802 0.00222694 -0.0461372 -2.0681 -21.6084 16.7456 0 0.0351551
231 14 0.001 -0.0361738 0.00101975 -0.0482796 4.53294 5.8917 44.6939 0 0.0442821
232 14 0.001 -0.0353792 0.00222787 -0.0461369 -2.06868 -21.5061 16.654 0 0.0351695
481 17 0.001 -0.0161736 0.00102023 -0.0482797 4.51551 5.87602 44.6863 0 0.0442758
482 17 0.001 -0.0153793 0.00222784 -0.0461369 -2.07163 -21.5129 16.6609 0 0.0351689
731 20 0.001 0.00387342 0.00106397 -0.0483123 5.34899 2.77333 41.6568 0 0.0431064
732 20 0.001 0.00457234 0.00217204 -0.0461478 -2.25745 -25.378 19.6412 0 0.0349364
981 23 0.001 0.0238734 0.00106397 -0.0483123 5.34899 2.77333 41.6568 0 0.0431064
982 23 0.001 0.0245723 0.00217204 -0.0461478 -2.25745 -25.378 19.6412 0 0.0349364
1231 26 0.001 0.0438232 0.00101422 -0.0482773 4.75559 6.07095 44.8058 0 0.0443659
1232 26 0.001 0.0446226 0.00222788 -0.0461367 -2.0055 -21.4139 16.557 0 0.0351724
25 13 0.001 -0.05488 -0.00141062 -0.0447836 -3.68235 -9.49777 20.1071 0 0.037415
26 13 0.001 -0.0546027 -0.000814552 -0.039988 -1.30935 -19.8813 -55.5711 0 0.0639035
235 14 0.001 -0.0348799 -0.00141075 -0.0447836 -3.68379 -9.49728 20.1082 0 0.037418
236 14 0.001 -0.0346026 -0.00081439 -0.039988 -1.31005 -19.8841 -55.5729 0 0.0639075
485 17 0.001 -0.0148799 -0.00141074 -0.0447836 -3.68375 -9.49733 20.1081 0 0.0374178
486 17 0.001 -0.0146026 -0.0008144 -0.039988 -1.31002 -19.884 -55.5728 0 0.0639073
735 20 0.001 0.00511441 -0.00140488 -0.0447828 -3.6226 -9.51634 20.0706 0 0.0372893
736 20 0.001 0.00539359 -0.000821478 -0.0399875 -1.276 -19.7607 -55.4947 0 0.0637353
985 23 0.001 0.0251144 -0.00140488 -0.0447828 -3.6226 -9.51634 20.0706 0 0.0372893
986 23 0.001 0.0253936 -0.000821478 -0.0399875 -1.276 -19.7607 -55.4947 0 0.0637353
1235 26 0.001 0.0451203 -0.00141087 -0.0447837 -3.68385 -9.49641 20.1089 0 0.0374206
1236 26 0.001 0.0453974 -0.00081427 -0.039988 -1.31034 -19.8864 -55.5745 0 0.0639107
24 13 0.001 -0.0560217 -0.00324999 -0.0468425 21.0109 26.9154 42.0649 0 0.0556989
234 14 0.001 -0.0360222 -0.0032504 -0.0468424 21.0089 26.9158 42.0591 0 0.0556858
484 17 0.001 -0.0160221 -0.00325038 -0.0468424 21.0092 26.9158 42.0594 0 0.0556867
734 20 0.001 0.00399597 -0.00323176 -0.0468475 21.0298 26.9233 42.3415 0 0.0563072
984 23 0.001 0.023996 -0.00323176 -0.0468475 21.0298 26.9233 42.3415 0 0.0563072
1234 26 0.001 0.0439774 -0.00325071 -0.0468423 21.0037 26.9156 42.0552 0 0.0556744
27 13 0.001 -0.0547043 -0.00297773 -0.0446695 6.85897 23.8716 30.6918 0 0.0454352
28 13 0.001 -0.051578 -0.00352821 -0.0436495 -12.5139 11.4684 23.983 0 0.0363626
29 13 0.001 -0.0529164 -0.00270922 -0.039362 17.457 11.1752 -18.809 0 0.0276087
30 13 0.001 -0.0521467 -0.0018577 -0.0410415 1.6795 -9.84491 -18.0205 0 0.0201145
237 14 0.001 -0.0347043 -0.0029777 -0.0446697 6.85902 23.8734 30.6933 0 0.0454383
238 14 0.001 -0.0315781 -0.00352823 -0.0436494 -12.5125 11.4681 23.9812 0 0.0363605
239 14 0.001 -0.0329164 -0.00270919 -0.039362 17.4565 11.1748 -18.8089 0 0.0276068
240 14 0.001 -0.0321467 -0.00185772 -0.0410415 1.67913 -9.84374 -18.019 0 0.0201144
487 17 0.001 -0.0147043 -0.00297771 -0.0446697 6.85902 23.8732 30.6932 0 0.0454381
488 17 0.001 -0.0115781 -0.00352823 -0.0436494 -12.5126 11.4682 23.9813 0 0.0363606
489 17 0.001 -0.0129164 -0.00270919 -0.039362 17.4565 11.1748 -18.8089 0 0.0276069
490 17 0.001 -0.0121467 -0.00185772 -0.0410415 1.67915 -9.84381 -18.019 0 0.0201144
737 20 0.001 0.00529489 -0.00297875 -0.0446624 6.85576 23.7981 30.6295 0 0.0453078
738 20 0.001 0.00842703 -0.00352743 -0.0436546 -12.5759 11.4791 24.0574 0 0.0364577
739 20 0.001 0.00708188 -0.00271021 -0.0393628 17.4812 11.1939 -18.8127 0 0.0276909
740 20 0.001 0.00785313 -0.00185718 -0.0410411 1.69432 -9.89512 -18.0844 0 0.020118
987 23 0.001 0.0252949 -0.00297875 -0.0446624 6.85576 23.7981 30.6295 0 0.0453078
988 23 0.001 0.028427 -0.00352743 -0.0436546 -12.5759 11.4791 24.0574 0 0.0364577
989 23 0.001 0.0270819 -0.00271021 -0.0393628 17.4812 11.1939 -18.8127 0 0.0276909
990 23 0.001 0.0278531 -0.00185718 -0.0410411 1.69432 -9.89512 -18.0844 0 0.020118
1237 26 0.001 0.0452957 -0.00297768 -0.0446698 6.85904 23.875 30.6943 0 0.0454406
1238 26 0.001 0.0484218 -0.00352824 -0.0436493 -12.5115 11.468 23.9799 0 0.0363589
1239 26 0.001 0.0470836 -0.00270918 -0.039362 17.4561 11.1744 -18.8089 0 0.0276054
1240 26 0.001 0.0478533 -0.00185772 -0.0410415 1.67889 -9.84287 -18.0179 0 0.0201144
31 13 0.001 -0.0490063 -0.0017487 -0.0434997 -21.812 0.934989 31.6972 0 0.0348318
241 14 0.001 -0.0290063 -0.00174869 -0.0434997 -21.8124 0.934417 31.6972 0 0.0348321
491 17 0.001 -0.00900633 -0.00174869 -0.0434997 -21.8123 0.934448 31.6972 0 0.0348321
741 20 0.001 0.0109935 -0.00174912 -0.0434997 -21.7985 0.958036 31.6979 0 0.0348164
991 23 0.001 0.0309935 -0.00174912 -0.0434997 -21.7985 0.958037 31.6979 0 0.0348164
1241 26 0.001 0.0509937 -0.00174868 -0.0434997 -21.8126 0.934032 31.6972 0 0.0348324
32 13 0.001 -0.0501586 -0.00167019 -0.0397679 2.85648 -5.73017 -15.5464 0 0.0179325
33 13 0.001 -0.0509586 -0.000269432 -0.0392699 -0.613154 14.1919 -0.389344 0 0.00615848
242 14 0.001 -0.0301586 -0.0016702 -0.0397679 2.85629 -5.73079 -15.5454 0 0.0179329
243 14 0.001 -0.0309586 -0.000269427 -0.0392699 -0.612573 14.192 -0.39087 0 0.00615837
492 17 0.001 -0.0101586 -0.0016702 -0.0397679 2.85632 -5.73075 -15.5455 0 0.0179329
493 17 0.001 -0.0109586 -0.000269427 -0.0392699 -0.612627 14.192 -0.390776 0 0.00615838
742 20 0.001 0.00984209 -0.00166964 -0.0397693 2.86625 -5.70184 -15.5901 0 0.0179163
743 20 0.001 0.00904126 -0.000269664 -0.0392686 -0.639235 14.1913 -0.322927 0 0.00616344
992 23 0.001 0.0298421 -0.00166964 -0.0397693 2.86624 -5.70185 -15.5901 0 0.0179163
993 23 0.001 0.0290413 -0.000269664 -0.0392686 -0.639216 14.1912 -0.322931 0 0.00616344
1242 26 0.001 0.0498414 -0.00167021 -0.0397678 2.85611 -5.73128 -15.5447 0 0.0179332
1243 26 0.001 0.0490414 -0.000269423 -0.0392699 -0.612117 14.192 -0.391997 0 0.00615828
34 13 0.001 -0.0496886 0.00158007 -0.0405688 3.79274 48.3264 -9.21955 0 0.005393
244 14 0.001 -0.0296886 0.00158008 -0.0405688 3.79794 48.3192 -9.21514 0 0.00539293
494 17 0.001 -0.00968857 0.00158008 -0.0405688 3.79782 48.3193 -9.21526 0 0.00539294
744 20 0.001 0.0103113 0.0015797 -0.0405687 3.57011 48.6307 -9.40834 0 0.00539605
994 23 0.001 0.0303113 0.0015797 -0.0405687 3.56982 48.6311 -9.40857 0 0.00539605
1244 26 0.001 0.0503114 0.00158008 -0.0405688 3.80157 48.3142 -9.21204 0 0.00539288
36 13 0.001 -0.0512025 0.00178617 -0.0375012 20.5877 23.7586 8.521 0 0.00323487
35 13 0.001 -0.050226 0.00170676 -0.0393679 -32.2363 -82.3347 -1.28948 0 0.00276947
245 14 0.001 -0.0302259 0.00170675 -0.0393679 -32.2455 -82.3223 -1.29598 0 0.00276947
246 14 0.001 -0.0312025 0.00178617 -0.0375012 20.5915 23.7539 8.52315 0 0.00323486
496 17 0.001 -0.0112025 0.00178617 -0.0375012 20.5912 23.754 8.52316 0 0.00323487
495 17 0.001 -0.0102259 0.00170675 -0.0393679 -32.2452 -82.3225 -1.29581 0 0.00276947
746 20 0.001 0.0087976 0.00178611 -0.0375012 20.4217 23.9561 8.43131 0 0.00323558
745 20 0.001 0.00977385 0.00170708 -0.0393683 -31.8426 -82.8595 -1.01151 0 0.00276983
995 23 0.001 0.0297739 0.00170708 -0.0393683 -31.8421 -82.8602 -1.01117 0 0.00276983
996 23 0.001 0.0287976 0.00178611 -0.0375012 20.4216 23.9564 8.43116 0 0.00323557
1246 26 0.001 0.0487975 0.00178617 -0.0375012 20.5943 23.7506 8.52458 0 0.00323484
1245 26 0.001 0.0497741 0.00170675 -0.0393679 -32.2519 -82.3137 -1.30054 0 0.00276946
38 13 0.001 -0.0530091 0.00324604 -0.0381505 21.3152 6.15406 5.58706 0 0.00085891
39 13 0.001 -0.0533221 0.00274371 -0.0367332 -15.2894 26.0843 -43.1583 0 0.000692356
37 13 0.001 -0.0517593 0.00292299 -0.0384333 -1.77874 -19.8323 -5.05547 0 0.000941223
249 14 0.001 -0.0333221 0.00274371 -0.0367332 -15.289 26.0836 -43.1575 0 0.000692364
247 14 0.001 -0.0317593 0.00292299 -0.0384333 -1.7787 -19.832 -5.05575 0 0.000941226
248 14 0.001 -0.0330091 0.00324604 -0.0381505 21.315 6.15394 5.58747 0 0.000858913
499 17 0.001 -0.0133221 0.00274371 -0.0367332 -15.2884 26.0825 -43.1568 0 0.000692374
498 17 0.001 -0.0130091 0.00324604 -0.0381505 21.3146 6.15412 5.58765 0 0.000858919
497 17 0.001 -0.0117593 0.00292299 -0.0384333 -1.77858 -19.832 -5.05603 0 0.000941233
748 20 0.001 0.00699084 0.00324604 -0.0381505 21.3131 6.1642 5.57433 0 0.00085894
749 20 0.001 0.00667787 0.00274374 -0.0367332 -15.2883 26.0873 -43.1673 0 0.000692326
747 20 0.001 0.00824072 0.00292291 -0.0384331 -1.77676 -19.8459 -5.05102 0 0.000941242
999 23 0.001 0.0266779 0.00274374 -0.0367332 -15.2888 26.0881 -43.1679 0 0.000692318
997 23 0.001 0.0282407 0.00292291 -0.0384331 -1.77685 -19.8459 -5.05081 0 0.000941238
998 23 0.001 0.0269908 0.00324604 -0.0381505 21.3134 6.16408 5.57418 0 0.000858935
1249 26 0.001 0.0466779 0.00274371 -0.0367332 -15.2894 26.0841 -43.1579 0 0.000692358
1248 26 0.001 0.0469909 0.00324604 -0.0381505 21.3153 6.15367 5.58758 0 0.000858909
1247 26 0.001 0.0482407 0.00292299 -0.0384333 -1.77881 -19.8318 -5.05566 0 0.000941222
42 13 0.001 -0.0556404 0.00141125 -0.0357849 28.9396 16.0812 58.354 0 6.04799e-06
252 14 0.001 -0.0356404 0.00141125 -0.0357849 28.941 16.0811 58.3556 0 6.048e-06
502 17 0.001 -0.0156404 0.00141125 -0.0357849 28.9435 16.0823 58.3612 0 6.04803e-06
752 20 0.001 0.00435955 0.00141125 -0.0357849 28.9356 16.0823 58.3517 0 6.048e-06
1002 23 0.001 0.0243596 0.00141125 -0.0357849 28.9334 16.081 58.3464 0 6.04798e-06
1252 26 0.001 0.0443596 0.00141125 -0.0357849 28.9399 16.0812 58.3544 0 6.04799e-06
40 13 0.001 -0.0544773 0.00268034 -0.0368579 49.678 -5.73135 102.179 0 8.02416e-05
41 13 0.001 -0.0550979 0.00213107 -0.0362323 -74.6924 -30.489 -116.132 0 1.19831e-05
251 14 0.001 -0.0350979 0.00213107 -0.0362323 -74.6943 -30.4893 -116.134 0 1.19834e-05
250 14 0.001 -0.0344773 0.00268034 -0.0368579 49.6786 -5.7303 102.179 0 8.02444e-05
501 17 0.001 -0.0150979 0.00213108 -0.0362323 -74.6976 -30.4901 -116.138 0 1.19837e-05
500 17 0.001 -0.0144773 0.00268034 -0.0368579 49.68 -5.72876 102.179 0 8.02479e-05
750 20 0.001 0.00552272 0.00268033 -0.0368579 49.6791 -5.73696 102.19 0 8.02174e-05
751 20 0.001 0.00490213 0.00213107 -0.0362323 -74.6887 -30.4884 -116.13 0 1.19814e-05
1001 23 0.001 0.0249021 0.00213107 -0.0362323 -74.6859 -30.4877 -116.127 0 1.19811e-05
1000 23 0.001 0.0255227 0.00268033 -0.0368579 49.678 -5.73821 102.19 0 8.02147e-05
1251 26 0.001 0.0449021 0.00213107 -0.0362323 -74.6927 -30.4891 -116.132 0 1.19832e-05
1250 26 0.001 0.0455227 0.00268034 -0.0368579 49.678 -5.73104 102.179 0 8.02428e-05
44 13 0.001 -0.0559769 -0.000311419 -0.0348342 0.232929 0.82469 1.55133 0 6.05081e-06
45 13 0.001 -0.0557546 -0.00117111 -0.0343602 0.0157506 -0.105795 -0.203548 0 6.05349e-06
254 14 0.001 -0.0359769 -0.000311418 -0.0348342 0.23348 0.822909 1.54786 0 6.05081e-06
255 14 0.001 -0.0357546 -0.00117112 -0.0343602 0.0141681 -0.103003 -0.19752 0 6.05349e-06
504 17 0.001 -0.0159769 -0.000311419 -0.0348342 0.233475 0.824369 1.55062 0 6.05081e-06
505 17 0.001 -0.0157546 -0.00117112 -0.0343602 0.0143874 -0.103867 -0.19919 0 6.0535e-06
754 20 0.001 0.00402306 -0.000311418 -0.0348342 0.233466 0.823911 1.54975 0 6.05081e-06
755 20 0.001 0.00424544 -0.00117112 -0.0343602 0.0143109 -0.103617 -0.198699 0 6.0535e-06
1004 23 0.001 0.0240231 -0.000311417 -0.0348342 0.233632 0.821773 1.54569 0 6.05081e-06
1005 23 0.001 0.0242454 -0.00117112 -0.0343602 0.0136564 -0.101883 -0.195193 0 6.05349e-06
1254 26 0.001 0.0440231 -0.000311419 -0.0348342 0.23293 0.824695 1.55134 0 6.05081e-06
1255 26 0.001 0.0442454 -0.00117111 -0.0343602 0.0157506 -0.105795 -0.203549 0 6.05349e-06
43 13 0.001 -0.0559372 0.000575903 -0.0353077 -5.25331 -3.56546 -9.4891 0 6.07476e-06
253 14 0.001 -0.0359372 0.000575903 -0.0353077 -5.25372 -3.56486 -9.48818 0 6.07476e-06
503 17 0.001 -0.0159372 0.000575904 -0.0353077 -5.25453 -3.56689 -9.4922 0 6.07476e-06
753 20 0.001 0.00406284 0.000575904 -0.0353077 -5.25296 -3.56602 -9.48972 0 6.07476e-06
1003 23 0.001 0.0240628 0.000575903 -0.0353077 -5.25225 -3.56365 -9.48511 0 6.07476e-06
1253 26 0.001 0.0440628 0.000575903 -0.0353077 -5.25336 -3.56547 -9.48917 0 6.07476e-06
46 13 0.001 -0.0552897 -0.00192777 -0.0338863 -0.000398679 0.0332023 0.0493813 0 6.05323e-06
47 13 0.001 -0.0546234 -0.00251473 -0.0334123 0.0236073 0.00404529 -0.0334382 0 6.05325e-06
48 13 0.001 -0.0538141 -0.00288035 -0.0329384 -0.0115799 0.0206583 0.0317051 0 6.05325e-06
49 13 0.001 -0.0529332 -0.00299243 -0.0324644 0.0155958 0.0166408 -0.0301895 0 6.05325e-06
256 14 0.001 -0.0352897 -0.00192777 -0.0338863 0.00270186 0.0300159 0.0409967 0 6.05323e-06
257 14 0.001 -0.0346233 -0.00251473 -0.0334123 0.0188802 0.00680344 -0.023102 0 6.05325e-06
258 14 0.001 -0.0338141 -0.00288035 -0.0329384 -0.00557921 0.0191192 0.0199981 0 6.05324e-06
259 14 0.001 -0.0329332 -0.00299243 -0.0324644 0.00905587 0.0164543 -0.0178225 0 6.05325e-06
506 17 0.001 -0.0152897 -0.00192777 -0.0338863 0.00246307 0.030438 0.0419034 0 6.05322e-06
507 17 0.001 -0.0146233 -0.00251473 -0.0334123 0.0190408 0.00664008 -0.023529 0 6.05325e-06
508 17 0.001 -0.0138141 -0.00288035 -0.0329384 -0.00567083 0.0191639 0.0201911 0 6.05324e-06
509 17 0.001 -0.0129332 -0.00299243 -0.0324644 0.00913512 0.0164621 -0.017975 0 6.05325e-06
756 20 0.001 0.00471028 -0.00192777 -0.0338863 0.0025666 0.0302886 0.0415601 0 6.05322e-06
757 20 0.001 0.00537665 -0.00251473 -0.0334123 0.0189333 0.00671997 -0.0232751 0 6.05325e-06
758 20 0.001 0.00618593 -0.00288035 -0.0329384 -0.0055563 0.0191323 0.0199652 0 6.05324e-06
759 20 0.001 0.00706684 -0.00299243 -0.0324644 0.00899553 0.0164482 -0.0177092 0 6.05325e-06
1006 23 0.001 0.0247103 -0.00192777 -0.0338863 0.00354427 0.0290234 0.0385367 0 6.05323e-06
1007 23 0.001 0.0253767 -0.00251473 -0.0334123 0.0178246 0.00751086 -0.0207005 0 6.05325e-06
1008 23 0.001 0.0261859 -0.00288035 -0.0329384 -0.00447996 0.0187652 0.0178161 0 6.05324e-06
1009 23 0.001 0.0270668 -0.00299243 -0.0324644 0.00807533 0.0164861 -0.0159698 0 6.05325e-06
1256 26 0.001 0.0447103 -0.00192777 -0.0338863 -0.000398682 0.0332024 0.0493813 0 6.05323e-06
1257 26 0.001 0.0453766 -0.00251473 -0.0334123 0.0236073 0.00404529 -0.0334382 0 6.05325e-06
1258 26 0.001 0.0461859 -0.00288035 -0.0329384 -0.0115799 0.0206583 0.0317051 0 6.05325e-06
1259 26 0.001 0.0470668 -0.00299243 -0.0324644 0.0155958 0.0166408 -0.0301895 0 6.05325e-06
50 13 0.001 -0.0520581 -0.00284112 -0.0319905 -0.0192518 0.0115422 0.0276901 0 6.05324e-06
51 13 0.001 -0.051266 -0.00243974 -0.0315166 0.00116366 0.020462 -0.0242116 0 6.05325e-06
52 13 0.001 -0.0506265 -0.0018236 -0.0310427 -0.0200932 0.00217534 0.01989 0 6.05324e-06
260 14 0.001 -0.0320581 -0.00284112 -0.0319905 -0.0130768 0.0135113 0.015439 0 6.05324e-06
261 14 0.001 -0.031266 -0.00243974 -0.0315166 -0.00384326 0.0171269 -0.0128446 0 6.05325e-06
262 14 0.001 -0.0306265 -0.0018236 -0.0310427 -0.0167195 0.00611838 0.0100927 0 6.05324e-06
510 17 0.001 -0.0120581 -0.00284112 -0.0319905 -0.013197 0.0134464 0.0156951 0 6.05324e-06
511 17 0.001 -0.011266 -0.00243974 -0.0315166 -0.00366461 0.0172993 -0.0133105 0 6.05325e-06
512 17 0.001 -0.0106265 -0.0018236 -0.0310427 -0.0169254 0.00577092 0.0108527 0 6.05324e-06
760 20 0.001 0.00794188 -0.00284112 -0.0319905 -0.0130157 0.0135286 0.0153196 0 6.05324e-06
761 20 0.001 0.00873401 -0.00243974 -0.0315166 -0.00388492 0.017105 -0.0127566 0 6.05325e-06
762 20 0.001 0.00937352 -0.0018236 -0.0310427 -0.0167006 0.0061292 0.010055 0 6.05324e-06
1010 23 0.001 0.0279419 -0.00284112 -0.0319905 -0.0123241 0.0136985 0.0139759 0 6.05324e-06
1011 23 0.001 0.028734 -0.00243974 -0.0315166 -0.00433136 0.0168535 -0.0117919 0 6.05325e-06
1012 23 0.001 0.0293735 -0.0018236 -0.0310427 -0.0164654 0.0063537 0.0094464 0 6.05324e-06
1260 26 0.001 0.0479419 -0.00284112 -0.0319905 -0.0192518 0.0115422 0.0276901 0 6.05324e-06
1261 26 0.001 0.048734 -0.00243974 -0.0315166 0.00116366 0.020462 -0.0242116 0 6.05325e-06
1262 26 0.001 0.0493735 -0.0018236 -0.0310427 -0.0200932 0.00217534 0.01989 0 6.05324e-06
53 13 0.001 -0.0501959 -0.00104696 -0.0305687 -0.0120572 0.0129171 -0.0149108 0 6.05325e-06
54 13 0.001 -0.0500121 -0.000178155 -0.0300948 -0.0176512 -0.00398007 0.00950337 0 6.05324e-06