ITEM: TIMESTEP
9
ITEM: NUMBER OF ATOMS
1472
ITEM: BOX BOUNDS ff ff ff
-6.0000000000000005e-02 6.0000000000000005e-02
-6.0000000000000001e-03 6.0000000000000001e-03
-5.5000000000000000e-02 5.5000000000000000e-02
ITEM: ATOMS id type radius x y z fx fy fz c_bendingE c_stretchingE
1 1 0.001 -0.0513518 3.09561e-05 -0.0513183 27.3457 2.2045 -10.1619 0 0.0111818
13 13 0.001 -0.0495785 -3.37077e-05 -0.0487432 -10.4203 10.5515 -14.6881 0 0.0132652
433 15 0.001 -0.0495257 0.000141496 -0.0505203 -29.8489 -3.4583 50.3184 0 0.00424313
434 15 0.001 -0.0479741 0.000116341 -0.0492138 20.0957 3.85792 -30.2234 0 0.00430787
435 15 0.001 -0.0473507 -8.54679e-05 -0.051116 6.52198 -25.6789 -3.61487 0 0.00340431
436 15 0.001 -0.0460805 -0.000153391 -0.0498679 -13.3431 44.9199 14.8608 0 0.00318747
437 15 0.001 -0.0447762 -3.4942e-05 -0.0484131 26.8834 -20.5547 -24.5492 0 0.0190085
438 15 0.001 -0.0441816 0.000237083 -0.0522799 4.94346 -5.04262 41.3667 0 0.0434447
439 15 0.001 -0.0433441 -0.000218456 -0.0477475 1.76723 5.62712 -40.5994 0 0.0455614
440 15 0.001 -0.0425897 0.000166911 -0.0517578 5.6262 -5.31634 18.2491 0 0.0267321
441 15 0.001 -0.0416247 -0.000731637 -0.0491443 -14.9225 -0.00515137 4.20223 0 0.011345
442 15 0.001 -0.0403197 0.00116006 -0.0497234 3.00852 -2.78357 1.6491 0 0.00915815
443 15 0.001 -0.03915 -0.00023843 -0.051603 2.65392 6.64638 18.3224 0 0.0252213
444 15 0.001 -0.039053 -0.000571103 -0.0474643 -3.41763 7.66967 -48.7535 0 0.0510958
445 15 0.001 -0.0379786 0.00050391 -0.05218 -27.0884 -10.3025 40.4497 0 0.0385791
446 15 0.001 -0.0364433 -7.0696e-05 -0.0497751 23.2146 5.71281 -25.401 0 0.0112752
447 15 0.001 -0.0347852 -0.000442153 -0.0481077 -9.12894 3.52361 -19.782 0 0.0332628
448 15 0.001 -0.0346189 0.000691176 -0.0528063 7.78351 -15.7896 65.0458 0 0.0786092
449 15 0.001 -0.034011 -0.000753431 -0.0470409 -9.20259 17.0578 -68.8208 0 0.0871073
450 15 0.001 -0.0337477 0.000516998 -0.0522409 5.73521 -2.97951 32.4155 0 0.04286
451 15 0.001 -0.0321034 0.000174185 -0.0503001 -20.6318 -12.877 13.7729 0 0.0103518
223 14 0.001 -0.0293603 8.46037e-06 -0.0487657 -12.2591 11.9146 -27.2736 0 0.0306432
452 15 0.001 -0.0307302 -0.000410252 -0.0481416 0.63789 12.3199 -44.957 0 0.0376728
3 3 0.001 -0.0309029 0.000219446 -0.0531241 28.9292 -1.11547 56.9791 0 0.0629755
683 18 0.001 -0.0294175 0.000174348 -0.0511583 -29.237 -9.48403 21.3939 0 0.0107864
684 18 0.001 -0.0281479 -0.000104942 -0.0487017 16.1785 7.77563 -28.4173 0 0.0117958
685 18 0.001 -0.0272162 0.000118406 -0.0511482 12.6134 -13.5224 -9.0878 0 0.00618964
686 18 0.001 -0.0260512 -9.6685e-05 -0.0500503 -21.0413 19.3637 29.4912 0 0.0035089
687 18 0.001 -0.0248154 -0.000209482 -0.0483002 27.3947 -5.90599 -31.4639 0 0.0228313
688 18 0.001 -0.024194 0.000382534 -0.0523827 2.09908 -7.93646 46.1718 0 0.0507496
689 18 0.001 -0.0232929 -0.000313542 -0.0475988 3.07967 7.08649 -47.2497 0 0.054519
690 18 0.001 -0.0225524 0.0002042 -0.0519645 5.07857 -8.33073 27.5055 0 0.0329143
691 18 0.001 -0.0217652 -0.000646953 -0.0490745 -17.7821 1.70722 -1.5598 0 0.0126682
692 18 0.001 -0.0201732 0.000995707 -0.0495518 8.93516 -5.52289 -1.25315 0 0.00908185
693 18 0.001 -0.0192377 -0.000166438 -0.0517233 2.72296 7.85343 21.663 0 0.0268761
694 18 0.001 -0.0190432 -0.000564864 -0.0474716 -3.80047 9.22984 -49.0654 0 0.0526621
695 18 0.001 -0.0179743 0.000508088 -0.0521901 -25.3181 -9.71647 39.9234 0 0.0387929
696 18 0.001 -0.016467 -8.21721e-05 -0.0497402 20.8445 5.80713 -24.9394 0 0.0113778
697 18 0.001 -0.0147719 -0.000435519 -0.0481319 -7.92955 3.36443 -19.186 0 0.0326126
698 18 0.001 -0.0146077 0.000692021 -0.0527942 7.9616 -15.7086 64.5629 0 0.0773393
699 18 0.001 -0.0140431 -0.000756787 -0.0470632 -8.99953 17.8461 -67.6198 0 0.0849007
700 18 0.001 -0.0137622 0.000549753 -0.0521632 5.07666 -11.0262 27.7651 0 0.0408568
701 18 0.001 -0.0120737 0.000110425 -0.0503965 -19.2985 1.73502 18.9749 0 0.0103605
702 18 0.001 -0.0107169 -0.000375372 -0.0481106 -0.0156341 4.18737 -46.8099 0 0.0385218
5 5 0.001 -0.0109207 0.000227499 -0.053116 28.4957 -0.607721 57.0082 0 0.0632381
473 17 0.001 -0.00936679 8.45149e-06 -0.0487706 -12.2594 11.9495 -27.1375 0 0.0305057
933 21 0.001 -0.00941829 0.000170487 -0.0511524 -29.7129 -9.08685 21.6329 0 0.0107228
934 21 0.001 -0.00815192 -0.000107251 -0.0487123 16.5415 7.68853 -28.0829 0 0.0114608
935 21 0.001 -0.00721698 0.00012628 -0.0511199 11.6152 -10.3211 -10.1375 0 0.00589614
936 21 0.001 -0.00602812 -9.49536e-05 -0.0500943 -17.98 13.7525 28.8783 0 0.00364251
937 21 0.001 -0.00482529 -0.000218965 -0.0482691 25.5523 -3.46145 -30.5046 0 0.0236288
938 21 0.001 -0.00419815 0.000393803 -0.0523953 0.784335 -6.78852 47.08 0 0.0518485
939 21 0.001 -0.0032814 -0.000321959 -0.0475838 5.75122 6.54016 -48.0413 0 0.055298
940 21 0.001 -0.00259331 0.00018537 -0.0519794 -0.524998 -2.61509 30.1073 0 0.0324455
941 21 0.001 -0.00187342 -2.81092e-05 -0.0490498 -28.3148 1.33435 12.2927 0 0.00862503
942 21 0.001 -0.000501431 -7.26292e-05 -0.0493061 15.5888 -1.26361 -24.3395 0 0.00753408
943 21 0.001 0.000953912 5.14659e-05 -0.0517932 33.5068 -0.867927 15.5927 0 0.0183445
944 21 0.001 0.001392 5.77068e-06 -0.0484671 -1.75834 -0.091826 -3.703 0 0.0145396
945 21 0.001 0.00213227 -2.01988e-05 -0.0506278 -71.324 2.19284 29.6966 0 0.0035241
946 21 0.001 0.00324183 6.36906e-06 -0.0500611 28.2666 -5.36558 -100.135 0 0.000162523
947 21 0.001 0.00428956 2.24058e-06 -0.0498806 -12.3321 5.04134 111.636 0 1.74729e-05
948 21 0.001 0.00526192 -7.71945e-07 -0.0498641 -31.0848 -1.18879 -121.641 0 4.78609e-06
949 21 0.001 0.00618674 -8.41607e-07 -0.0502746 -0.803966 0.203015 144.47 0 9.68318e-06
950 21 0.001 0.00711704 7.16602e-07 -0.049845 33.0709 -0.350266 -73.2602 0 1.00948e-05
951 21 0.001 0.00813144 -5.46531e-07 -0.0498274 -21.6573 0.46428 -47.7472 0 0.000101051
7 7 0.001 0.01 0 -0.05 6.65097 1.2909 15.111 0 0.000905035
723 20 0.001 0.0105938 -3.73983e-05 -0.0484708 -3.32824 9.25733 -6.7733 0 0.00490927
952 21 0.001 0.00921228 6.79081e-07 -0.050338 11.9628 -0.401562 68.6418 0 0.000125181
1183 24 0.001 0.0109519 2.6876e-07 -0.0499699 -3.23228 -0.527811 -64.809 0 3.69372e-06
1184 24 0.001 0.0119027 -4.76807e-07 -0.0500782 -10.4071 0.591623 88.3994 0 2.80097e-06
1185 24 0.001 0.0128471 8.88325e-07 -0.0498093 -24.0328 -0.696446 -126.403 0 2.23326e-05
1186 24 0.001 0.0137971 -9.86342e-07 -0.0503146 4.71867 0.538682 123.795 0 0.000114012
1187 24 0.001 0.0147571 5.5597e-07 -0.0496103 13.5647 -0.208745 -77.2024 0 0.000243648
1188 24 0.001 0.0157178 2.32756e-08 -0.0504109 1.88429 0.097709 53.4868 0 0.000298327
1189 24 0.001 0.0166745 -4.60842e-07 -0.0496103 -5.71995 -0.135505 -59.3872 0 0.000256823
1190 24 0.001 0.0176246 4.50671e-07 -0.0503583 -1.93055 0.258636 71.3679 0 0.00019904
1191 24 0.001 0.0185721 3.3851e-07 -0.0496432 14.37 -0.25732 -54.9765 0 0.000215567
1192 24 0.001 0.0195174 -2.10351e-06 -0.0504247 34.5237 -0.0896083 0.684457 0 0.000430305
1193 24 0.001 0.0204463 4.58048e-06 -0.0494214 32.9057 0.495322 48.6819 0 0.00111852
1194 24 0.001 0.0213599 -6.72987e-06 -0.0507558 8.58817 -0.606921 -62.4669 0 0.00222132
1195 24 0.001 0.0222928 7.08649e-06 -0.0491934 -22.4804 0.531489 52.5466 0 0.00252897
1196 24 0.001 0.0232862 -5.03366e-06 -0.0506087 -53.618 -0.253281 -3.32298 0 0.00134672
1197 24 0.001 0.0242988 1.81791e-06 -0.0497745 12.3623 0.00735604 -14.1209 0 0.00022607
1198 24 0.001 0.0252655 5.48299e-07 -0.0498706 -32.0757 -0.364215 -76.3329 0 4.50713e-06
1199 24 0.001 0.026188 -1.21761e-06 -0.0502812 0.218166 0.736601 138.715 0 9.99098e-06
1200 24 0.001 0.0271158 7.82245e-07 -0.0498392 31.7578 -0.732573 -68.1357 0 1.0758e-05
1201 24 0.001 0.0281307 -5.43589e-07 -0.0498305 -21.4316 0.604035 -47.9245 0 0.000100128
9 9 0.001 0.03 0 -0.05 6.47766 1.31075 15.03 0 0.000905145
973 23 0.001 0.0305938 -3.73983e-05 -0.0484708 -3.32824 9.25733 -6.7733 0 0.00490927
1202 24 0.001 0.0292122 6.59091e-07 -0.0503372 11.9554 -0.422912 68.1492 0 0.000124307
1433 27 0.001 0.0309519 2.6502e-07 -0.0499705 -3.13364 -0.573324 -63.6992 0 3.7109e-06
1434 27 0.001 0.0319027 -4.90086e-07 -0.050077 -9.42235 4.83006 84.8549 0 2.7696e-06
1435 27 0.001 0.0328465 1.38913e-06 -0.0498142 -21.743 -25.9701 -124.077 0 1.55331e-05
1436 27 0.001 0.033801 -1.03577e-05 -0.0502687 -3.08805 77.2166 137.546 0 4.51878e-05
1437 27 0.001 0.0347655 0.000100479 -0.0497567 9.84082 -121.074 -94.3898 0 3.9026e-05
1438 27 0.001 0.0357233 -0.000282869 -0.0498454 -9.64071 143.268 45.0068 0 3.81729e-05
1439 27 0.001 0.0365415 0.000219739 -0.0503734 40.2519 -120.602 -2.62528 0 0.000213664
1440 27 0.001 0.0378055 0.000161732 -0.0505628 35.8243 47.3981 -7.01828 0 0.00312536
1441 27 0.001 0.0382468 -0.000375479 -0.0484791 -21.0772 -5.94124 -7.42168 0 0.00787309
1442 27 0.001 0.0396804 9.65756e-05 -0.0505431 7.00098 -3.93791 28.8893 0 0.00595586
1443 27 0.001 0.0410891 0.000351857 -0.0514516 0.819535 -0.90895 -0.585805 0 0.021191
1444 27 0.001 0.041129 -0.000579485 -0.0473825 10.8985 12.3154 -54.4975 0 0.0607955
1445 27 0.001 0.0419401 0.000588887 -0.0527125 -10.3567 -10.6537 49.4582 0 0.0607022
1446 27 0.001 0.0429407 -0.000280324 -0.0487618 -13.1091 4.91942 -21.6618 0 0.0247429
1447 27 0.001 0.0454524 -0.0002424 -0.0488697 12.661 3.45014 -17.7883 0 0.019657
1448 27 0.001 0.0456217 0.000563384 -0.052511 4.81041 -11.709 52.6058 0 0.0528609
1449 27 0.001 0.0458617 -0.000614096 -0.0472876 -10.4469 15.002 -59.7179 0 0.0655993
1450 27 0.001 0.0461914 0.000444082 -0.0518825 -2.9883 -10.9596 21.228 0 0.0309716
1451 27 0.001 0.0480055 2.62193e-05 -0.0506042 -5.4179 5.67124 17.5185 0 0.0102356
1452 27 0.001 0.0493429 -0.000203743 -0.0480883 -9.85512 1.47529 -56.2365 0 0.0704868
11 11 0.001 0.0487549 0.000413441 -0.0546861 8.95904 -6.46822 84.3248 0 0.116059
1223 26 0.001 0.0505642 -1.27762e-05 -0.0488335 -14.8459 13.3558 -38.1009 0 0.0568054
14 13 0.001 -0.0500443 0.00234509 -0.0487156 -27.5588 -1.89764 9.90908 0 0.00845971
224 14 0.001 -0.0303003 0.00228236 -0.0487084 -29.7624 0.635502 10.4629 0 0.00749266
474 17 0.001 -0.0102913 0.00228468 -0.0487049 -29.6948 0.491975 10.3787 0 0.00753331
724 20 0.001 0.00957234 0.00213744 -0.0485924 -24.8279 5.79787 5.1092 0 0.00732706
974 23 0.001 0.0295723 0.00213744 -0.0485924 -24.8279 5.79787 5.1092 0 0.00732706
1224 26 0.001 0.0497201 0.00227278 -0.0486635 -29.9391 0.708893 8.52345 0 0.00772021
17 13 0.001 -0.0522153 0.00363417 -0.0469558 -1.66672 15.5765 -34.5146 0 0.00881595
15 13 0.001 -0.0517392 0.00179957 -0.050407 17.6736 3.16573 12.9609 0 0.0160002
16 13 0.001 -0.0504068 0.00276431 -0.0474203 4.95 -21.1586 0.0469947 0 0.013999
226 14 0.001 -0.0304064 0.00280496 -0.0474151 6.63613 -21.8469 0.388854 0 0.0139797
227 14 0.001 -0.0322278 0.00361941 -0.0469623 -2.15649 14.9818 -34.2371 0 0.00880176
225 14 0.001 -0.0316251 0.00186191 -0.0504614 21.2461 2.68098 11.605 0 0.0148588
477 17 0.001 -0.0122275 0.00362012 -0.0469627 -2.10563 14.9287 -34.2574 0 0.00880215
475 17 0.001 -0.0116299 0.00186014 -0.0504621 21.1776 2.75155 11.7075 0 0.0149514
476 17 0.001 -0.0104049 0.00280197 -0.0474143 6.53965 -21.7414 0.331426 0 0.014021
727 20 0.001 0.00815253 0.00399091 -0.0466339 -7.99806 1.06063 -21.5141 0 0.0156598
725 20 0.001 0.00846561 0.00209159 -0.0505709 14.4677 -6.51007 18.9829 0 0.013988
726 20 0.001 0.00947666 0.00231234 -0.0474322 3.87113 -11.4677 -8.81042 0 0.0140628
976 23 0.001 0.0294767 0.00231234 -0.0474322 3.87113 -11.4677 -8.81042 0 0.0140628
977 23 0.001 0.0281525 0.00399091 -0.0466339 -7.99806 1.06063 -21.5141 0 0.0156598
975 23 0.001 0.0284656 0.00209159 -0.0505709 14.4677 -6.51007 18.9829 0 0.013988
1227 26 0.001 0.0477732 0.00361374 -0.0469626 -2.41211 14.9076 -33.9121 0 0.00896906
1225 26 0.001 0.0483861 0.00186772 -0.0504969 21.2743 2.95592 12.9765 0 0.0154854
1226 26 0.001 0.0495985 0.002803 -0.0474122 6.41381 -22.061 0.251498 0 0.0142749
19 13 0.001 -0.0556014 0.0018847 -0.0466989 1.03616 -1.04655 15.0677 0 0.024546
20 13 0.001 -0.0550363 0.00161844 -0.0427585 -7.70608 -6.19203 -61.0077 0 0.0714129
18 13 0.001 -0.0545677 0.00383078 -0.0484443 0.637755 -14.3399 20.3387 0 0.0131385
230 14 0.001 -0.0350398 0.00161502 -0.042759 -7.64804 -6.29708 -60.8386 0 0.0711323
228 14 0.001 -0.0345813 0.00382294 -0.04846 0.48113 -14.6694 20.2724 0 0.0131955
229 14 0.001 -0.0355907 0.00189325 -0.0466798 1.12982 -0.579425 15.0919 0 0.0243159
480 17 0.001 -0.0150396 0.00161536 -0.0427589 -7.6568 -6.29078 -60.8511 0 0.0711535
478 17 0.001 -0.0145803 0.00382315 -0.0484591 0.48157 -14.6364 20.2853 0 0.0131837
479 17 0.001 -0.0155918 0.00189296 -0.0466812 1.12328 -0.606565 15.0974 0 0.0243312
729 20 0.001 0.00407733 0.00163714 -0.0468204 8.63765 -4.75667 13.2079 0 0.0297913
730 20 0.001 0.00513726 0.00178271 -0.0427429 -13.404 -7.20285 -63.5921 0 0.0759156
728 20 0.001 0.00535681 0.00379374 -0.0486847 8.49886 -4.79389 20.8859 0 0.0213974
980 23 0.001 0.0251373 0.00178271 -0.0427429 -13.404 -7.20285 -63.5921 0 0.0759156
978 23 0.001 0.0253568 0.00379374 -0.0486847 8.49886 -4.79389 20.8859 0 0.0213974
979 23 0.001 0.0240773 0.00163714 -0.0468204 8.63765 -4.75667 13.2079 0 0.0297913
1230 26 0.001 0.044957 0.00161041 -0.0427596 -7.4743 -6.39993 -60.6766 0 0.0708476
1228 26 0.001 0.0454076 0.00383291 -0.0484808 0.590059 -14.9322 20.0954 0 0.0135162
1229 26 0.001 0.0444261 0.00189251 -0.0466624 1.16232 -0.102832 14.903 0 0.0242363
23 13 0.001 -0.055029 0.000129977 -0.0427173 -8.6311 -19.3543 -20.7891 0 0.0324527
233 14 0.001 -0.0350289 0.00012968 -0.042718 -8.63247 -19.3546 -20.7765 0 0.032441
483 17 0.001 -0.0150289 0.0001297 -0.0427179 -8.63243 -19.3546 -20.7773 0 0.0324418
733 20 0.001 0.0049705 0.00014361 -0.0426906 -8.51659 -19.2929 -21.3727 0 0.0330093
983 23 0.001 0.0249705 0.00014361 -0.0426906 -8.51659 -19.2929 -21.3727 0 0.0330093
1233 26 0.001 0.0449711 0.000129434 -0.0427184 -8.63234 -19.3553 -20.7664 0 0.0324304
21 13 0.001 -0.0564977 0.00055115 -0.0486749 16.2696 20.5072 56.4636 0 0.0668508
22 13 0.001 -0.0557937 0.00175202 -0.0453796 6.1486 -18.8325 -8.80373 0 0.0231818
231 14 0.001 -0.0364993 0.000549567 -0.0486742 16.232 20.3868 56.4894 0 0.0668217
232 14 0.001 -0.035793 0.0017529 -0.0453792 6.11272 -18.8647 -8.80097 0 0.0231881
481 17 0.001 -0.0164992 0.000549665 -0.0486743 16.2336 20.3953 56.4882 0 0.0668247
482 17 0.001 -0.0157931 0.00175285 -0.0453793 6.11508 -18.8622 -8.80137 0 0.0231879
731 20 0.001 0.00356129 0.000578093 -0.0486909 14.5129 21.9568 56.7016 0 0.0681915
732 20 0.001 0.00417378 0.00171735 -0.0453957 7.80692 -17.4573 -8.93659 0 0.0229749
981 23 0.001 0.0235613 0.000578093 -0.0486909 14.5129 21.9568 56.7016 0 0.0681915
982 23 0.001 0.0241738 0.00171735 -0.0453957 7.80692 -17.4573 -8.93659 0 0.0229749
1231 26 0.001 0.0434987 0.000548496 -0.0486734 16.2154 20.2813 56.5016 0 0.0667813
1232 26 0.001 0.0442078 0.0017534 -0.045379 6.08831 -18.8996 -8.79601 0 0.0231902
25 13 0.001 -0.0550299 -0.00212399 -0.0444877 -2.80436 25.7556 16.9638 0 0.0116871
26 13 0.001 -0.0547687 -0.00155847 -0.0413652 13.9826 -7.31695 -13.4943 0 0.0182192
235 14 0.001 -0.03503 -0.00212413 -0.0444877 -2.79811 25.7637 16.9626 0 0.0116872
236 14 0.001 -0.0347686 -0.00155838 -0.0413652 13.9824 -7.31849 -13.4944 0 0.0182201
485 17 0.001 -0.01503 -0.00212413 -0.0444877 -2.79857 25.7633 16.9627 0 0.0116872
486 17 0.001 -0.0147686 -0.00155838 -0.0413652 13.9824 -7.31841 -13.4944 0 0.01822
735 20 0.001 0.00497069 -0.00211812 -0.0444883 -3.07517 25.4079 17.0226 0 0.0116825
736 20 0.001 0.00522948 -0.00156231 -0.0413651 13.9951 -7.25571 -13.4891 0 0.0181858
985 23 0.001 0.0249707 -0.00211812 -0.0444883 -3.07517 25.4079 17.0226 0 0.0116825
986 23 0.001 0.0252295 -0.00156231 -0.0413651 13.9951 -7.25571 -13.4891 0 0.0181858
1235 26 0.001 0.04497 -0.00212424 -0.0444877 -2.79198 25.7693 16.9608 0 0.0116873
1236 26 0.001 0.0452314 -0.00155831 -0.0413652 13.9821 -7.31947 -13.4945 0 0.0182207
24 13 0.001 -0.0562391 -0.0024038 -0.0460567 21.9737 -3.8601 10.7984 0 0.0246854
234 14 0.001 -0.0362392 -0.00240389 -0.0460566 21.9666 -3.86838 10.7942 0 0.0246768
484 17 0.001 -0.0162392 -0.00240388 -0.0460566 21.9672 -3.86788 10.7944 0 0.0246773
734 20 0.001 0.00376555 -0.00239991 -0.0460618 22.2607 -3.50142 10.9945 0 0.0250755
984 23 0.001 0.0237655 -0.00239991 -0.0460618 22.2607 -3.50142 10.9945 0 0.0250755
1234 26 0.001 0.0437607 -0.00240396 -0.0460565 21.9583 -3.87435 10.7922 0 0.0246698
27 13 0.001 -0.0537728 -0.00325161 -0.0437179 -23.5536 15.3749 -12.2066 0 0.00925266
28 13 0.001 -0.0523451 -0.00335666 -0.0431299 7.37905 12.4952 16.0774 0 0.00441504
29 13 0.001 -0.05244 -0.00253644 -0.0409215 0.632977 -25.7045 17.0614 0 0.00410735
30 13 0.001 -0.0511761 -0.00249451 -0.0414969 -34.5664 40.7915 -8.97563 0 0.000640908
237 14 0.001 -0.0337728 -0.00325162 -0.043718 -23.5537 15.376 -12.2101 0 0.00925322
238 14 0.001 -0.0323452 -0.00335666 -0.0431299 7.37627 12.4949 16.0801 0 0.00441496
239 14 0.001 -0.03244 -0.00253644 -0.0409215 0.634234 -25.7038 17.0613 0 0.00410729
240 14 0.001 -0.0311761 -0.00249451 -0.0414969 -34.5661 40.7904 -8.97539 0 0.000640917
487 17 0.001 -0.0137728 -0.00325162 -0.043718 -23.5536 15.3759 -12.2099 0 0.00925318
488 17 0.001 -0.0123452 -0.00335666 -0.0431299 7.37643 12.4949 16.0799 0 0.00441496
489 17 0.001 -0.01244 -0.00253644 -0.0409215 0.634161 -25.7038 17.0613 0 0.00410729
490 17 0.001 -0.0111761 -0.00249451 -0.0414969 -34.5661 40.7905 -8.97541 0 0.000640917
737 20 0.001 0.00622682 -0.0032512 -0.0437166 -23.5505 15.3294 -12.0553 0 0.00923018
738 20 0.001 0.00765571 -0.00335657 -0.0431308 7.49798 12.5055 15.9622 0 0.00441896
739 20 0.001 0.00755988 -0.00253664 -0.0409217 0.579075 -25.7327 17.0678 0 0.0041101
740 20 0.001 0.00882374 -0.00249444 -0.0414965 -34.5805 40.836 -8.98742 0 0.000640541
987 23 0.001 0.0262268 -0.0032512 -0.0437166 -23.5505 15.3294 -12.0553 0 0.00923018
988 23 0.001 0.0276557 -0.00335657 -0.0431308 7.49798 12.5055 15.9622 0 0.00441896
989 23 0.001 0.0275599 -0.00253664 -0.0409217 0.579075 -25.7327 17.0678 0 0.0041101
990 23 0.001 0.0288237 -0.00249444 -0.0414965 -34.5805 40.836 -8.98742 0 0.000640541
1237 26 0.001 0.0462272 -0.00325162 -0.043718 -23.5539 15.3768 -12.2128 0 0.0092536
1238 26 0.001 0.0476548 -0.00335666 -0.0431299 7.37422 12.4947 16.0821 0 0.00441489
1239 26 0.001 0.04756 -0.00253643 -0.0409215 0.635159 -25.7033 17.0611 0 0.00410724
1240 26 0.001 0.0488239 -0.00249451 -0.0414969 -34.5658 40.7896 -8.97518 0 0.000640923
31 13 0.001 -0.050181 -0.00156013 -0.0415261 10.2237 -41.84 -7.61231 0 0.000819939
241 14 0.001 -0.030181 -0.00156013 -0.0415261 10.2233 -41.8392 -7.61223 0 0.000819942
491 17 0.001 -0.010181 -0.00156013 -0.0415261 10.2233 -41.8392 -7.61223 0 0.000819942
741 20 0.001 0.00981892 -0.00156011 -0.0415261 10.2417 -41.8735 -7.6154 0 0.00081982
991 23 0.001 0.0298189 -0.00156011 -0.0415261 10.2417 -41.8735 -7.6154 0 0.00081982
1241 26 0.001 0.049819 -0.00156013 -0.041526 10.223 -41.8386 -7.61218 0 0.000819944
32 13 0.001 -0.0503795 -0.00106737 -0.0401368 40.1122 5.21707 -68.3434 0 0.000550003
33 13 0.001 -0.0499604 -5.12138e-05 -0.0401309 -43.6016 -34.2106 123.737 0 3.74682e-05
242 14 0.001 -0.0303795 -0.00106737 -0.0401368 40.1119 5.21681 -68.3428 0 0.000550007
243 14 0.001 -0.0299604 -5.12135e-05 -0.0401309 -43.6013 -34.2106 123.736 0 3.74689e-05
492 17 0.001 -0.0103795 -0.00106737 -0.0401368 40.1119 5.21683 -68.3428 0 0.000550007
493 17 0.001 -0.00996044 -5.12135e-05 -0.0401309 -43.6013 -34.2106 123.736 0 3.74688e-05
742 20 0.001 0.00962059 -0.00106737 -0.0401369 40.1224 5.22863 -68.3725 0 0.000549812
743 20 0.001 0.0100395 -5.12257e-05 -0.0401309 -43.6148 -34.2122 123.763 0 3.74391e-05
992 23 0.001 0.0296206 -0.00106737 -0.0401369 40.1224 5.22863 -68.3725 0 0.000549812
993 23 0.001 0.0300395 -5.12257e-05 -0.0401309 -43.6148 -34.2121 123.763 0 3.74391e-05
1242 26 0.001 0.0496205 -0.00106737 -0.0401368 40.1118 5.21662 -68.3423 0 0.00055001
1243 26 0.001 0.0500396 -5.12133e-05 -0.0401309 -43.6011 -34.2106 123.736 0 3.74694e-05
34 13 0.001 -0.0501111 0.000785161 -0.0395583 7.32366 63.6021 -99.6151 0 9.02726e-06
244 14 0.001 -0.0301111 0.000785161 -0.0395583 7.32368 63.6024 -99.6154 0 9.02731e-06
494 17 0.001 -0.0101111 0.000785161 -0.0395583 7.32368 63.6023 -99.6154 0 9.02731e-06
744 20 0.001 0.00988895 0.000785163 -0.0395583 7.32272 63.5918 -99.6041 0 9.02507e-06
994 23 0.001 0.0298889 0.000785163 -0.0395583 7.32272 63.5918 -99.604 0 9.02507e-06
1244 26 0.001 0.0498889 0.000785161 -0.0395583 7.3237 63.6025 -99.6156 0 9.02735e-06
36 13 0.001 -0.0510533 0.00227742 -0.0386254 -0.762418 3.73971 -6.17586 0 6.2617e-06
35 13 0.001 -0.0504709 0.00160723 -0.0391015 5.09595 -21.1285 40.8776 0 6.2131e-06
245 14 0.001 -0.0304709 0.00160723 -0.0391015 5.0959 -21.1286 40.8779 0 6.2131e-06
246 14 0.001 -0.0310533 0.00227742 -0.0386254 -0.762417 3.73974 -6.1759 0 6.2617e-06
496 17 0.001 -0.0110533 0.00227742 -0.0386254 -0.762428 3.73975 -6.17592 0 6.2617e-06
495 17 0.001 -0.0104709 0.00160723 -0.0391015 5.09591 -21.1286 40.8779 0 6.2131e-06
746 20 0.001 0.00894671 0.00227742 -0.0386254 -0.762679 3.73857 -6.17458 0 6.2617e-06
745 20 0.001 0.00952911 0.00160723 -0.0391015 5.09831 -21.1208 40.8659 0 6.2131e-06
995 23 0.001 0.0295291 0.00160723 -0.0391015 5.09831 -21.1208 40.8659 0 6.2131e-06
996 23 0.001 0.0289467 0.00227742 -0.0386254 -0.76267 3.73856 -6.17455 0 6.2617e-06
1246 26 0.001 0.0489467 0.00227742 -0.0386254 -0.762408 3.73975 -6.17591 0 6.2617e-06
1245 26 0.001 0.0495291 0.00160723 -0.0391015 5.09586 -21.1288 40.878 0 6.2131e-06
38 13 0.001 -0.0526661 0.00297745 -0.0376777 -0.0544883 0.0160035 -0.110918 0 6.24762e-06
39 13 0.001 -0.0535544 0.00294437 -0.0372038 0.00922917 -0.0197313 0.0107878 0 6.24746e-06
37 13 0.001 -0.0518072 0.00274846 -0.0381517 0.367788 -0.406107 0.977986 0 6.24584e-06
249 14 0.001 -0.0335544 0.00294437 -0.0372038 0.0092376 -0.0197299 0.0108039 0 6.24746e-06
247 14 0.001 -0.0318072 0.00274846 -0.0381517 0.367797 -0.406111 0.978004 0 6.24584e-06
248 14 0.001 -0.0326661 0.00297745 -0.0376777 -0.054497 0.0160044 -0.110935 0 6.24762e-06
499 17 0.001 -0.0135544 0.00294437 -0.0372038 0.00925036 -0.019728 0.0108283 0 6.24746e-06
498 17 0.001 -0.0126661 0.00297745 -0.0376777 -0.0545111 0.0160062 -0.110962 0 6.24762e-06
497 17 0.001 -0.0118072 0.00274846 -0.0381517 0.36781 -0.406117 0.978031 0 6.24584e-06
748 20 0.001 0.00733387 0.00297745 -0.0376777 -0.0545079 0.0160047 -0.110955 0 6.24762e-06
749 20 0.001 0.0064456 0.00294437 -0.0372038 0.0092488 -0.0197282 0.0108253 0 6.24746e-06
747 20 0.001 0.00819276 0.00274846 -0.0381517 0.367758 -0.406064 0.977896 0 6.24584e-06
999 23 0.001 0.0264456 0.00294437 -0.0372038 0.00924017 -0.0197295 0.0108088 0 6.24746e-06
997 23 0.001 0.0281928 0.00274846 -0.0381517 0.367748 -0.406059 0.977875 0 6.24584e-06
998 23 0.001 0.0273339 0.00297745 -0.0376777 -0.0544981 0.0160033 -0.110936 0 6.24762e-06
1249 26 0.001 0.0464456 0.00294437 -0.0372038 0.00922917 -0.0197313 0.0107878 0 6.24746e-06
1248 26 0.001 0.0473339 0.00297745 -0.0376777 -0.0544883 0.0160035 -0.110918 0 6.24762e-06
1247 26 0.001 0.0481928 0.00274846 -0.0381517 0.36779 -0.406109 0.977991 0 6.24584e-06
42 13 0.001 -0.0556417 0.00141358 -0.035782 0.0160936 -0.00863637 -4.1033e-05 0 6.24747e-06
252 14 0.001 -0.0356417 0.00141358 -0.035782 0.0160914 -0.00863871 -4.68653e-05 0 6.24747e-06
502 17 0.001 -0.0156417 0.00141358 -0.035782 0.0160881 -0.00864347 -5.77705e-05 0 6.24747e-06
752 20 0.001 0.00435833 0.00141358 -0.035782 0.0160888 -0.00864239 -5.53843e-05 0 6.24747e-06
1002 23 0.001 0.0243583 0.00141358 -0.035782 0.0160916 -0.00863754 -4.47352e-05 0 6.24747e-06
1252 26 0.001 0.0443583 0.00141358 -0.035782 0.0160936 -0.00863637 -4.1033e-05 0 6.24747e-06
40 13 0.001 -0.0543939 0.00265212 -0.0367299 0.00803701 -0.0161615 -0.000808645 0 6.24747e-06
41 13 0.001 -0.0551107 0.00212644 -0.0362559 0.0128978 -0.0129446 6.86389e-05 0 6.24747e-06
251 14 0.001 -0.0351107 0.00212644 -0.0362559 0.0129023 -0.012941 7.94286e-05 0 6.24747e-06
250 14 0.001 -0.0343939 0.00265212 -0.0367299 0.00803015 -0.0161646 -0.000822918 0 6.24747e-06
501 17 0.001 -0.0151107 0.00212644 -0.0362559 0.0129086 -0.0129357 9.50761e-05 0 6.24747e-06
500 17 0.001 -0.0143939 0.00265212 -0.0367299 0.0080203 -0.0161691 -0.000843313 0 6.24747e-06
750 20 0.001 0.00560612 0.00265212 -0.0367299 0.00802166 -0.0161684 -0.000840425 0 6.24747e-06
751 20 0.001 0.00488933 0.00212644 -0.0362559 0.0129076 -0.0129367 9.2342e-05 0 6.24747e-06
1001 23 0.001 0.0248893 0.00212644 -0.0362559 0.0129028 -0.0129411 8.00154e-05 0 6.24747e-06
1000 23 0.001 0.0256061 0.00265212 -0.0367299 0.00802849 -0.0161651 -0.000826109 0 6.24747e-06
1251 26 0.001 0.0448893 0.00212644 -0.0362559 0.0128978 -0.0129446 6.86389e-05 0 6.24747e-06
1250 26 0.001 0.0456061 0.00265212 -0.0367299 0.00803701 -0.0161615 -0.000808645 0 6.24747e-06
44 13 0.001 -0.0559798 -0.0003117 -0.0348341 0.0181685 0.0018677 -6.16899e-05 0 6.24747e-06
45 13 0.001 -0.0557573 -0.00117227 -0.0343602 0.016792 0.00717879 6.88675e-05 0 6.24747e-06
254 14 0.001 -0.0359798 -0.0003117 -0.0348341 0.0181671 0.00187132 -5.45784e-05 0 6.24747e-06
255 14 0.001 -0.0357573 -0.00117227 -0.0343602 0.0167958 0.00717234 5.47787e-05 0 6.24747e-06
504 17 0.001 -0.0159798 -0.0003117 -0.0348341 0.0181669 0.00186947 -5.80533e-05 0 6.24747e-06
505 17 0.001 -0.0157573 -0.00117227 -0.0343602 0.0167958 0.00717302 5.6e-05 0 6.24747e-06
754 20 0.001 0.00402015 -0.0003117 -0.0348341 0.0181669 0.00187017 -5.67339e-05 0 6.24747e-06
755 20 0.001 0.00424275 -0.00117227 -0.0343602 0.0167959 0.00717262 5.52256e-05 0 6.24747e-06
1004 23 0.001 0.0240202 -0.0003117 -0.0348341 0.0181666 0.00187446 -4.8579e-05 0 6.24747e-06
1005 23 0.001 0.0242427 -0.00117227 -0.0343602 0.0167973 0.00716907 4.80386e-05 0 6.24747e-06
1254 26 0.001 0.0440202 -0.0003117 -0.0348341 0.0181685 0.0018677 -6.16899e-05 0 6.24747e-06
1255 26 0.001 0.0442427 -0.00117227 -0.0343602 0.016792 0.00717879 6.88675e-05 0 6.24747e-06
43 13 0.001 -0.0559402 0.000576306 -0.0353081 0.0179256 -0.00348571 5.18613e-05 0 6.24747e-06
253 14 0.001 -0.0359402 0.000576306 -0.0353081 0.0179265 -0.00348604 5.15741e-05 0 6.24747e-06
503 17 0.001 -0.0159402 0.000576306 -0.0353081 0.0179277 -0.00348266 5.83115e-05 0 6.24747e-06
753 20 0.001 0.00405984 0.000576306 -0.0353081 0.0179275 -0.00348362 5.64234e-05 0 6.24747e-06
1003 23 0.001 0.0240598 0.000576306 -0.0353081 0.0179264 -0.00348839 4.71437e-05 0 6.24747e-06
1253 26 0.001 0.0440598 0.000576306 -0.0353081 0.0179256 -0.00348571 5.18613e-05 0 6.24747e-06
46 13 0.001 -0.055292 -0.00192965 -0.0338863 0.0139961 0.011733 -7.33536e-05 0 6.24747e-06
47 13 0.001 -0.0546249 -0.00251719 -0.0334123 0.00987145 0.0153652 7.52095e-05 0 6.24747e-06
48 13 0.001 -0.0538149 -0.00288316 -0.0329384 0.00500491 0.0175635 -7.44946e-05 0 6.24747e-06
49 13 0.001 -0.0529331 -0.00299536 -0.0324645 -0.000445482 0.0182582 7.12404e-05 0 6.24747e-06
256 14 0.001 -0.035292 -0.00192965 -0.0338863 0.0139884 0.0117407 -5.27314e-05 0 6.24747e-06
257 14 0.001 -0.0346249 -0.00251719 -0.0334123 0.00988343 0.0153583 4.90899e-05 0 6.24747e-06
258 14 0.001 -0.0338149 -0.00288316 -0.0329384 0.00498951 0.0175674 -4.44464e-05 0 6.24747e-06
259 14 0.001 -0.0329331 -0.00299536 -0.0324645 -0.000428578 0.0182587 3.92461e-05 0 6.24747e-06
506 17 0.001 -0.015292 -0.00192965 -0.0338863 0.0139883 0.0117407 -5.2636e-05 0 6.24747e-06
507 17 0.001 -0.0146249 -0.00251719 -0.0334123 0.00988374 0.0153581 4.84362e-05 0 6.24747e-06
508 17 0.001 -0.0138149 -0.00288316 -0.0329384 0.00498917 0.0175676 -4.37743e-05 0 6.24747e-06
509 17 0.001 -0.0129331 -0.00299536 -0.0324645 -0.000428387 0.0182587 3.88887e-05 0 6.24747e-06
756 20 0.001 0.00470804 -0.00192965 -0.0338863 0.0139882 0.0117409 -5.22971e-05 0 6.24747e-06
757 20 0.001 0.00537507 -0.00251719 -0.0334123 0.00988376 0.0153581 4.83645e-05 0 6.24747e-06
758 20 0.001 0.00618513 -0.00288316 -0.0329384 0.00498917 0.0175676 -4.37767e-05 0 6.24747e-06
759 20 0.001 0.00706691 -0.00299536 -0.0324645 -0.000428331 0.0182587 3.87786e-05 0 6.24747e-06
1006 23 0.001 0.024708 -0.00192965 -0.0338863 0.0139862 0.0117435 -4.60026e-05 0 6.24747e-06
1007 23 0.001 0.0253751 -0.00251719 -0.0334123 0.0098861 0.0153564 4.29429e-05 0 6.24747e-06
1008 23 0.001 0.0261851 -0.00288316 -0.0329384 0.0049869 0.0175683 -3.92338e-05 0 6.24747e-06
1009 23 0.001 0.0270669 -0.00299536 -0.0324645 -0.000426397 0.0182586 3.51205e-05 0 6.24747e-06
1256 26 0.001 0.044708 -0.00192965 -0.0338863 0.0139961 0.011733 -7.33536e-05 0 6.24747e-06
1257 26 0.001 0.0453751 -0.00251719 -0.0334123 0.00987145 0.0153652 7.52095e-05 0 6.24747e-06
1258 26 0.001 0.0461851 -0.00288316 -0.0329384 0.00500491 0.0175635 -7.44946e-05 0 6.24747e-06
1259 26 0.001 0.0470669 -0.00299536 -0.0324645 -0.000445482 0.0182582 7.12404e-05 0 6.24747e-06
50 13 0.001 -0.0520572 -0.0028439 -0.0319905 -0.00571376 0.0173451 -6.54802e-05 0 6.24747e-06
51 13 0.001 -0.0512643 -0.00244212 -0.0315166 -0.0106056 0.0148697 5.73106e-05 0 6.24747e-06
52 13 0.001 -0.0506242 -0.00182539 -0.0310427 -0.0144657 0.0111454 -4.69595e-05 0 6.24747e-06
260 14 0.001 -0.0320572 -0.0028439 -0.0319905 -0.00572974 0.01734 -3.3755e-05 0 6.24747e-06
261 14 0.001 -0.0312643 -0.00244212 -0.0315166 -0.0105927 0.0148782 2.80757e-05 0 6.24747e-06
262 14 0.001 -0.0306242 -0.00182539 -0.0310427 -0.0144743 0.0111355 -2.21974e-05 0 6.24747e-06
510 17 0.001 -0.0120572 -0.0028439 -0.0319905 -0.0057297 0.0173401 -3.38847e-05 0 6.24747e-06
511 17 0.001 -0.0112643 -0.00244212 -0.0315166 -0.0105929 0.0148779 2.87665e-05 0 6.24747e-06
512 17 0.001 -0.0106242 -0.00182539 -0.0310427 -0.0144739 0.0111361 -2.34913e-05 0 6.24747e-06
760 20 0.001 0.0079428 -0.0028439 -0.0319905 -0.00572987 0.01734 -3.34999e-05 0 6.24747e-06
761 20 0.001 0.00873571 -0.00244212 -0.0315166 -0.0105926 0.0148782 2.79712e-05 0 6.24747e-06
762 20 0.001 0.00937584 -0.00182539 -0.0310427 -0.0144743 0.0111355 -2.21649e-05 0 6.24747e-06
1010 23 0.001 0.0279428 -0.0028439 -0.0319905 -0.00573131 0.0173397 -3.07187e-05 0 6.24747e-06
1011 23 0.001 0.0287357 -0.00244212 -0.0315166 -0.0105917 0.0148787 2.60422e-05 0 6.24747e-06