ITEM: TIMESTEP
19
ITEM: NUMBER OF ATOMS
1472
ITEM: BOX BOUNDS ff ff ff
-6.0000000000000005e-02 6.0000000000000005e-02
-6.0000000000000001e-03 6.0000000000000001e-03
-5.5000000000000000e-02 5.5000000000000000e-02
ITEM: ATOMS id type radius x y z fx fy fz c_bendingE c_stretchingE
1 1 0.001 -0.0487804 0.00132959 -0.0519939 -13.9068 -6.17602 41.2982 0 0.0333354
13 13 0.001 -0.0505367 0.00138399 -0.0481503 -5.91928 18.1901 -15.4185 0 0.0223185
433 15 0.001 -0.0495173 0.000368943 -0.048715 23.479 -7.26173 -26.039 0 0.0286143
434 15 0.001 -0.0468194 -0.000241066 -0.0513698 5.78702 -22.3357 35.5096 0 0.0161467
435 15 0.001 -0.0475714 -0.000194996 -0.0505337 -16.5209 41.9082 -44.4519 0 0.00321479
436 15 0.001 -0.045365 0.000176468 -0.0503754 1.12201 -11.5964 35.6197 0 0.0116499
437 15 0.001 -0.0424151 3.41519e-05 -0.0496146 -3.29084 -4.391 -21.7712 0 0.0119758
438 15 0.001 -0.0417145 -0.00187553 -0.048527 -19.883 27.6904 -13.3524 0 0.0244899
439 15 0.001 -0.0436059 0.000692812 -0.0513198 21.4324 -14.6793 44.2704 0 0.0425686
440 15 0.001 -0.0419179 -0.00114432 -0.0478369 -6.36772 26.7592 -33.5111 0 0.0348979
441 15 0.001 -0.0435755 0.00123494 -0.049929 8.74108 -41.3895 -6.99012 0 0.0208043
442 15 0.001 -0.0408401 0.000212958 -0.0497888 -16.0797 51.3216 12.8072 0 0.00787702
443 15 0.001 -0.0394718 0.000473767 -0.0494967 32.1062 -38.2441 -32.6181 0 0.0235183
444 15 0.001 -0.04013 -0.000214816 -0.0537933 5.19344 10.3375 63.251 0 0.0713874
445 15 0.001 -0.0388855 0.000914976 -0.0481118 -13.9458 -12.4489 -49.4577 0 0.0708858
446 15 0.001 -0.0355928 0.000308012 -0.0509101 -11.0982 2.60868 42.1717 0 0.0248469
447 15 0.001 -0.0337094 -0.000466577 -0.0508348 -12.9578 2.41275 9.05854 0 0.0371533
448 15 0.001 -0.0346866 -0.000563527 -0.0457429 7.77688 10.1731 -91.6 0 0.149871
449 15 0.001 -0.0340815 0.00110247 -0.0541726 -9.27045 -25.5993 79.3342 0 0.133865
450 15 0.001 -0.0351407 -0.000277069 -0.0504885 6.76064 36.1254 -14.8622 0 0.0203472
451 15 0.001 -0.0343646 -0.000194293 -0.0488382 21.4547 -22.925 -9.98999 0 0.0169724
223 14 0.001 -0.0301064 0.00148195 -0.046638 -7.66224 3.35111 -32.3019 0 0.0187732
452 15 0.001 -0.030871 -2.03665e-05 -0.0502818 -12.3842 8.76025 18.8526 0 0.0185524
3 3 0.001 -0.0314447 0.00206415 -0.0498231 18.4351 -22.0021 4.97743 0 0.0237342
683 18 0.001 -0.0299239 -0.0003117 -0.0487832 -0.233903 2.86042 -16.8316 0 0.017956
684 18 0.001 -0.0290422 -0.000139358 -0.0518629 -8.43619 -4.99434 21.2026 0 0.0136731
685 18 0.001 -0.0272217 -1.32534e-05 -0.0503469 8.15579 9.6544 -29.928 0 0.0158016
686 18 0.001 -0.0238352 -0.000435689 -0.050764 -30.1106 -6.22244 51.5847 0 0.0126965
687 18 0.001 -0.0224952 -0.000530755 -0.049916 20.9486 19.2017 -1.5957 0 0.031684
688 18 0.001 -0.0209187 0.00171764 -0.0458117 -36.0004 -42.6595 -76.9035 0 0.160944
689 18 0.001 -0.0243606 -0.00233466 -0.0531958 38.5673 39.2184 79.1049 0 0.163696
690 18 0.001 -0.0232122 -0.00133307 -0.0483175 3.2774 11.8567 -26.5012 0 0.0426853
691 18 0.001 -0.0231759 0.00135668 -0.049881 -0.638766 -24.4703 -11.6038 0 0.0151866
692 18 0.001 -0.020663 0.0002791 -0.0501561 -3.81012 28.6196 5.47999 0 0.00740773
693 18 0.001 -0.019148 0.00026103 -0.0492618 10.9112 -17.5428 -31.512 0 0.0259945
694 18 0.001 -0.0203242 0.000260586 -0.053628 8.29296 4.26513 61.621 0 0.0659642
695 18 0.001 -0.0185828 0.000919333 -0.0484024 -22.337 -16.0932 -49.808 0 0.0520933
696 18 0.001 -0.0159652 0.00013072 -0.0503006 15.0782 6.12747 47.9316 0 0.0145754
697 18 0.001 -0.0138204 -0.000428633 -0.0510466 -21.6501 3.50916 6.17158 0 0.0353258
698 18 0.001 -0.0141736 -0.000373746 -0.0460754 -1.09928 5.19695 -81.9302 0 0.115256
699 18 0.001 -0.0142221 0.000559989 -0.0535063 -3.37944 -16.8869 62.4695 0 0.0897289
700 18 0.001 -0.0149338 5.49959e-05 -0.0509096 10.8962 28.3753 -4.1092 0 0.00855616
701 18 0.001 -0.0145478 3.52489e-05 -0.0488623 18.6529 -20.3932 -10.7513 0 0.0204572
702 18 0.001 -0.0107972 -0.000164948 -0.0502402 -14.7236 8.9164 17.063 0 0.0204586
5 5 0.001 -0.0113171 0.0018503 -0.0501363 15.6892 -22.1776 5.63201 0 0.0224066
473 17 0.001 -0.0101285 0.0015605 -0.0467826 -10.6502 0.985927 -31.1161 0 0.0182099
933 21 0.001 -0.0100218 -0.000209037 -0.0487075 0.708575 1.13408 -15.8726 0 0.0171645
934 21 0.001 -0.00931141 -3.10572e-05 -0.0519025 -3.64697 1.06108 18.9413 0 0.0176755
935 21 0.001 -0.00694677 -0.000164387 -0.0502458 1.83205 -14.5351 -9.06861 0 0.015514
936 21 0.001 -0.00392697 -7.99028e-06 -0.0503534 -30.9097 61.8721 12.0605 0 0.00846961
937 21 0.001 -0.00273427 0.000448058 -0.050278 24.1265 -50.664 16.3758 0 0.0227571
938 21 0.001 -0.000825458 -0.000198253 -0.0464116 -49.8746 5.63406 -70.5884 0 0.142516
939 21 0.001 -0.00609727 -0.000425295 -0.053427 65.8108 8.87426 94.6261 0 0.213065
940 21 0.001 -0.00310564 -3.46541e-05 -0.0461791 -13.3092 1.35992 -73.7158 0 0.109492
941 21 0.001 -0.00400819 0.000147677 -0.049925 10.0189 -6.47402 16.3942 0 0.0360041
942 21 0.001 -0.000131776 0.000101992 -0.0513553 4.91465 -3.9655 12.8256 0 0.0323878
943 21 0.001 0.00206058 -0.000232028 -0.0486229 -16.8859 3.90743 -27.0204 0 0.0227479
944 21 0.001 0.000799287 -2.33199e-05 -0.0515863 -11.3261 0.537165 27.9248 0 0.0104534
945 21 0.001 0.000222742 -2.2491e-05 -0.0502491 19.2511 11.2404 10.6642 0 0.0109414
946 21 0.001 0.003498 3.75686e-05 -0.0504473 -13.3552 -31.5327 -15.376 0 0.0117871
947 21 0.001 0.00526639 -4.06062e-05 -0.0506987 32.0011 20.832 29.8891 0 0.00286065
948 21 0.001 0.00435139 3.25354e-05 -0.0490767 -29.082 -1.39448 -3.02818 0 0.00194352
949 21 0.001 0.00574405 2.05523e-05 -0.0493376 -3.21984 1.50742 -31.8066 0 0.00226136
950 21 0.001 0.0070804 -1.89354e-05 -0.0507575 -19.1871 -0.551458 8.81694 0 0.00837392
951 21 0.001 0.00433378 -3.69917e-06 -0.0502616 27.7419 1.53544 11.6641 0 0.019654
7 7 0.001 0.01 0 -0.05 -18.7437 7.66814 39.3855 0 0.0332339
723 20 0.001 0.00961816 0.00120026 -0.0481797 -41.9628 -3.54081 20.7101 0 0.0030833
952 21 0.001 0.00683481 0.000373724 -0.0477577 5.50494 -5.00854 -27.1956 0 0.0299746
1183 24 0.001 0.0108964 1.65557e-05 -0.0465318 11.1034 -0.198141 -44.3248 0 0.0418838
1184 24 0.001 0.0136403 -1.84903e-06 -0.0504435 -22.0684 0.012455 20.3404 0 0.0298607
1185 24 0.001 0.0121335 -1.86448e-06 -0.0514427 13.0221 0.0939427 24.8881 0 0.0167867
1186 24 0.001 0.0132769 -5.64505e-06 -0.0478475 16.0798 -0.0874432 -32.2249 0 0.0380564
1187 24 0.001 0.0171022 4.7947e-06 -0.0499498 -28.3344 -0.284418 -5.78976 0 0.0246658
1188 24 0.001 0.0186219 1.80741e-05 -0.0512331 -15.5033 -0.382111 14.2689 0 0.00794074
1189 24 0.001 0.0164864 -5.86598e-06 -0.0495693 24.412 0.196086 -4.46609 0 0.00841437
1190 24 0.001 0.017373 3.74694e-06 -0.0514746 34.0867 -9.59526 -6.59087 0 0.0213423
1191 24 0.001 0.0207603 1.39077e-05 -0.0492226 35.6571 -28.8369 -87.7154 0 0.0188558
1192 24 0.001 0.0199028 -1.99079e-05 -0.0498424 -74.1529 37.8987 99.7209 0 0.000166422
1193 24 0.001 0.0202667 -8.54282e-06 -0.0510395 9.64914 2.35135 14.7528 0 0.00813487
1194 24 0.001 0.0218154 1.08568e-05 -0.0484844 -1.90921 -0.430731 -39.4753 0 0.0189637
1195 24 0.001 0.0200474 -6.88794e-06 -0.0513131 18.0993 -0.952724 18.9425 0 0.0177333
1196 24 0.001 0.022192 -1.94222e-06 -0.0494723 12.8586 0.569717 40.7198 0 0.0114155
1197 24 0.001 0.0242208 -2.06803e-05 -0.0509554 47.1569 -0.194618 13.092 0 0.00488468
1198 24 0.001 0.0236371 -1.00156e-06 -0.0497831 -68.8795 0.145787 -57.3836 0 0.00103106
1199 24 0.001 0.0248364 1.66878e-05 -0.0487013 8.96767 -0.703126 -8.64946 0 0.0133639
1200 24 0.001 0.024793 -6.21352e-05 -0.0521995 -10.6776 4.05986 23.4397 0 0.0163923
1201 24 0.001 0.026026 5.02786e-05 -0.0501781 7.72894 -5.5153 8.94961 0 0.0229569
9 9 0.001 0.03 0 -0.05 -10.4784 -12.6019 31.6838 0 0.0252128
973 23 0.001 0.0296182 0.00120026 -0.0481797 -41.9628 -3.54081 20.7101 0 0.0030833
1202 24 0.001 0.0287512 8.73726e-05 -0.0471281 -15.4043 1.68388 -27.3136 0 0.028293
1433 27 0.001 0.0302916 -0.00300845 -0.0481469 15.8922 37.2994 -18.8463 0 0.0389053
1434 27 0.001 0.033297 0.000170125 -0.0495704 -26.8676 -6.96225 -7.10019 0 0.0409135
1435 27 0.001 0.0312064 0.00226443 -0.0518518 18.5003 -35.9129 14.2596 0 0.0359948
1436 27 0.001 0.0326708 -0.00168572 -0.0523098 18.9331 21.856 16.5891 0 0.0530703
1437 27 0.001 0.0366333 -0.00224599 -0.0492928 -12.1395 24.8531 -5.64041 0 0.0519576
1438 27 0.001 0.0368228 0.00129266 -0.0471332 11.2275 -16.4444 -28.1436 0 0.0319137
1439 27 0.001 0.037217 0.000178348 -0.050373 1.21933 4.53734 6.42968 0 0.0218273
1440 27 0.001 0.0400125 -0.000524725 -0.0489788 11.7464 27.1875 -6.81026 0 0.0116308
1441 27 0.001 0.0388566 0.000474739 -0.0501838 -15.8381 -3.43 16.9256 0 0.00235571
1442 27 0.001 0.0396915 0.000138641 -0.0490136 -13.219 -32.1133 -1.90586 0 0.00577243
1443 27 0.001 0.0420697 -8.68514e-05 -0.0500682 -12.5051 3.97027 -20.9547 0 0.0280853
1444 27 0.001 0.0417863 0.000910577 -0.0543214 0.192364 -15.3569 74.3769 0 0.0975178
1445 27 0.001 0.0406372 -0.00035093 -0.047395 24.1568 10.6967 -64.0294 0 0.0976988
1446 27 0.001 0.0432234 0.000106802 -0.0509142 -15.5942 -4.11336 25.4033 0 0.0253952
1447 27 0.001 0.0453022 0.000120925 -0.0508621 13.6348 3.02228 11.2579 0 0.0151559
1448 27 0.001 0.0451674 -0.000142242 -0.0473555 -2.5175 3.55075 -60.6 0 0.071184
1449 27 0.001 0.046437 0.000571861 -0.0536095 -25.421 -10.1517 63.0839 0 0.0774075
1450 27 0.001 0.0447959 -0.000179265 -0.0499521 16.632 10.4874 -94.6445 0 0.0194566
1451 27 0.001 0.0462282 0.000106405 -0.0497946 -26.8562 -11.4748 119.057 0 0.00457211
1452 27 0.001 0.0482422 0.000441948 -0.0485036 26.4022 8.8381 -62.3884 0 0.0142437
11 11 0.001 0.0499543 0.000809854 -0.0512358 -19.8567 -0.350819 29.058 0 0.0195148
1223 26 0.001 0.0486588 0.00169522 -0.0484989 -18.4834 -36.8582 0.957524 0 0.00975015
14 13 0.001 -0.0518085 0.00139318 -0.0494885 24.0693 -1.8521 10.957 0 0.0133273
224 14 0.001 -0.0309027 0.00177164 -0.0492495 4.76768 6.39624 23.6045 0 0.00927197
474 17 0.001 -0.0110543 0.00169199 -0.0491645 9.45235 8.49916 21.2607 0 0.00835554
724 20 0.001 0.00925765 0.00146752 -0.0488443 24.4307 12.6362 -4.50909 0 0.000904622
974 23 0.001 0.0292577 0.00146752 -0.0488443 24.4307 12.6362 -4.50909 0 0.000904622
1224 26 0.001 0.0484812 0.00166776 -0.0489986 34.9726 28.3361 0.707528 0 0.0113491
17 13 0.001 -0.0520821 0.00289275 -0.0495451 17.343 -7.66934 35.8912 0 0.0225837
15 13 0.001 -0.0494174 0.00174115 -0.0470604 -7.56871 -9.7036 -32.3916 0 0.0191276
16 13 0.001 -0.0492588 0.00226841 -0.049907 -14.6587 -3.41878 6.3924 0 0.0147051
226 14 0.001 -0.0294236 0.00238699 -0.0498314 -17.0794 -10.5671 3.69687 0 0.0133615
227 14 0.001 -0.0322387 0.002807 -0.0493161 19.8245 -1.49725 34.7741 0 0.0194527
225 14 0.001 -0.0298864 0.00149287 -0.0472864 -7.39407 6.93749 -18.396 0 0.00921161
477 17 0.001 -0.0122375 0.00279324 -0.049297 20.2145 -0.974996 34.2656 0 0.0196771
475 17 0.001 -0.00978039 0.00150389 -0.0472699 -5.74926 5.99626 -19.8807 0 0.0097262
476 17 0.001 -0.00936725 0.00241268 -0.0498486 -17.3506 -10.2278 4.44619 0 0.0139795
727 20 0.001 0.00774628 0.00349045 -0.0491266 1.07563 -7.62326 22.4165 0 0.019671
725 20 0.001 0.00978687 0.000704324 -0.0475057 21.6184 3.80452 -14.3121 0 0.00189486
726 20 0.001 0.00974175 0.00187213 -0.0487466 -13.9997 -18.0121 -15.6679 0 0.00623532
976 23 0.001 0.0297418 0.00187213 -0.0487466 -13.9997 -18.0121 -15.6679 0 0.00623532
977 23 0.001 0.0277463 0.00349045 -0.0491266 1.07563 -7.62326 22.4165 0 0.019671
975 23 0.001 0.0297869 0.000704324 -0.0475057 21.6184 3.80452 -14.3121 0 0.00189486
1227 26 0.001 0.0477374 0.00289898 -0.0493313 19.1908 -5.2361 36.6049 0 0.0182964
1225 26 0.001 0.0502109 0.000543951 -0.0463798 -7.28086 20.2957 -33.6275 0 0.0258863
1226 26 0.001 0.050308 0.00220739 -0.0497141 -14.5748 -11.9429 8.87254 0 0.0207176
19 13 0.001 -0.0559366 0.00184471 -0.046018 7.03745 -25.6064 17.0048 0 0.0131063
20 13 0.001 -0.0566285 -0.00122502 -0.047274 11.7039 25.1112 20.8128 0 0.0292853
18 13 0.001 -0.0543168 0.00265397 -0.0465426 -15.2549 6.796 -39.1135 0 0.0168087
230 14 0.001 -0.0366401 -0.00118363 -0.0472335 12.3726 24.0395 20.8722 0 0.0293221
228 14 0.001 -0.0344123 0.00261014 -0.0466257 -15.4039 0.357804 -37.1669 0 0.013853
229 14 0.001 -0.0360237 0.00183083 -0.0460241 6.10973 -21.7978 15.2483 0 0.0123496
480 17 0.001 -0.0166384 -0.00118571 -0.0472374 12.3966 24.0525 20.9393 0 0.0293503
478 17 0.001 -0.0144118 0.00261137 -0.0466321 -15.0135 -0.835094 -36.794 0 0.0136586
479 17 0.001 -0.0160218 0.00183527 -0.0460211 5.68251 -21.2257 14.9187 0 0.0124297
729 20 0.001 0.00509322 0.00245416 -0.0471657 9.29816 -31.811 26.7185 0 0.0172301
730 20 0.001 0.00403522 -0.00123792 -0.0469427 16.5867 32.2924 2.83051 0 0.0313522
728 20 0.001 0.00591678 0.00324655 -0.0459352 -7.28158 20.7766 -17.6339 0 0.0154647
980 23 0.001 0.0240352 -0.00123792 -0.0469427 16.5867 32.2924 2.83051 0 0.0313522
978 23 0.001 0.0259168 0.00324655 -0.0459352 -7.28158 20.7766 -17.6339 0 0.0154647
979 23 0.001 0.0250932 0.00245416 -0.0471657 9.29816 -31.811 26.7185 0 0.0172301
1230 26 0.001 0.0433536 -0.00115524 -0.0471948 12.1407 23.8042 20.1107 0 0.0289667
1228 26 0.001 0.04561 0.00259342 -0.046576 -18.5539 8.99734 -38.3963 0 0.0141884
1229 26 0.001 0.0439622 0.00178946 -0.0460814 8.94365 -26.1972 16.793 0 0.0114938
23 13 0.001 -0.055277 -0.00160251 -0.0459755 -1.28491 18.8554 22.3355 0 0.0248619
233 14 0.001 -0.0352661 -0.0015982 -0.045999 -1.60422 19.1276 22.8989 0 0.025675
483 17 0.001 -0.0152674 -0.00159839 -0.0459978 -1.57754 19.1291 22.8766 0 0.0256661
733 20 0.001 0.00424152 -0.00215825 -0.0453018 2.13443 0.489003 22.1209 0 0.0108792
983 23 0.001 0.0242415 -0.00215825 -0.0453018 2.13443 0.489003 22.1209 0 0.0108792
1233 26 0.001 0.0447515 -0.00159563 -0.0460114 -1.90691 19.0775 23.056 0 0.0256375
21 13 0.001 -0.0544113 0.000364304 -0.0443734 -17.8855 -0.557167 -17.3049 0 0.0214583
22 13 0.001 -0.0559782 0.00209481 -0.0443185 14.5548 -27.0117 -15.6601 0 0.0230301
231 14 0.001 -0.0342953 0.000311631 -0.0442903 -19.7049 1.68908 -19.2374 0 0.0233096
232 14 0.001 -0.0360252 0.00214011 -0.044358 15.6717 -28.8918 -14.1327 0 0.0245831
481 17 0.001 -0.0143002 0.000313486 -0.0442967 -19.6296 1.65132 -19.1369 0 0.0232216
482 17 0.001 -0.0160243 0.0021393 -0.0443543 15.625 -28.8281 -14.2323 0 0.0245464
731 20 0.001 0.00516927 0.0021629 -0.0458642 -0.145733 -27.3385 -7.21036 0 0.0278289
732 20 0.001 0.00374388 -0.000276011 -0.0437696 3.92687 2.33478 -23.2918 0 0.0171768
981 23 0.001 0.0251693 0.0021629 -0.0458642 -0.145733 -27.3385 -7.21036 0 0.0278289
982 23 0.001 0.0237439 -0.000276011 -0.0437696 3.92687 2.33478 -23.2918 0 0.0171768
1231 26 0.001 0.0457564 0.000297484 -0.0442162 -20.3418 1.88311 -20.3349 0 0.024184
1232 26 0.001 0.0439764 0.00214481 -0.0444054 16.1115 -29.3985 -13.0287 0 0.0248086
25 13 0.001 -0.0543766 -0.000110084 -0.0434615 -28.4304 1.17878 11.7369 0 0.00286145
26 13 0.001 -0.0545593 -0.00170345 -0.0434702 9.32416 8.40679 -14.3683 0 0.00151764
235 14 0.001 -0.0343852 -0.000103631 -0.0434649 -28.2631 0.460732 10.9938 0 0.00286867
236 14 0.001 -0.0345544 -0.00170864 -0.0434738 9.73611 8.68619 -13.7822 0 0.00155536
485 17 0.001 -0.014385 -0.000103935 -0.0434647 -28.217 0.486789 10.836 0 0.00287028
486 17 0.001 -0.0145547 -0.00170843 -0.0434736 9.70415 8.68104 -13.8047 0 0.00155376
735 20 0.001 0.00562184 -0.000149719 -0.0434013 6.1852 -8.13518 -11.6307 0 0.00394821
736 20 0.001 0.00532485 -0.00170775 -0.0434755 2.39682 9.8683 -5.87469 0 0.00157873
985 23 0.001 0.0256218 -0.000149719 -0.0434013 6.1852 -8.13518 -11.6307 0 0.00394821
986 23 0.001 0.0253248 -0.00170775 -0.0434755 2.39682 9.8683 -5.87469 0 0.00157873
1235 26 0.001 0.0456144 -0.000101399 -0.0434674 -28.9562 0.307441 13.9989 0 0.00283654
1236 26 0.001 0.0454495 -0.00171016 -0.0434751 10.1565 8.65272 -13.6076 0 0.00156661
24 13 0.001 -0.0535591 -0.0018616 -0.0439846 -8.28917 3.3834 9.86291 0 0.0075586
234 14 0.001 -0.0335496 -0.00185362 -0.0439459 -8.99348 3.479 9.56154 0 0.0078471
484 17 0.001 -0.0135491 -0.00185385 -0.0439482 -8.96098 3.48051 9.55803 0 0.00783983
734 20 0.001 0.00684462 -0.00174567 -0.0444127 -12.9272 13.1448 -4.03803 0 0.00963732
984 23 0.001 0.0268446 -0.00174567 -0.0444127 -12.9272 13.1448 -4.03803 0 0.00963732
1234 26 0.001 0.0464395 -0.00185221 -0.0439211 -9.30781 3.41794 9.69913 0 0.00787924
27 13 0.001 -0.0544137 -0.000123962 -0.0434734 36.957 -24.5608 -18.7496 0 0.0101368
28 13 0.001 -0.0525932 -0.00164299 -0.0413856 12.9041 4.67278 -11.8227 0 0.0101841
29 13 0.001 -0.0519648 -0.00194168 -0.0399386 -3.13389 -26.2558 -17.089 0 0.00279128
30 13 0.001 -0.0527411 -0.00162621 -0.0417369 -3.93092 42.7261 21.331 0 0.0084057
237 14 0.001 -0.0344125 -0.000123631 -0.0434733 36.8368 -24.4732 -18.4178 0 0.0101444
238 14 0.001 -0.0325933 -0.001643 -0.0413855 12.8376 4.69611 -11.7639 0 0.0101794
239 14 0.001 -0.0319648 -0.00194171 -0.0399385 -3.08163 -26.2678 -17.1167 0 0.00279151
240 14 0.001 -0.0327411 -0.00162614 -0.0417368 -3.944 42.7246 21.3393 0 0.00840606
487 17 0.001 -0.0144125 -0.000123642 -0.0434734 36.794 -24.4783 -18.2374 0 0.010144
488 17 0.001 -0.0125933 -0.00164299 -0.0413855 12.8446 4.69883 -11.7666 0 0.0101795
489 17 0.001 -0.0119648 -0.00194172 -0.0399385 -3.08635 -26.2688 -17.1146 0 0.00279147
490 17 0.001 -0.0127411 -0.00162614 -0.0417368 -3.94532 42.7242 21.3396 0 0.00840604
737 20 0.001 0.00563555 -0.000111252 -0.0434649 3.7769 -22.4045 5.97852 0 0.0100204
738 20 0.001 0.0074104 -0.0016374 -0.0413811 14.7628 7.12907 -11.4565 0 0.0099459
739 20 0.001 0.00803425 -0.00194296 -0.0399433 -4.48377 -27.5042 -16.5509 0 0.0027671
740 20 0.001 0.00726042 -0.00162925 -0.0417422 -4.16503 42.6079 21.3177 0 0.00838906
987 23 0.001 0.0256356 -0.000111252 -0.0434649 3.7769 -22.4045 5.97852 0 0.0100204
988 23 0.001 0.0274104 -0.0016374 -0.0413811 14.7628 7.12907 -11.4565 0 0.0099459
989 23 0.001 0.0280343 -0.00194296 -0.0399433 -4.48377 -27.5042 -16.5509 0 0.0027671
990 23 0.001 0.0272604 -0.00162925 -0.0417422 -4.16503 42.6079 21.3177 0 0.00838906
1237 26 0.001 0.045587 -0.000123537 -0.0434729 37.4505 -24.4033 -21.6592 0 0.0101473
1238 26 0.001 0.0474067 -0.00164305 -0.0413856 12.7415 4.6393 -11.7387 0 0.0101798
1239 26 0.001 0.0480352 -0.00194169 -0.0399384 -3.02417 -26.2455 -17.1415 0 0.00279202
1240 26 0.001 0.0472589 -0.00162608 -0.0417367 -3.90977 42.7347 21.3279 0 0.00840634
31 13 0.001 -0.050235 -0.00236626 -0.0426772 -3.54594 -3.16123 3.95407 0 0.00679901
241 14 0.001 -0.030235 -0.00236628 -0.0426771 -3.54593 -3.16002 3.95456 0 0.00679933
491 17 0.001 -0.010235 -0.00236628 -0.0426771 -3.54587 -3.16002 3.95454 0 0.00679931
741 20 0.001 0.00976651 -0.00236532 -0.0426798 -3.51618 -3.13375 3.9527 0 0.00678486
991 23 0.001 0.0297665 -0.00236532 -0.0426798 -3.51621 -3.13375 3.95271 0 0.00678486
1241 26 0.001 0.049765 -0.00236629 -0.0426771 -3.54639 -3.1602 3.95457 0 0.00679958
32 13 0.001 -0.0499238 -0.00278526 -0.0413513 -16.1684 24.0305 11.7003 0 0.0247374
33 13 0.001 -0.0513148 0.000835655 -0.0390901 14.1377 -10.941 -22.7469 0 0.0349107
242 14 0.001 -0.0299238 -0.00278532 -0.0413513 -16.1689 24.0296 11.6996 0 0.0247371
243 14 0.001 -0.0313148 0.000835647 -0.0390902 14.137 -10.9413 -22.7467 0 0.0349105
492 17 0.001 -0.00992384 -0.00278532 -0.0413513 -16.1689 24.0296 11.6997 0 0.0247371
493 17 0.001 -0.0113148 0.000835647 -0.0390902 14.137 -10.9413 -22.7467 0 0.0349105
742 20 0.001 0.0100777 -0.00278263 -0.0413535 -16.1673 24.0289 11.7221 0 0.0247478
743 20 0.001 0.00868461 0.000836007 -0.0390885 14.1714 -10.9301 -22.7579 0 0.0349197
992 23 0.001 0.0300777 -0.00278263 -0.0413535 -16.1673 24.0289 11.7221 0 0.0247478
993 23 0.001 0.0286846 0.000836008 -0.0390885 14.1715 -10.9301 -22.7579 0 0.0349197
1242 26 0.001 0.0500761 -0.00278537 -0.0413513 -16.1688 24.0297 11.6993 0 0.024737
1243 26 0.001 0.0486852 0.000835641 -0.0390902 14.1364 -10.9415 -22.7465 0 0.0349103
34 13 0.001 -0.0507625 0.00310488 -0.0414097 -14.748 -34.6926 17.6486 0 0.0263118
244 14 0.001 -0.0307624 0.00310488 -0.0414097 -14.7495 -34.6909 17.6482 0 0.0263099
494 17 0.001 -0.0107624 0.00310488 -0.0414097 -14.7496 -34.6908 17.6482 0 0.0263098
744 20 0.001 0.00923558 0.00310473 -0.0414086 -14.6911 -34.7609 17.6633 0 0.02639
994 23 0.001 0.0292356 0.00310473 -0.0414086 -14.691 -34.7611 17.6634 0 0.0263902
1244 26 0.001 0.0492376 0.00310489 -0.0414097 -14.7503 -34.6899 17.648 0 0.0263087
36 13 0.001 -0.0509333 0.000871364 -0.035949 -18.1577 -8.13897 -19.0827 0 0.0272938
35 13 0.001 -0.0508351 -0.000519422 -0.040265 3.76732 29.4605 18.9068 0 0.0407131
245 14 0.001 -0.0308352 -0.000519243 -0.0402651 3.76957 29.4575 18.908 0 0.0407112
246 14 0.001 -0.0309333 0.000871334 -0.035949 -18.1587 -8.13685 -19.0816 0 0.0272936
496 17 0.001 -0.0109333 0.000871342 -0.035949 -18.159 -8.13661 -19.0808 0 0.0272934
495 17 0.001 -0.0108352 -0.000519236 -0.0402651 3.76965 29.4573 18.908 0 0.0407111
746 20 0.001 0.00906631 0.000872759 -0.0359494 -18.1182 -8.21553 -19.109 0 0.0272995
745 20 0.001 0.00916975 -0.000526665 -0.0402622 3.67466 29.5838 18.8591 0 0.0407885
995 23 0.001 0.0291698 -0.000526681 -0.0402622 3.67444 29.5841 18.859 0 0.0407887
996 23 0.001 0.0290663 0.000872754 -0.0359494 -18.1178 -8.21577 -19.1098 0 0.0272996
1246 26 0.001 0.0490667 0.000871307 -0.035949 -18.1593 -8.13577 -19.0816 0 0.0272935
1245 26 0.001 0.0491647 -0.00051913 -0.0402651 3.77098 29.4556 18.9087 0 0.04071
38 13 0.001 -0.0537425 0.00430824 -0.0403684 15.5406 -25.9398 58.1011 0 0.074492
39 13 0.001 -0.0517583 0.00280166 -0.0347915 -14.0638 0.334772 -50.3021 0 0.0588366
37 13 0.001 -0.0522023 0.00220618 -0.0368711 7.48358 17.5255 -25.0212 0 0.0249097
249 14 0.001 -0.0317584 0.0028017 -0.0347915 -14.0643 0.333968 -50.3007 0 0.0588359
247 14 0.001 -0.0322022 0.00220611 -0.0368712 7.48343 17.5238 -25.0233 0 0.0249099
248 14 0.001 -0.0337426 0.00430823 -0.0403683 15.5405 -25.9387 58.1014 0 0.0744916
499 17 0.001 -0.0117585 0.00280176 -0.0347914 -14.0646 0.330785 -50.2996 0 0.0588363
498 17 0.001 -0.0137426 0.00430821 -0.0403683 15.5397 -25.9379 58.1018 0 0.0744912
497 17 0.001 -0.0122022 0.00220609 -0.0368712 7.48361 17.5228 -25.0245 0 0.0249097
748 20 0.001 0.00625741 0.00430827 -0.0403689 15.5331 -25.9349 58.0875 0 0.0744665
749 20 0.001 0.00824213 0.00280275 -0.0347922 -14.0549 0.284696 -50.3104 0 0.0588341
747 20 0.001 0.00779422 0.00220893 -0.0368705 7.47618 17.5687 -24.955 0 0.0248986
999 23 0.001 0.0282422 0.0028027 -0.0347922 -14.0547 0.287453 -50.3111 0 0.0588335
997 23 0.001 0.0277942 0.00220894 -0.0368705 7.4758 17.5696 -24.9538 0 0.0248988
998 23 0.001 0.0262574 0.00430829 -0.0403689 15.534 -25.9354 58.0871 0 0.0744666
1249 26 0.001 0.0482416 0.00280162 -0.0347915 -14.0642 0.336589 -50.3017 0 0.0588367
1248 26 0.001 0.0462575 0.00430824 -0.0403683 15.5408 -25.9399 58.1016 0 0.074493
1247 26 0.001 0.0477979 0.00220607 -0.0368712 7.48379 17.5236 -25.0239 0 0.0249102
42 13 0.001 -0.0566695 0.00150444 -0.0362375 17.452 -19.5125 6.55759 0 0.0413945
252 14 0.001 -0.0366685 0.00150527 -0.0362378 17.4152 -19.5318 6.56455 0 0.041379
502 17 0.001 -0.0166682 0.0015059 -0.0362378 17.4024 -19.5428 6.56806 0 0.0413779
752 20 0.001 0.00333091 0.00150497 -0.0362373 17.4299 -19.5074 6.5593 0 0.0413871
1002 23 0.001 0.0233309 0.00150455 -0.0362373 17.4335 -19.5029 6.55696 0 0.0413838
1252 26 0.001 0.0433305 0.00150447 -0.0362375 17.451 -19.5138 6.55791 0 0.0413942
40 13 0.001 -0.0531862 0.00211591 -0.0371621 -15.9901 -0.223774 1.78039 0 0.0304713
41 13 0.001 -0.0569959 0.00147023 -0.0393318 26.2858 6.64008 24.7469 0 0.0325308
251 14 0.001 -0.0369965 0.00147025 -0.0393317 26.2988 6.65149 24.7451 0 0.0325352
250 14 0.001 -0.0331862 0.00211566 -0.0371621 -15.9926 -0.22325 1.77967 0 0.0304772
501 17 0.001 -0.0169967 0.00147029 -0.0393316 26.3017 6.65446 24.7431 0 0.0325358
500 17 0.001 -0.0131861 0.00211536 -0.0371621 -15.993 -0.219739 1.77971 0 0.0304796
750 20 0.001 0.00681343 0.00211462 -0.0371619 -16.0184 -0.192219 1.78953 0 0.0304726
751 20 0.001 0.00300371 0.00146999 -0.0393318 26.2975 6.62258 24.7451 0 0.0325326
1001 23 0.001 0.0230038 0.00146996 -0.0393319 26.2983 6.62267 24.7465 0 0.0325332
1000 23 0.001 0.0268133 0.00211485 -0.0371618 -16.0189 -0.195484 1.78932 0 0.0304718
1251 26 0.001 0.0430041 0.00147024 -0.0393318 26.286 6.64132 24.7468 0 0.032531
1250 26 0.001 0.0468139 0.00211594 -0.0371621 -15.9891 -0.224872 1.78 0 0.0304715
44 13 0.001 -0.0561044 0.000699608 -0.0364868 19.9731 -2.66829 31.8338 0 0.0438765
45 13 0.001 -0.0561673 -0.00275642 -0.0356074 4.32791 21.43 25.103 0 0.039592
254 14 0.001 -0.0361028 0.000700152 -0.0364856 20.0513 -2.63395 31.7875 0 0.0437501
255 14 0.001 -0.0361761 -0.00274725 -0.0356084 4.08992 21.2398 25.0102 0 0.0392125
504 17 0.001 -0.0161034 0.000698936 -0.0364876 20.0574 -2.61861 31.8036 0 0.0437706
505 17 0.001 -0.0161752 -0.0027464 -0.0356067 4.1146 21.2216 24.9996 0 0.0391992
754 20 0.001 0.00389696 0.000699956 -0.0364869 20.0481 -2.63786 31.8059 0 0.043773
755 20 0.001 0.00382428 -0.00274666 -0.0356074 4.10365 21.231 25.0025 0 0.0392066
1004 23 0.001 0.0238979 0.00070147 -0.0364841 20.06 -2.64849 31.7751 0 0.043723
1005 23 0.001 0.0238218 -0.00274621 -0.0356097 4.0187 21.2244 25.0001 0 0.0391586
1254 26 0.001 0.0438956 0.000699578 -0.0364868 19.9735 -2.66763 31.8336 0 0.0438761
1255 26 0.001 0.0438327 -0.00275641 -0.0356074 4.32812 21.4296 25.1029 0 0.0395916
43 13 0.001 -0.0539196 0.000819232 -0.0320812 -31.525 3.2654 -50.9006 0 0.0630433
253 14 0.001 -0.0339203 0.000819326 -0.0320815 -31.51 3.28306 -50.8805 0 0.0629914
503 17 0.001 -0.0139203 0.00081901 -0.0320815 -31.5091 3.28831 -50.8927 0 0.0630233
753 20 0.001 0.00608015 0.000819401 -0.0320814 -31.5208 3.27929 -50.8926 0 0.0630211
1003 23 0.001 0.0260799 0.000819771 -0.0320814 -31.5169 3.2776 -50.8717 0 0.0629685
1253 26 0.001 0.0460803 0.00081922 -0.0320812 -31.5245 3.26573 -50.9005 0 0.0630431
46 13 0.001 -0.055537 -0.00094344 -0.0313908 12.4167 -14.9164 -18.1271 0 0.0285852
47 13 0.001 -0.054268 -0.00134017 -0.032935 -5.78624 -7.65704 -18.8827 0 0.0216279
48 13 0.001 -0.0532645 -0.00442033 -0.0354696 -7.45862 24.1537 32.7266 0 0.0373204
49 13 0.001 -0.0536852 -0.0032319 -0.031683 4.35392 -7.00093 -18.9283 0 0.0199612
256 14 0.001 -0.0355504 -0.000953123 -0.0314051 13.2395 -14.8158 -17.1034 0 0.028313
257 14 0.001 -0.0342545 -0.00133962 -0.0329353 -8.00881 -6.95557 -20.6462 0 0.0207908
258 14 0.001 -0.03335 -0.0043873 -0.0354336 -4.35652 21.9888 30.9779 0 0.0332979
259 14 0.001 -0.0334951 -0.00329012 -0.031891 5.23417 -1.74055 -19.9451 0 0.0170544
506 17 0.001 -0.0155486 -0.000952519 -0.0314037 13.2214 -14.7959 -17.1521 0 0.028306
507 17 0.001 -0.0142572 -0.00134078 -0.0329356 -7.98608 -6.97965 -20.581 0 0.0208152
508 17 0.001 -0.0133454 -0.00438751 -0.0354364 -4.62815 22.1807 31.002 0 0.033421
509 17 0.001 -0.0135009 -0.00328952 -0.0318854 5.16734 -2.0795 -19.2497 0 0.017259
756 20 0.001 0.00445049 -0.000952852 -0.0314045 13.2393 -14.8045 -17.1228 0 0.0283071
757 20 0.001 0.00574407 -0.00134017 -0.0329358 -8.00098 -6.95707 -20.6143 0 0.0207903
758 20 0.001 0.00665105 -0.00438731 -0.035434 -4.41171 22.0193 30.9844 0 0.0333265
759 20 0.001 0.00650349 -0.00328984 -0.031889 5.26074 -1.84827 -19.8732 0 0.0170872
1006 23 0.001 0.0244454 -0.000955564 -0.0314086 13.3691 -14.8077 -16.8982 0 0.0282698
1007 23 0.001 0.0257504 -0.00133857 -0.0329342 -8.41686 -6.86014 -20.9915 0 0.0206749
1008 23 0.001 0.0266363 -0.00438232 -0.0354274 -3.77387 21.6211 30.7079 0 0.0326981
1009 23 0.001 0.0265376 -0.00329846 -0.0319259 5.64319 -0.544382 -20.2429 0 0.0166481
1256 26 0.001 0.044463 -0.000943439 -0.0313908 12.4167 -14.9162 -18.1273 0 0.028585
1257 26 0.001 0.045732 -0.00134018 -0.032935 -5.78624 -7.65698 -18.8823 0 0.0216278
1258 26 0.001 0.0467356 -0.00442033 -0.0354696 -7.45893 24.1538 32.7267 0 0.0373206
1259 26 0.001 0.0463148 -0.0032319 -0.031683 4.35393 -7.00125 -18.9283 0 0.0199613
50 13 0.001 -0.0525489 -0.00185035 -0.0308046 21.4096 8.30935 -0.472852 0 0.0167357
51 13 0.001 -0.049835 -0.0024382 -0.0332589 -12.2969 6.42383 24.4862 0 0.0255277
52 13 0.001 -0.0511271 -0.00254965 -0.0302026 -36.5372 -1.1142 -1.21253 0 0.0113883
260 14 0.001 -0.032598 -0.00185224 -0.0307274 16.4713 5.56376 2.44752 0 0.013359
261 14 0.001 -0.0302392 -0.00262 -0.0329699 -15.902 2.42588 5.25672 0 0.0132489
262 14 0.001 -0.0306446 -0.00211717 -0.0310458 7.53082 12.447 -10.6661 0 0.00378345
510 17 0.001 -0.01259 -0.00184173 -0.0306993 18.8976 5.51698 2.75501 0 0.0143538
511 17 0.001 -0.0101781 -0.00258184 -0.0330332 -14.8287 5.89233 7.78186 0 0.0148904
512 17 0.001 -0.0107624 -0.002219 -0.0309452 1.65722 0.358194 -12.874 0 0.00435078
760 20 0.001 0.00740342 -0.00185124 -0.0307261 16.4785 5.55183 2.28924 0 0.0134246
761 20 0.001 0.00976503 -0.00261528 -0.0329764 -15.1714 2.26755 5.72623 0 0.0133406
762 20 0.001 0.00935079 -0.00212799 -0.0310422 5.65096 12.08 -10.3602 0 0.00392317
1010 23 0.001 0.0273906 -0.0018547 -0.0307085 14.1368 3.92539 1.82084 0 0.0130912
1011 23 0.001 0.0297088 -0.00263589 -0.0329344 -8.14896 -3.17387 7.15986 0 0.0124629
1012 23 0.001 0.0294367 -0.00206385 -0.0311265 -8.70211 24.6908 -10.6777 0 0.00392373
1260 26 0.001 0.0474511 -0.00185035 -0.0308046 21.4095 8.30959 -0.472863 0 0.0167355
1261 26 0.001 0.050165 -0.0024382 -0.0332589 -12.2968 6.42388 24.486 0 0.0255276
1262 26 0.001 0.0488729 -0.00254965 -0.0302026 -36.537 -1.11435 -1.21254 0 0.0113883
53 13 0.001 -0.050842 -0.00107874 -0.0303398 18.3561 0.575251 -28.2625 0 0.00368065
54 13 0.001 -0.0493659 0.000429575 -0.0310743 -4.94717 25.2898 7.65492 0 0.00642874
263 14 0.001 -0.0307796 -0.00126827 -0.0293814 -26.3379 16.601 14.4365 0 0.0068819
264 14 0.001 -0.0296738 0.000362301 -0.0310988 14.3844 8.8096 -14.7868 0 0.00686313
513 17 0.001 -0.0107784 -0.00126437 -0.0293983 -14.9973 29.3389 17.5599 0 0.00993137
514 17 0.001 -0.0095709 0.000686166 -0.031417 -5.79921 8.80551 6.45252 0 0.0150914
763 20 0.001 0.00919791 -0.00126571 -0.0293524 -22.9755 18.9677 14.1627 0 0.00820044
764 20 0.001 0.0103808 0.000456965 -0.0312032 12.0876 13.2431 -9.02594 0 0.0085489
1013 23 0.001 0.0291676 -0.00128652 -0.0292746 -12.8166 13.0471 13.7573 0 0.00916631