ITEM: TIMESTEP
8
ITEM: NUMBER OF ATOMS
1472
ITEM: BOX BOUNDS ff ff ff
-6.0000000000000005e-02 6.0000000000000005e-02
-6.0000000000000001e-03 6.0000000000000001e-03
-5.5000000000000000e-02 5.5000000000000000e-02
ITEM: ATOMS id type radius x y z fx fy fz c_bendingE c_stretchingE
1 1 0.001 -0.0512595 -0.0001082 -0.0508235 17.4039 4.48461 -17.1684 0 0.00635488
13 13 0.001 -0.0497251 0.000230934 -0.04898 -5.12565 4.36994 -10.5845 0 0.00568142
433 15 0.001 -0.049259 7.29492e-05 -0.0504809 -34.9557 -5.37997 62.3063 0 0.00279243
434 15 0.001 -0.0480768 6.4518e-05 -0.0495409 25.6838 16.6992 -33.1401 0 0.000658052
435 15 0.001 -0.0472393 3.30149e-05 -0.0503851 1.57924 -30.308 -38.9023 0 0.000133102
436 15 0.001 -0.046166 -0.000186703 -0.050164 3.335 27.13 34.9094 0 0.000774354
437 15 0.001 -0.0451349 1.84757e-05 -0.0489786 46.985 -12.3821 9.63672 0 0.00584961
438 15 0.001 -0.0442525 0.000137816 -0.0514069 5.73873 1.37212 -10.7728 0 0.0127533
439 15 0.001 -0.043328 -0.000137935 -0.0486258 1.15096 2.75093 13.8613 0 0.0127805
440 15 0.001 -0.0424338 0.00011226 -0.0510443 -13.4729 -5.51962 -33.2555 0 0.00687282
441 15 0.001 -0.0414371 -0.000362353 -0.0494838 -32.8042 -1.78044 37.9241 0 0.0021504
442 15 0.001 -0.0404258 0.000558759 -0.0499229 12.7037 -2.66079 11.9381 0 0.00110122
443 15 0.001 -0.0394329 -8.15703e-05 -0.0509446 33.151 11.8847 -26.5952 0 0.00640454
444 15 0.001 -0.0388272 -0.000365805 -0.04835 -16.9219 -4.64544 -2.97209 0 0.0153809
445 15 0.001 -0.0377975 0.000284834 -0.0512971 -14.7981 10.754 -18.8086 0 0.0111457
446 15 0.001 -0.0364291 2.83856e-05 -0.0500878 -31.7306 -14.5824 31.747 0 0.00349022
447 15 0.001 -0.0352856 -0.000353089 -0.048514 32.1283 8.69012 -26.9113 0 0.0176972
448 15 0.001 -0.0346963 0.000526967 -0.052161 4.62284 -9.4229 39.9235 0 0.0424216
449 15 0.001 -0.0339124 -0.000567078 -0.0477013 -6.62458 8.91227 -43.8536 0 0.0470692
450 15 0.001 -0.0333097 0.000333487 -0.0517473 -20.4105 7.32943 27.454 0 0.0231911
451 15 0.001 -0.032038 0.000205508 -0.0499852 6.70332 -23.2801 -18.2307 0 0.00429578
223 14 0.001 -0.0295937 0.000252222 -0.0489309 -3.95044 5.93141 -25.5799 0 0.0211523
452 15 0.001 -0.0307548 -0.000348377 -0.0488005 -13.9481 15.8712 -12.3678 0 0.0204218
3 3 0.001 -0.0308198 -4.53345e-06 -0.0528639 15.7284 11.7763 54.976 0 0.0444966
683 18 0.001 -0.0292384 0.000164802 -0.0506674 -19.8415 -34.5986 3.22922 0 0.00704393
684 18 0.001 -0.0281254 -7.97992e-05 -0.0493766 12.3903 34.3096 -4.45186 0 0.00145513
685 18 0.001 -0.0271565 9.64173e-05 -0.0503698 -4.35175 -24.5656 -44.1326 0 0.00035753
686 18 0.001 -0.0261799 -0.000106269 -0.050261 12.6821 19.8486 35.3506 0 0.00104434
687 18 0.001 -0.0251405 -0.000103884 -0.0489135 40.0978 -11.0902 8.46242 0 0.00719081
688 18 0.001 -0.0242491 0.000234032 -0.051484 1.4163 0.912702 -4.06434 0 0.0154326
689 18 0.001 -0.0233056 -0.000198845 -0.0485145 3.38733 2.55349 4.47549 0 0.0161418
690 18 0.001 -0.0224196 0.000140893 -0.0511921 -10.0044 -6.29962 -21.9753 0 0.00914358
691 18 0.001 -0.0214968 -0.000331932 -0.0494217 -36.5476 1.06413 33.2178 0 0.00274938
692 18 0.001 -0.0203656 0.000492263 -0.049836 18.0638 -8.02648 7.55318 0 0.00117064
693 18 0.001 -0.0194697 -5.18856e-05 -0.0510093 30.597 14.2612 -23.62 0 0.00693055
694 18 0.001 -0.0188205 -0.000366572 -0.0483533 -17.635 -3.12652 -3.24675 0 0.015884
695 18 0.001 -0.0177999 0.000287168 -0.0513033 -13.0664 10.7611 -18.4493 0 0.011197
696 18 0.001 -0.0164366 2.37751e-05 -0.050069 -33.8485 -15.3627 32.51 0 0.00345409
697 18 0.001 -0.0152818 -0.000350401 -0.0485287 33.3142 9.22228 -27.4115 0 0.0173242
698 18 0.001 -0.0146929 0.00052694 -0.0521492 5.53305 -9.35737 39.3848 0 0.0416417
699 18 0.001 -0.0139288 -0.000569084 -0.0477221 -7.71669 8.99678 -42.8425 0 0.0456462
700 18 0.001 -0.0133204 0.000339553 -0.0516881 -18.9636 11.538 25.2834 0 0.0218833
701 18 0.001 -0.0120088 0.000196401 -0.0500611 2.30652 -32.1024 -13.294 0 0.00407706
702 18 0.001 -0.0107559 -0.000342478 -0.048771 -10.6521 20.3128 -16.0936 0 0.0209737
5 5 0.001 -0.0108317 3.19703e-06 -0.0528663 15.4586 11.6306 55.5794 0 0.0449715
473 17 0.001 -0.00959788 0.000252064 -0.0489344 -3.99673 5.94733 -25.5295 0 0.021158
933 21 0.001 -0.00924275 0.000161554 -0.0506621 -19.2735 -34.4529 2.60297 0 0.00709049
934 21 0.001 -0.00812745 -8.04221e-05 -0.0493831 11.8967 34.2446 -4.09315 0 0.00142093
935 21 0.001 -0.0071521 9.63494e-05 -0.0503599 -5.13262 -23.2088 -42.2722 0 0.000345633
936 21 0.001 -0.00617416 -9.87933e-05 -0.0502774 15.5787 17.9126 32.5219 0 0.00110728
937 21 0.001 -0.00514108 -0.000112247 -0.048898 38.2889 -10.3158 9.05045 0 0.00743324
938 21 0.001 -0.00424889 0.000237599 -0.0514938 0.443558 2.18696 -3.05364 0 0.015799
939 21 0.001 -0.00330187 -0.000194949 -0.0485023 4.28841 -1.07645 2.94963 0 0.0165842
940 21 0.001 -0.00241804 0.000113795 -0.0512207 -19.5646 1.35123 -14.3303 0 0.0090915
941 21 0.001 -0.00156157 -2.8526e-05 -0.049445 -31.9494 1.06873 50.334 0 0.00201977
942 21 0.001 -0.000462145 -2.79553e-05 -0.0496512 -9.79636 -2.69919 -47.1462 0 0.000754845
943 21 0.001 0.000593878 2.32351e-05 -0.05082 50.4663 1.53601 -14.7466 0 0.00180697
944 21 0.001 0.00146867 1.74536e-06 -0.0493396 -24.6806 0.244288 39.7467 0 0.00142344
945 21 0.001 0.00238593 -7.24992e-06 -0.0503749 -53.9429 -1.15972 28.151 0 0.000385681
946 21 0.001 0.00333077 3.6934e-06 -0.0497335 -17.98 -0.241516 -128.602 0 8.75908e-05
947 21 0.001 0.00427975 -2.11055e-06 -0.0502879 3.49023 1.39406 152.068 0 8.40888e-05
948 21 0.001 0.00522974 1.78816e-06 -0.0496638 8.10874 -0.95676 -121.071 0 0.000139897
949 21 0.001 0.00618748 -1.41395e-06 -0.05036 0.321056 0.457118 103.357 0 0.000179038
950 21 0.001 0.00714796 8.4553e-07 -0.0496584 -7.45519 -0.230079 -120.555 0 0.000144689
951 21 0.001 0.0081049 -2.49036e-07 -0.0502726 3.53686 -0.00218915 158.371 0 6.28974e-05
7 7 0.001 0.01 0 -0.05 -1.52889 0.02698 51.5242 0 0.000189954
723 20 0.001 0.0103158 0.000185239 -0.048772 9.87221 6.88483 -6.19793 0 0.00159387
952 21 0.001 0.00905609 -8.20986e-08 -0.0498467 31.009 0.178405 -139.636 0 1.16916e-05
1183 24 0.001 0.0109522 -6.63041e-08 -0.0500076 -0.0617883 0.085768 9.5108 0 4.04614e-06
1184 24 0.001 0.0119047 7.28603e-08 -0.0499912 -0.425419 -0.133253 -20.6262 0 3.91584e-06
1185 24 0.001 0.0128578 -1.15259e-07 -0.0500249 -2.21147 0.239641 51.3846 0 3.73187e-06
1186 24 0.001 0.01381 1.40134e-07 -0.0499529 -2.6538 -0.269841 -86.8688 0 3.52248e-06
1187 24 0.001 0.014761 -7.84583e-08 -0.0500549 -0.836671 0.150462 106.142 0 3.18325e-06
1188 24 0.001 0.0157147 -1.44072e-08 -0.0499472 0.64921 0.0117009 -109.651 0 3.08293e-06
1189 24 0.001 0.0166675 7.84969e-08 -0.0500463 1.42922 -0.131038 102.089 0 3.47547e-06
1190 24 0.001 0.0176181 -8.62954e-08 -0.0499641 1.3366 0.132459 -90.7672 0 3.69642e-06
1191 24 0.001 0.0185709 3.53348e-08 -0.0500272 0.317802 0.0550821 86.5145 0 3.54553e-06
1192 24 0.001 0.0195254 8.74388e-08 -0.0499723 -1.76339 -0.477965 -100.817 0 3.609e-06
1193 24 0.001 0.0204768 -3.12228e-07 -0.0500435 -6.35473 1.09289 139.77 0 3.62689e-06
1194 24 0.001 0.0214249 6.54867e-07 -0.0499217 -13.4802 -1.69024 -192.04 0 2.79121e-06
1195 24 0.001 0.022379 -1.09371e-06 -0.0501337 -17.4703 1.95738 227.163 0 4.31783e-06
1196 24 0.001 0.0233289 1.53067e-06 -0.0497952 -8.03619 -1.72398 -217.407 0 2.077e-05
1197 24 0.001 0.0242794 -1.81097e-06 -0.0502783 5.55885 1.18042 170.297 0 6.79318e-05
1198 24 0.001 0.0252314 1.79398e-06 -0.0496638 8.55913 -0.683306 -122.456 0 0.000137121
1199 24 0.001 0.0261875 -1.44082e-06 -0.0503611 0.522979 0.390376 102.483 0 0.000179201
1200 24 0.001 0.0271476 8.68482e-07 -0.0496576 -7.62714 -0.226611 -119.677 0 0.000145931
1201 24 0.001 0.0281047 -2.66775e-07 -0.0502731 3.40369 0.00638784 157.934 0 6.35284e-05
9 9 0.001 0.03 0 -0.05 -1.51483 0.0305469 51.6059 0 0.00018995
973 23 0.001 0.0303158 0.000185239 -0.048772 9.87221 6.88483 -6.19793 0 0.00159387
1202 24 0.001 0.0290561 -7.24428e-08 -0.0498465 31.0001 0.169875 -139.541 0 1.18171e-05
1433 27 0.001 0.0309522 -6.59483e-08 -0.0500075 -0.0594605 0.0848162 9.3577 0 4.04268e-06
1434 27 0.001 0.0319047 7.20285e-08 -0.0499914 -0.419817 -0.135671 -20.2983 0 4.00665e-06
1435 27 0.001 0.0328568 -1.13798e-07 -0.0500245 -2.0982 0.343877 50.1708 0 3.80992e-06
1436 27 0.001 0.0338092 1.38915e-07 -0.0499537 -1.71959 -2.23202 -76.913 0 3.40858e-06
1437 27 0.001 0.0347618 -1.75083e-07 -0.050054 0.77386 21.1189 75.0621 0 3.13934e-06
1438 27 0.001 0.0357154 2.16857e-06 -0.0499528 1.65902 -60.1516 11.1274 0 3.4557e-06
1439 27 0.001 0.0366682 -3.74642e-05 -0.0499485 -26.7806 61.7134 -98.7042 0 1.58836e-05
1440 27 0.001 0.0376084 0.000130395 -0.0503987 43.3618 -20.8499 48.4621 0 0.000540361
1441 27 0.001 0.0384726 -0.000200299 -0.0492293 -26.5032 7.03795 -10.1793 0 0.00118263
1442 27 0.001 0.0395125 7.91655e-05 -0.0503463 37.1024 -21.4857 66.1167 0 0.000875396
1443 27 0.001 0.0407159 0.000195981 -0.0508444 22.8354 13.7442 -46.0588 0 0.00579482
1444 27 0.001 0.0412118 -0.000376157 -0.0482974 7.5719 1.99191 -10.1223 0 0.0191431
1445 27 0.001 0.0421823 0.000364134 -0.0516833 -29.1296 -1.9403 8.30094 0 0.018772
1446 27 0.001 0.0432093 -0.000146804 -0.0493499 -18.7699 3.84218 -15.978 0 0.00611771
1447 27 0.001 0.0448443 -0.00019314 -0.0490953 28.9462 -1.54292 5.5044 0 0.00825342
1448 27 0.001 0.0454198 0.000415446 -0.0518771 10.9793 -5.40349 24.9123 0 0.0262969
1449 27 0.001 0.0460443 -0.000453614 -0.047943 -15.1057 7.4253 -31.9085 0 0.03236
1450 27 0.001 0.0466377 0.000290716 -0.0513976 -9.92754 -3.79275 -4.32915 0 0.0148224
1451 27 0.001 0.048097 7.85322e-05 -0.0503253 -23.0392 0.929193 30.0822 0 0.00365551
1452 27 0.001 0.049245 -0.000195203 -0.0486612 3.7255 2.02814 -45.5129 0 0.0405714
11 11 0.001 0.0491088 0.000264396 -0.0540262 0.830629 -3.24219 68.3161 0 0.0740692
1223 26 0.001 0.0503625 0.000231049 -0.0489446 -5.42273 7.47371 -33.4759 0 0.0373073
14 13 0.001 -0.0499902 0.00206886 -0.0488374 -23.533 7.89687 19.3951 0 0.0036112
224 14 0.001 -0.030146 0.00203621 -0.0488876 -28.3696 7.40718 28.3623 0 0.0028709
474 17 0.001 -0.0101397 0.00203765 -0.0488838 -28.3024 7.39884 28.0975 0 0.00290092
724 20 0.001 0.00974958 0.00191439 -0.0488097 -27.8988 13.7289 23.7818 0 0.00262136
974 23 0.001 0.0297496 0.00191439 -0.0488097 -27.8988 13.7289 23.7818 0 0.00262136
1224 26 0.001 0.0498727 0.00203145 -0.0488509 -29.085 7.05908 26.9914 0 0.00304578
17 13 0.001 -0.0523785 0.00353684 -0.047044 0.264744 16.9813 -33.8644 0 0.00411317
15 13 0.001 -0.0516234 0.00199366 -0.0499838 7.59689 -3.61982 -3.34559 0 0.00776862
16 13 0.001 -0.0508402 0.00281019 -0.0475573 12.2203 -21.1794 5.7077 0 0.00697874
226 14 0.001 -0.0308387 0.0028363 -0.0475544 13.0201 -21.0526 6.22235 0 0.00678918
227 14 0.001 -0.032387 0.00352824 -0.0470485 0.0198588 16.7049 -33.9575 0 0.00410041
225 14 0.001 -0.0315641 0.00202725 -0.0499738 12.3084 -2.82411 -12.1398 0 0.00684164
477 17 0.001 -0.0123868 0.00352926 -0.0470489 0.033804 16.5886 -33.9881 0 0.0041007
475 17 0.001 -0.0115671 0.0020262 -0.0499756 12.2319 -2.81505 -11.862 0 0.00689607
476 17 0.001 -0.0108379 0.00283395 -0.0475537 13.0139 -20.9834 6.19186 0 0.00681336
727 20 0.001 0.00779124 0.00388721 -0.0471085 -1.76093 -6.7933 -14.4422 0 0.00516934
725 20 0.001 0.00856684 0.0022334 -0.0500726 4.80928 -12.7272 -5.65395 0 0.0066382
726 20 0.001 0.00904382 0.00244295 -0.0474905 15.6452 -7.225 -4.55221 0 0.00729699
976 23 0.001 0.0290438 0.00244295 -0.0474905 15.6452 -7.225 -4.55221 0 0.00729699
977 23 0.001 0.0277912 0.00388721 -0.0471085 -1.76093 -6.7933 -14.4422 0 0.00516934
975 23 0.001 0.0285668 0.0022334 -0.0500726 4.80928 -12.7272 -5.65395 0 0.0066382
1227 26 0.001 0.0476144 0.00352082 -0.047045 -0.194103 17.1904 -33.711 0 0.0041715
1225 26 0.001 0.0484377 0.00202697 -0.0500012 13.3058 -2.08774 -11.2339 0 0.00719054
1226 26 0.001 0.0491644 0.00283919 -0.0475545 13.0299 -21.5487 6.15423 0 0.00695907
19 13 0.001 -0.0552691 0.00216992 -0.0469226 -5.86707 -4.41347 16.1935 0 0.0163018
20 13 0.001 -0.0549493 0.00189107 -0.043307 -12.4863 -15.4353 -44.8826 0 0.0515558
18 13 0.001 -0.0542959 0.00356961 -0.048073 -1.5874 -11.0033 17.0379 0 0.00515076
230 14 0.001 -0.0349514 0.00188935 -0.0433078 -12.5446 -15.5503 -44.7909 0 0.051396
228 14 0.001 -0.0343035 0.00356579 -0.0480835 -1.93467 -11.4742 16.9287 0 0.00516408
229 14 0.001 -0.0352631 0.00217394 -0.0469108 -5.59568 -3.95827 16.4481 0 0.0161724
480 17 0.001 -0.0149512 0.00188951 -0.0433077 -12.5458 -15.5408 -44.7978 0 0.0514084
478 17 0.001 -0.014303 0.0035656 -0.0480827 -1.91035 -11.3981 16.945 0 0.00515789
479 17 0.001 -0.0152637 0.00217387 -0.0469117 -5.61697 -3.98949 16.4349 0 0.0161804
729 20 0.001 0.00448194 0.00211534 -0.0471004 -5.89244 -12.8329 11.9633 0 0.0187213
730 20 0.001 0.00517453 0.00197858 -0.0432785 -14.5286 -13.5039 -47.5008 0 0.0555911
728 20 0.001 0.00574574 0.00339003 -0.0479536 5.06829 5.90428 14.7678 0 0.00531781
980 23 0.001 0.0251745 0.00197858 -0.0432785 -14.5286 -13.5039 -47.5008 0 0.0555911
978 23 0.001 0.0257457 0.00339003 -0.0479536 5.06829 5.90428 14.7678 0 0.00531781
979 23 0.001 0.0244819 0.00211534 -0.0471004 -5.89244 -12.8329 11.9633 0 0.0187213
1230 26 0.001 0.0450462 0.00188713 -0.0433086 -12.4802 -15.6861 -44.7005 0 0.0512279
1228 26 0.001 0.0456898 0.00357468 -0.0480977 -2.11652 -11.9188 16.4367 0 0.00530188
1229 26 0.001 0.0447469 0.00217177 -0.0468997 -5.26563 -3.53856 16.5554 0 0.0160992
23 13 0.001 -0.0553116 8.0805e-05 -0.0432512 -4.6325 -18.2645 -1.16973 0 0.0144483
233 14 0.001 -0.0353115 8.06589e-05 -0.0432516 -4.63689 -18.276 -1.17193 0 0.0144438
483 17 0.001 -0.0153115 8.0668e-05 -0.0432516 -4.63655 -18.2751 -1.17168 0 0.0144441
733 20 0.001 0.00468696 8.73818e-05 -0.0432341 -4.35918 -17.6959 -1.11629 0 0.0146642
983 23 0.001 0.024687 8.73818e-05 -0.0432341 -4.35918 -17.6959 -1.11629 0 0.0146642
1233 26 0.001 0.0446885 8.05439e-05 -0.0432519 -4.64115 -18.2874 -1.17506 0 0.0144402
21 13 0.001 -0.0564662 0.000574721 -0.0482567 13.384 16.577 46.235 0 0.0478341
22 13 0.001 -0.0558916 0.00140415 -0.0451583 16.1699 -5.03283 -19.0168 0 0.0142343
231 14 0.001 -0.036467 0.000574021 -0.0482564 13.3052 16.4945 46.2833 0 0.0478123
232 14 0.001 -0.0358913 0.00140476 -0.045158 16.2109 -5.05862 -19.0232 0 0.0142383
481 17 0.001 -0.0164669 0.000574066 -0.0482565 13.3115 16.4993 46.2802 0 0.0478145
482 17 0.001 -0.0158913 0.00140472 -0.045158 16.2074 -5.05569 -19.023 0 0.0142381
731 20 0.001 0.00356787 0.000590248 -0.0482634 14.876 17.7055 45.3019 0 0.0489448
732 20 0.001 0.00409274 0.0013804 -0.0451716 14.4512 -4.36819 -18.7208 0 0.0140781
981 23 0.001 0.0235679 0.000590248 -0.0482634 14.876 17.7055 45.3019 0 0.0489448
982 23 0.001 0.0240927 0.0013804 -0.0451716 14.4512 -4.36819 -18.7208 0 0.0140781
1231 26 0.001 0.043532 0.00057352 -0.0482561 13.2167 16.4421 46.3229 0 0.0477825
1232 26 0.001 0.0441091 0.0014052 -0.0451578 16.2578 -5.10442 -19.023 0 0.0142404
25 13 0.001 -0.0551172 -0.00217444 -0.0442328 -21.9314 35.9846 24.7978 0 0.00394083
26 13 0.001 -0.0547274 -0.00191954 -0.0420738 22.2521 -1.55033 6.16542 0 0.00556144
235 14 0.001 -0.0351173 -0.00217451 -0.0442328 -21.925 35.9899 24.7973 0 0.00394079
236 14 0.001 -0.0347274 -0.00191949 -0.0420738 22.2519 -1.55173 6.1666 0 0.00556156
485 17 0.001 -0.0151173 -0.00217451 -0.0442328 -21.9254 35.9896 24.7973 0 0.00394079
486 17 0.001 -0.0147274 -0.0019195 -0.0420738 22.2519 -1.55166 6.16653 0 0.00556155
735 20 0.001 0.00488378 -0.00217121 -0.0442336 -22.2037 35.7575 24.82 0 0.00394355
736 20 0.001 0.00527164 -0.00192153 -0.0420735 22.2542 -1.49836 6.1172 0 0.00555688
985 23 0.001 0.0248838 -0.00217121 -0.0442336 -22.2037 35.7575 24.82 0 0.00394355
986 23 0.001 0.0252716 -0.00192153 -0.0420735 22.2542 -1.49836 6.1172 0 0.00555688
1235 26 0.001 0.0448827 -0.00217457 -0.0442328 -21.9196 35.9937 24.7965 0 0.00394074
1236 26 0.001 0.0452727 -0.00191946 -0.0420738 22.2519 -1.55252 6.16745 0 0.00556163
24 13 0.001 -0.0560877 -0.0020937 -0.0455841 25.5451 -13.178 -17.408 0 0.011429
234 14 0.001 -0.0360877 -0.00209374 -0.045584 25.5401 -13.1872 -17.4091 0 0.0114256
484 17 0.001 -0.0160877 -0.00209374 -0.045584 25.5405 -13.1867 -17.4091 0 0.0114258
734 20 0.001 0.00391475 -0.00209203 -0.0455871 25.7656 -12.7815 -17.3406 0 0.0115834
984 23 0.001 0.0239148 -0.00209203 -0.0455871 25.7656 -12.7815 -17.3406 0 0.0115834
1234 26 0.001 0.0439122 -0.00209377 -0.045584 25.5345 -13.1943 -17.4094 0 0.0114229
27 13 0.001 -0.0536348 -0.00315817 -0.0433948 -12.3469 4.04761 -37.4098 0 0.00271853
28 13 0.001 -0.0525382 -0.00319653 -0.0427834 -36.3797 10.148 28.5331 0 0.000775549
29 13 0.001 -0.0522547 -0.00263771 -0.0413823 22.6372 -16.6084 -24.9932 0 0.000771658
30 13 0.001 -0.0510606 -0.00239504 -0.0416722 -51.9667 -19.9825 79.8758 0 0.000170045
237 14 0.001 -0.0336348 -0.00315818 -0.0433948 -12.3466 4.04882 -37.4131 0 0.00271866
238 14 0.001 -0.0325382 -0.00319653 -0.0427834 -36.3821 10.1474 28.5355 0 0.000775544
239 14 0.001 -0.0322547 -0.00263771 -0.0413823 22.638 -16.6077 -24.9932 0 0.000771656
240 14 0.001 -0.0310606 -0.00239504 -0.0416722 -51.9666 -19.983 79.8752 0 0.000170049
487 17 0.001 -0.0136348 -0.00315818 -0.0433948 -12.3466 4.04875 -37.4129 0 0.00271865
488 17 0.001 -0.0125382 -0.00319653 -0.0427834 -36.382 10.1474 28.5353 0 0.000775544
489 17 0.001 -0.0122547 -0.00263771 -0.0413823 22.638 -16.6077 -24.9932 0 0.000771656
490 17 0.001 -0.0110606 -0.00239504 -0.0416722 -51.9666 -19.983 79.8752 0 0.000170049
737 20 0.001 0.00636501 -0.00315783 -0.0433944 -12.3602 3.99941 -37.2693 0 0.00271367
738 20 0.001 0.00746198 -0.00319654 -0.0427836 -36.2757 10.175 28.4327 0 0.000775809
739 20 0.001 0.00774531 -0.00263774 -0.0413824 22.6027 -16.6353 -24.994 0 0.000771723
740 20 0.001 0.00893938 -0.00239505 -0.0416721 -51.9704 -19.9651 79.9044 0 0.000169893
987 23 0.001 0.026365 -0.00315783 -0.0433944 -12.3602 3.99941 -37.2693 0 0.00271367
988 23 0.001 0.027462 -0.00319654 -0.0427836 -36.2757 10.175 28.4327 0 0.000775809
989 23 0.001 0.0277453 -0.00263774 -0.0413824 22.6027 -16.6353 -24.994 0 0.000771723
990 23 0.001 0.0289394 -0.00239505 -0.0416721 -51.9704 -19.9651 79.9044 0 0.000169893
1237 26 0.001 0.0463652 -0.00315818 -0.0433948 -12.3464 4.04964 -37.4156 0 0.00271874
1238 26 0.001 0.0474618 -0.00319653 -0.0427834 -36.3839 10.1469 28.5372 0 0.000775539
1239 26 0.001 0.0477453 -0.00263771 -0.0413823 22.6386 -16.6072 -24.9932 0 0.000771655
1240 26 0.001 0.0489394 -0.00239504 -0.0416722 -51.9666 -19.9833 79.8747 0 0.000170052
31 13 0.001 -0.0505868 -0.0017717 -0.0409503 88.6054 47.8843 -130.09 0 2.0319e-05
241 14 0.001 -0.0305868 -0.0017717 -0.0409503 88.6057 47.8843 -130.09 0 2.03193e-05
491 17 0.001 -0.0105868 -0.0017717 -0.0409503 88.6057 47.8843 -130.09 0 2.03193e-05
741 20 0.001 0.00941323 -0.00177169 -0.0409503 88.5928 47.8838 -130.09 0 2.03045e-05
991 23 0.001 0.0294132 -0.00177169 -0.0409503 88.5928 47.8838 -130.09 0 2.03045e-05
1241 26 0.001 0.0494132 -0.0017717 -0.0409503 88.6059 47.8843 -130.09 0 2.03196e-05
32 13 0.001 -0.0501598 -0.000961683 -0.0405278 -46.4428 -22.7136 83.246 0 6.47722e-06
33 13 0.001 -0.0500046 -8.96552e-05 -0.0400465 9.45321 8.13604 -17.8484 0 6.35476e-06
242 14 0.001 -0.0301598 -0.000961683 -0.0405278 -46.4432 -22.7136 83.2465 0 6.47722e-06
243 14 0.001 -0.0300046 -8.96552e-05 -0.0400465 9.45333 8.1361 -17.8485 0 6.35476e-06
492 17 0.001 -0.0101598 -0.000961683 -0.0405278 -46.4432 -22.7136 83.2464 0 6.47722e-06
493 17 0.001 -0.0100046 -8.96552e-05 -0.0400465 9.45332 8.1361 -17.8485 0 6.35476e-06
742 20 0.001 0.00984024 -0.000961683 -0.0405278 -46.4225 -22.7139 83.227 0 6.477e-06
743 20 0.001 0.00999536 -8.96551e-05 -0.0400465 9.44785 8.13354 -17.8421 0 6.35475e-06
992 23 0.001 0.0298402 -0.000961683 -0.0405278 -46.4225 -22.7139 83.227 0 6.477e-06
993 23 0.001 0.0299954 -8.96551e-05 -0.0400465 9.44785 8.13354 -17.8421 0 6.35475e-06
1242 26 0.001 0.0498402 -0.000961683 -0.0405278 -46.4436 -22.7136 83.2468 0 6.47723e-06
1243 26 0.001 0.0499954 -8.96552e-05 -0.0400465 9.45342 8.13614 -17.8487 0 6.35476e-06
34 13 0.001 -0.0501101 0.000793647 -0.0395735 -0.0651258 -1.74707 3.21924 0 6.29574e-06
244 14 0.001 -0.0301101 0.000793647 -0.0395735 -0.0651245 -1.74708 3.21926 0 6.29574e-06
494 17 0.001 -0.0101101 0.000793647 -0.0395735 -0.0651242 -1.74708 3.21926 0 6.29574e-06
744 20 0.001 0.00988994 0.000793647 -0.0395735 -0.0651755 -1.74671 3.21857 0 6.29574e-06
994 23 0.001 0.0298899 0.000793647 -0.0395735 -0.0651759 -1.74671 3.21856 0 6.29574e-06
1244 26 0.001 0.0498899 0.000793647 -0.0395735 -0.0651239 -1.74708 3.21927 0 6.29574e-06
36 13 0.001 -0.0510528 0.00227815 -0.0386256 -0.0023261 -0.0379316 0.0454387 0 6.30163e-06
35 13 0.001 -0.0504701 0.00160658 -0.0390995 -0.0388056 0.218117 -0.406241 0 6.30234e-06
245 14 0.001 -0.0304701 0.00160658 -0.0390995 -0.0388061 0.218118 -0.406243 0 6.30234e-06
246 14 0.001 -0.0310528 0.00227815 -0.0386256 -0.00232533 -0.0379322 0.0454405 0 6.30163e-06
496 17 0.001 -0.0110528 0.00227815 -0.0386256 -0.00232386 -0.0379333 0.0454441 0 6.30163e-06
495 17 0.001 -0.0104701 0.00160658 -0.0390995 -0.038807 0.218119 -0.406246 0 6.30234e-06
746 20 0.001 0.00894719 0.00227815 -0.0386256 -0.00232414 -0.0379327 0.0454428 0 6.30163e-06
745 20 0.001 0.0095299 0.00160658 -0.0390995 -0.0388069 0.218107 -0.406225 0 6.30234e-06
995 23 0.001 0.0295299 0.00160658 -0.0390995 -0.038806 0.218106 -0.406222 0 6.30234e-06
996 23 0.001 0.0289472 0.00227815 -0.0386256 -0.00232532 -0.0379317 0.0454399 0 6.30163e-06
1246 26 0.001 0.0489472 0.00227815 -0.0386256 -0.0023261 -0.0379316 0.0454387 0 6.30163e-06
1245 26 0.001 0.0495299 0.00160658 -0.0390995 -0.0388056 0.218118 -0.406242 0 6.30234e-06
38 13 0.001 -0.052666 0.00297825 -0.0376777 -0.00198048 -0.0186887 0.000230053 0 6.30168e-06
39 13 0.001 -0.0535546 0.00294516 -0.0372038 0.00346076 -0.0184018 -8.31617e-06 0 6.30168e-06
37 13 0.001 -0.0518069 0.00274919 -0.0381517 -0.00878603 -0.0154803 -0.0037893 0 6.30168e-06
249 14 0.001 -0.0335546 0.00294516 -0.0372038 0.00345956 -0.018402 -1.06059e-05 0 6.30168e-06
247 14 0.001 -0.0318069 0.00274919 -0.0381517 -0.00878708 -0.0154799 -0.00379142 0 6.30168e-06
248 14 0.001 -0.032666 0.00297825 -0.0376777 -0.00197927 -0.0186888 0.000232351 0 6.30168e-06
499 17 0.001 -0.0135546 0.00294516 -0.0372038 0.00345781 -0.0184022 -1.39499e-05 0 6.30168e-06
498 17 0.001 -0.012666 0.00297825 -0.0376777 -0.0019773 -0.0186891 0.000236117 0 6.30168e-06
497 17 0.001 -0.0118069 0.00274919 -0.0381517 -0.00878895 -0.0154791 -0.00379527 0 6.30168e-06
748 20 0.001 0.00733396 0.00297825 -0.0376777 -0.00197748 -0.0186891 0.000235764 0 6.30168e-06
749 20 0.001 0.00644545 0.00294516 -0.0372038 0.00345801 -0.0184022 -1.35617e-05 0 6.30168e-06
747 20 0.001 0.00819308 0.00274919 -0.0381517 -0.0087888 -0.0154791 -0.00379496 0 6.30168e-06
999 23 0.001 0.0264454 0.00294516 -0.0372038 0.00345912 -0.018402 -1.14477e-05 0 6.30168e-06
997 23 0.001 0.0281931 0.00274919 -0.0381517 -0.00878749 -0.0154798 -0.00379222 0 6.30168e-06
998 23 0.001 0.027334 0.00297825 -0.0376777 -0.00197876 -0.0186889 0.000233321 0 6.30168e-06
1249 26 0.001 0.0464454 0.00294516 -0.0372038 0.00346076 -0.0184018 -8.31617e-06 0 6.30168e-06
1248 26 0.001 0.047334 0.00297825 -0.0376777 -0.00198048 -0.0186887 0.000230053 0 6.30168e-06
1247 26 0.001 0.0481931 0.00274919 -0.0381517 -0.00878603 -0.0154803 -0.0037893 0 6.30168e-06
42 13 0.001 -0.0556424 0.00141396 -0.035782 0.0165126 -0.00883282 5.37148e-06 0 6.30168e-06
252 14 0.001 -0.0356424 0.00141396 -0.035782 0.0165129 -0.00883245 6.2796e-06 0 6.30168e-06
502 17 0.001 -0.0156424 0.00141396 -0.035782 0.0165133 -0.00883189 7.58669e-06 0 6.30168e-06
752 20 0.001 0.00435762 0.00141396 -0.035782 0.0165132 -0.00883204 7.25686e-06 0 6.30168e-06
1002 23 0.001 0.0243576 0.00141396 -0.035782 0.0165129 -0.00883264 5.92928e-06 0 6.30168e-06
1252 26 0.001 0.0443576 0.00141396 -0.035782 0.0165126 -0.00883282 5.37148e-06 0 6.30168e-06
40 13 0.001 -0.0543943 0.00265284 -0.0367299 0.00871283 -0.0165762 1.45204e-06 0 6.30168e-06
41 13 0.001 -0.0551112 0.00212701 -0.0362559 0.0131914 -0.0132926 -3.42239e-06 0 6.30168e-06
251 14 0.001 -0.0351112 0.00212701 -0.0362559 0.0131908 -0.0132931 -5.01304e-06 0 6.30168e-06
250 14 0.001 -0.0343943 0.00265284 -0.0367299 0.00871382 -0.0165757 3.51009e-06 0 6.30168e-06
501 17 0.001 -0.0151112 0.00212701 -0.0362559 0.0131899 -0.0132937 -7.005e-06 0 6.30168e-06
500 17 0.001 -0.0143943 0.00265284 -0.0367299 0.00871513 -0.0165752 6.21879e-06 0 6.30168e-06
750 20 0.001 0.00560575 0.00265284 -0.0367299 0.00871495 -0.0165753 5.8179e-06 0 6.30168e-06
751 20 0.001 0.00488877 0.00212701 -0.0362559 0.0131901 -0.0132936 -6.62342e-06 0 6.30168e-06
1001 23 0.001 0.0248888 0.00212701 -0.0362559 0.0131907 -0.0132931 -5.0838e-06 0 6.30168e-06
1000 23 0.001 0.0256057 0.00265284 -0.0367299 0.00871408 -0.0165757 4.01341e-06 0 6.30168e-06
1251 26 0.001 0.0448888 0.00212701 -0.0362559 0.0131914 -0.0132926 -3.42239e-06 0 6.30168e-06
1250 26 0.001 0.0456057 0.00265284 -0.0367299 0.00871283 -0.0165762 1.45204e-06 0 6.30168e-06
44 13 0.001 -0.0559806 -0.000311783 -0.0348341 0.0186246 0.00195258 8.29356e-06 0 6.30168e-06
45 13 0.001 -0.055758 -0.00117258 -0.0343602 0.0172359 0.0073227 -9.20674e-06 0 6.30168e-06
254 14 0.001 -0.0359806 -0.000311783 -0.0348341 0.0186248 0.00195213 7.40032e-06 0 6.30168e-06
255 14 0.001 -0.035758 -0.00117258 -0.0343602 0.0172354 0.00732355 -7.33738e-06 0 6.30168e-06
504 17 0.001 -0.0159806 -0.000311783 -0.0348341 0.0186248 0.00195229 7.70627e-06 0 6.30168e-06
505 17 0.001 -0.015758 -0.00117258 -0.0343602 0.0172354 0.00732353 -7.36966e-06 0 6.30168e-06
754 20 0.001 0.00401935 -0.000311783 -0.0348341 0.0186248 0.00195221 7.54047e-06 0 6.30168e-06
755 20 0.001 0.00424201 -0.00117258 -0.0343602 0.0172354 0.00732357 -7.28673e-06 0 6.30168e-06
1004 23 0.001 0.0240194 -0.000311783 -0.0348341 0.0186249 0.00195166 6.5081e-06 0 6.30168e-06
1005 23 0.001 0.024242 -0.00117258 -0.0343602 0.0172352 0.00732402 -6.36701e-06 0 6.30168e-06
1254 26 0.001 0.0440194 -0.000311783 -0.0348341 0.0186246 0.00195258 8.29356e-06 0 6.30168e-06
1255 26 0.001 0.044242 -0.00117258 -0.0343602 0.0172359 0.0073227 -9.20674e-06 0 6.30168e-06
43 13 0.001 -0.0559409 0.00057646 -0.0353081 0.0183766 -0.00360581 -7.01245e-06 0 6.30168e-06
253 14 0.001 -0.0359409 0.00057646 -0.0353081 0.0183765 -0.00360581 -7.0706e-06 0 6.30168e-06
503 17 0.001 -0.0159409 0.00057646 -0.0353081 0.0183763 -0.00360618 -7.80284e-06 0 6.30168e-06
753 20 0.001 0.00405905 0.00057646 -0.0353081 0.0183764 -0.00360605 -7.54947e-06 0 6.30168e-06
1003 23 0.001 0.0240591 0.00057646 -0.0353081 0.0183765 -0.00360545 -6.38645e-06 0 6.30168e-06
1253 26 0.001 0.0440591 0.00057646 -0.0353081 0.0183766 -0.00360581 -7.01245e-06 0 6.30168e-06
46 13 0.001 -0.0552926 -0.00193017 -0.0338863 0.0143223 0.012065 9.76803e-06 0 6.30168e-06
47 13 0.001 -0.0546254 -0.00251787 -0.0334123 0.0101609 0.0157306 -9.99754e-06 0 6.30168e-06
48 13 0.001 -0.0538151 -0.00288394 -0.0329384 0.00508826 0.0180223 9.90587e-06 0 6.30168e-06
49 13 0.001 -0.0529331 -0.00299616 -0.0324645 -0.00041319 0.0187222 -9.49107e-06 0 6.30168e-06
256 14 0.001 -0.0352926 -0.00193017 -0.0338863 0.0143233 0.012064 6.97955e-06 0 6.30168e-06
257 14 0.001 -0.0346254 -0.00251787 -0.0334123 0.0101593 0.0157315 -6.4291e-06 0 6.30168e-06
258 14 0.001 -0.0338151 -0.00288394 -0.0329384 0.00509037 0.0180218 5.77338e-06 0 6.30168e-06
259 14 0.001 -0.0329331 -0.00299616 -0.0324645 -0.000415523 0.0187221 -5.07313e-06 0 6.30168e-06
506 17 0.001 -0.0152926 -0.00193017 -0.0338863 0.0143234 0.0120639 6.87098e-06 0 6.30168e-06
507 17 0.001 -0.0146254 -0.00251787 -0.0334123 0.0101592 0.0157315 -6.28042e-06 0 6.30168e-06
508 17 0.001 -0.0138151 -0.00288394 -0.0329384 0.00509044 0.0180218 5.65074e-06 0 6.30168e-06
509 17 0.001 -0.0129331 -0.00299616 -0.0324645 -0.000415556 0.0187221 -5.01225e-06 0 6.30168e-06
756 20 0.001 0.00470742 -0.00193017 -0.0338863 0.0143234 0.0120639 6.85233e-06 0 6.30168e-06
757 20 0.001 0.00537463 -0.00251787 -0.0334123 0.0101592 0.0157315 -6.29867e-06 0 6.30168e-06
758 20 0.001 0.00618491 -0.00288394 -0.0329384 0.00509042 0.0180218 5.6761e-06 0 6.30168e-06
759 20 0.001 0.00706693 -0.00299616 -0.0324645 -0.000415552 0.0187221 -5.01804e-06 0 6.30168e-06
1006 23 0.001 0.0247074 -0.00193017 -0.0338863 0.0143236 0.0120636 6.04036e-06 0 6.30168e-06
1007 23 0.001 0.0253746 -0.00251787 -0.0334123 0.0101589 0.0157318 -5.5971e-06 0 6.30168e-06
1008 23 0.001 0.0261849 -0.00288394 -0.0329384 0.00509072 0.0180217 5.08929e-06 0 6.30168e-06
1009 23 0.001 0.0270669 -0.00299616 -0.0324645 -0.000415801 0.0187221 -4.54814e-06 0 6.30168e-06
1256 26 0.001 0.0447074 -0.00193017 -0.0338863 0.0143223 0.012065 9.76803e-06 0 6.30168e-06
1257 26 0.001 0.0453746 -0.00251787 -0.0334123 0.0101609 0.0157306 -9.99754e-06 0 6.30168e-06
1258 26 0.001 0.0461849 -0.00288394 -0.0329384 0.00508826 0.0180223 9.90587e-06 0 6.30168e-06
1259 26 0.001 0.0470669 -0.00299616 -0.0324645 -0.00041319 0.0187222 -9.49107e-06 0 6.30168e-06
50 13 0.001 -0.0520569 -0.00284467 -0.0319905 -0.0058973 0.0177742 8.7458e-06 0 6.30168e-06
51 13 0.001 -0.0512638 -0.00244278 -0.0315166 -0.0108454 0.0152664 -7.67066e-06 0 6.30168e-06
52 13 0.001 -0.0506235 -0.00182588 -0.0310427 -0.0148521 0.0114069 6.28777e-06 0 6.30168e-06
260 14 0.001 -0.0320569 -0.00284467 -0.0319905 -0.00589509 0.0177749 4.35921e-06 0 6.30168e-06
261 14 0.001 -0.0312638 -0.00244278 -0.0315166 -0.0108472 0.0152652 -3.63659e-06 0 6.30168e-06
262 14 0.001 -0.0306235 -0.00182588 -0.0310427 -0.0148509 0.0114082 2.89359e-06 0 6.30168e-06
510 17 0.001 -0.0120569 -0.00284467 -0.0319905 -0.0058951 0.0177748 4.37334e-06 0 6.30168e-06
511 17 0.001 -0.0112638 -0.00244278 -0.0315166 -0.0108472 0.0152653 -3.72618e-06 0 6.30168e-06
512 17 0.001 -0.0106235 -0.00182588 -0.0310427 -0.014851 0.0114082 3.05604e-06 0 6.30168e-06
760 20 0.001 0.00794306 -0.00284467 -0.0319905 -0.00589508 0.0177749 4.33886e-06 0 6.30168e-06
761 20 0.001 0.00873618 -0.00244278 -0.0315166 -0.0108472 0.0152652 -3.63637e-06 0 6.30168e-06
762 20 0.001 0.00937648 -0.00182588 -0.0310427 -0.0148509 0.0114082 2.89861e-06 0 6.30168e-06