ITEM: TIMESTEP
17
ITEM: NUMBER OF ATOMS
1472
ITEM: BOX BOUNDS ff ff ff
-6.0000000000000005e-02 6.0000000000000005e-02
-6.0000000000000001e-03 6.0000000000000001e-03
-5.5000000000000000e-02 5.5000000000000000e-02
ITEM: ATOMS id type radius x y z fx fy fz c_bendingE c_stretchingE
1 1 0.001 -0.048601 -0.000274749 -0.0497609 -8.65262 28.9625 -12.8381 0 0.00488629
13 13 0.001 -0.0499485 0.0007408 -0.0485774 -7.36866 0.0209027 -3.89868 0 0.0053136
433 15 0.001 -0.05041 0.000557998 -0.0490488 25.7127 -13.911 -1.45546 0 0.0181137
434 15 0.001 -0.0470605 -0.00019704 -0.0506407 17.9321 3.02738 7.19002 0 0.0160599
435 15 0.001 -0.047494 -0.000194596 -0.0520579 -16.6703 -13.9011 25.5008 0 0.0110547
436 15 0.001 -0.0455603 0.00012871 -0.0494174 3.25859 12.4693 -25.165 0 0.0209818
437 15 0.001 -0.0423124 7.26431e-05 -0.0489897 -14.9477 -10.5949 23.3821 0 0.0104403
438 15 0.001 -0.0424307 -0.000766214 -0.0493667 -23.5794 -38.8111 -34.9078 0 0.000979533
439 15 0.001 -0.043204 7.37121e-05 -0.050596 -9.20455 19.2505 18.9772 0 0.0012645
440 15 0.001 -0.0427337 -0.000871195 -0.0497412 43.0814 27.3905 23.7911 0 0.000423573
441 15 0.001 -0.04336 4.45684e-05 -0.0492015 2.40482 5.13838 -12.0294 0 0.0123183
442 15 0.001 -0.0401958 0.00143635 -0.0493902 -14.2808 -17.933 -2.2742 0 0.0131588
443 15 0.001 -0.0392149 0.00053787 -0.0504123 17.05 -19.1543 -3.4445 0 0.00182368
444 15 0.001 -0.0399783 -0.000285314 -0.0515959 -0.892838 -12.6136 11.6961 0 0.00247198
445 15 0.001 -0.0393989 0.0001349 -0.0498554 4.29065 42.9754 -22.8056 0 0.0236343
446 15 0.001 -0.035212 0.000199059 -0.0509085 -27.3152 -1.95541 32.3924 0 0.0253382
447 15 0.001 -0.0335394 -0.000497327 -0.0495342 -6.37791 7.08233 -14.6491 0 0.00616405
448 15 0.001 -0.034302 -0.000332259 -0.0475039 -1.59152 0.541303 -37.5244 0 0.0369365
449 15 0.001 -0.0345011 0.000711099 -0.0525284 9.50285 -19.6979 32.3641 0 0.0360776
450 15 0.001 -0.0351036 -0.00037684 -0.0509915 2.43845 37.8062 -10.1499 0 0.0033371
451 15 0.001 -0.0342929 0.000542115 -0.0496666 17.6162 -42.2492 17.2903 0 0.0186341
223 14 0.001 -0.0294662 0.000905451 -0.046698 -12.0525 4.76514 -40.1907 0 0.0373748
452 15 0.001 -0.0305552 -0.00056872 -0.0491276 -11.716 30.8758 -13.4038 0 0.0207112
3 3 0.001 -0.0300899 7.07461e-05 -0.0512822 -0.485575 -4.45344 38.4067 0 0.03152
683 18 0.001 -0.0304276 -1.70279e-05 -0.0497356 7.61118 -1.88971 -8.06599 0 0.00338863
684 18 0.001 -0.0284452 -6.83877e-05 -0.0505271 -4.15458 1.9341 4.95771 0 0.00272847
685 18 0.001 -0.0276626 1.11485e-05 -0.0513918 19.6345 8.51627 -3.53527 0 0.0160793
686 18 0.001 -0.0239977 -0.00010303 -0.0503021 -33.529 -29.5205 14.1546 0 0.017984
687 18 0.001 -0.0228877 -0.000375222 -0.0486887 32.5791 10.3135 -37.0135 0 0.00199567
688 18 0.001 -0.0222729 0.000461615 -0.0484716 -26.8969 -2.27772 8.10207 0 0.0124516
689 18 0.001 -0.0236471 -0.00100213 -0.0513232 18.1892 15.3435 16.9663 0 0.0135804
690 18 0.001 -0.0230239 -0.000959722 -0.0497027 -10.8539 3.30889 -10.8966 0 0.00142773
691 18 0.001 -0.0234386 0.000301921 -0.049442 17.4631 -1.65305 20.0584 0 0.0157441
692 18 0.001 -0.0197362 0.00102636 -0.0492712 -24.8021 3.57131 -19.8311 0 0.0157895
693 18 0.001 -0.0190307 0.00057164 -0.05037 13.3681 -36.4657 6.37382 0 0.00132047
694 18 0.001 -0.0200486 3.98308e-05 -0.0516016 -1.2386 -3.63416 11.8734 0 0.0022788
695 18 0.001 -0.0192852 0.000303669 -0.0500122 10.5605 31.9733 -26.1082 0 0.0159987
696 18 0.001 -0.0156351 3.99933e-05 -0.0506072 -19.1811 -1.31855 44.7079 0 0.0187343
697 18 0.001 -0.0135039 -0.000445689 -0.0496073 -11.8767 6.60902 -22.8952 0 0.00589991
698 18 0.001 -0.0140231 -0.000237795 -0.0477384 -3.40271 0.234491 -29.4081 0 0.0264857
699 18 0.001 -0.0146396 0.00055016 -0.0521354 18.3273 -20.0189 15.0451 0 0.0246743
700 18 0.001 -0.0149548 -0.000215073 -0.0513281 -3.41138 35.6215 11.0739 0 0.00222586
701 18 0.001 -0.0144112 0.000513084 -0.0495221 21.9441 -36.6259 4.3289 0 0.0220394
702 18 0.001 -0.0104251 -0.000585309 -0.0491465 -15.5326 26.6613 -11.2299 0 0.0227256
5 5 0.001 -0.00999801 -0.000119682 -0.0512295 -1.37007 -0.225553 37.2119 0 0.02837
473 17 0.001 -0.00950221 0.000949167 -0.0468671 -11.1841 3.52536 -36.349 0 0.0332567
933 21 0.001 -0.0104885 2.25359e-05 -0.0497067 7.08767 -0.118084 -7.36706 0 0.00259546
934 21 0.001 -0.00871256 2.01725e-05 -0.0504697 -2.29001 -3.90284 1.59647 0 0.00242391
935 21 0.001 -0.00750233 -3.35588e-05 -0.0514091 17.084 14.5248 5.31293 0 0.0167625
936 21 0.001 -0.00391646 2.93821e-05 -0.0500424 -25.3527 -39.0151 2.50667 0 0.0170345
937 21 0.001 -0.00268973 -0.000138997 -0.0489589 -14.6786 77.0994 -37.2259 0 0.0014256
938 21 0.001 -0.00244877 9.54451e-05 -0.0486565 -12.5174 -43.6142 27.9122 0 0.0122217
939 21 0.001 -0.00443624 -5.65934e-06 -0.0514258 8.56075 -10.686 23.1569 0 0.018054
940 21 0.001 -0.00370661 0.000219885 -0.0487598 73.6033 -38.0079 28.4038 0 0.0065695
941 21 0.001 -0.00420765 -0.000184815 -0.0486233 -22.385 39.8372 -57.5064 0 0.0284354
942 21 0.001 8.82476e-05 -9.68174e-05 -0.050674 -16.1372 -5.11221 13.5412 0 0.0341622
943 21 0.001 0.00279441 -0.000208914 -0.0506176 -22.1386 13.4504 -2.96479 0 0.00892366
944 21 0.001 0.000762598 1.64427e-05 -0.0497821 5.46842 -2.48594 -3.70211 0 0.00342956
945 21 0.001 -0.000608925 5.30904e-05 -0.0502258 34.253 -1.75623 -9.71494 0 0.0341729
946 21 0.001 0.00418787 1.01999e-05 -0.0519975 -22.8797 -1.20242 33.066 0 0.0513924
947 21 0.001 0.00523126 5.11704e-05 -0.0481691 -2.16355 -2.82401 -46.576 0 0.0309835
948 21 0.001 0.00390863 -1.97522e-05 -0.0514913 18.6989 1.8639 43.8126 0 0.0386456
949 21 0.001 0.00590077 1.37691e-07 -0.0473899 -12.8446 1.75392 -48.7093 0 0.056566
950 21 0.001 0.00757611 1.12705e-05 -0.0520565 -26.3297 -1.1901 42.6312 0 0.0438653
951 21 0.001 0.00487275 -4.60979e-05 -0.0498261 31.4537 3.09926 -4.47326 0 0.0241573
7 7 0.001 0.01 0 -0.05 -6.60262 7.27979 37.2333 0 0.0236763
723 20 0.001 0.0104161 0.000578804 -0.047905 -7.12013 1.97642 -11.4195 0 0.00555284
952 21 0.001 0.0079343 0.000285595 -0.0483949 -5.65859 -5.17034 -15.6055 0 0.0169527
1183 24 0.001 0.0104664 1.87899e-05 -0.0462719 17.5298 -0.250279 -50.4911 0 0.0555602
1184 24 0.001 0.0137261 -4.03917e-06 -0.0507002 -28.7362 0.105155 19.4145 0 0.0450301
1185 24 0.001 0.0120186 -3.94664e-06 -0.0525569 14.1354 0.0707815 48.6752 0 0.0549
1186 24 0.001 0.0128717 -1.1665e-06 -0.0465954 21.9322 -0.055014 -62.1989 0 0.0922585
1187 24 0.001 0.0171487 3.92066e-06 -0.0502052 -29.6092 -0.340634 10.3751 0 0.0453389
1188 24 0.001 0.0183006 1.6507e-05 -0.0521513 -18.873 -0.0810362 34.7825 0 0.0310524
1189 24 0.001 0.0157572 -1.8554e-05 -0.0481623 32.8623 0.616206 -44.8694 0 0.0482217
1190 24 0.001 0.01699 1.67735e-05 -0.0521723 21.8578 -0.266564 37.9904 0 0.0578969
1191 24 0.001 0.0205234 5.3243e-06 -0.0481737 -20.0384 -0.204422 -35.4395 0 0.0473926
1192 24 0.001 0.020038 -1.44728e-05 -0.0513565 5.34762 0.225046 28.255 0 0.0126851
1193 24 0.001 0.0201663 -2.52665e-06 -0.0492023 40.077 0.60537 22.7961 0 0.00364729
1194 24 0.001 0.0210342 -7.04996e-06 -0.0506011 52.4933 -0.296068 -41.7049 0 0.00146715
1195 24 0.001 0.0212355 8.69567e-06 -0.0490984 -59.7215 0.0719143 23.686 0 0.00441868
1196 24 0.001 0.0222558 -1.11134e-05 -0.0512384 -21.3293 -0.189026 -23.7259 0 0.0141623
1197 24 0.001 0.0248255 -1.33549e-05 -0.049226 -16.9486 0.724167 -12.8591 0 0.0172419
1198 24 0.001 0.0235571 -2.80622e-06 -0.051777 2.96792 -0.0807289 51.0327 0 0.0384907
1199 24 0.001 0.0251717 2.77572e-05 -0.0470679 0.684363 -1.20854 -60.9908 0 0.0702629
1200 24 0.001 0.0255933 -6.1887e-05 -0.0524576 -9.59185 3.30695 40.1186 0 0.0417462
1201 24 0.001 0.0266163 4.57769e-05 -0.0504905 14.3567 -4.19873 4.19787 0 0.0202408
9 9 0.001 0.03 0 -0.05 -2.87551 -11.5383 32.304 0 0.0199703
973 23 0.001 0.0304161 0.000578804 -0.047905 -7.12013 1.97642 -11.4195 0 0.00555284
1202 24 0.001 0.0292593 6.08286e-05 -0.0475839 -17.9427 1.57169 -22.0177 0 0.0219382
1433 27 0.001 0.0300355 -0.00283212 -0.0480069 19.6093 33.6829 -22.8042 0 0.0398159
1434 27 0.001 0.0333551 2.21651e-05 -0.049769 -30.3646 0.141851 -1.92578 0 0.0459675
1435 27 0.001 0.0312103 0.00293694 -0.0515355 20.3324 -50.9451 10.1296 0 0.0557638
1436 27 0.001 0.0326584 -0.00217291 -0.0520197 16.9045 36.7476 14.5346 0 0.0645335
1437 27 0.001 0.0363153 -0.00171157 -0.0491272 -9.1395 14.1045 -5.72113 0 0.0387947
1438 27 0.001 0.0364466 0.00106167 -0.0471484 5.49026 -15.9895 -29.9371 0 0.0336722
1439 27 0.001 0.0372197 3.45054e-05 -0.0512691 -4.28061 1.65021 28.0643 0 0.0344954
1440 27 0.001 0.0404472 0.00015343 -0.0499368 -30.912 -10.198 5.96546 0 0.0203275
1441 27 0.001 0.0380249 -7.47778e-05 -0.0482363 -1.06252 8.09197 -36.0139 0 0.0116032
1442 27 0.001 0.0395955 6.37898e-05 -0.0499908 33.1571 -3.44028 37.1588 0 0.0111768
1443 27 0.001 0.042321 0.000193074 -0.0510116 -19.4223 1.26399 -13.8776 0 0.00748956
1444 27 0.001 0.0418966 0.000412544 -0.0520943 -2.91639 -3.14247 19.7713 0 0.00904539
1445 27 0.001 0.0405992 -0.000110486 -0.0493196 1.58518 25.2663 -28.4318 0 0.0100226
1446 27 0.001 0.0422059 6.51318e-05 -0.0498762 24.85 -27.1889 21.8729 0 0.0211157
1447 27 0.001 0.0463616 -0.000218951 -0.0498696 -45.6897 44.0223 -37.9012 0 0.0201042
1448 27 0.001 0.0460693 8.41056e-05 -0.0491739 -3.8588 -26.3756 20.2359 0 0.00596774
1449 27 0.001 0.0454507 0.000393568 -0.0517917 19.089 -3.35875 10.0136 0 0.00615006
1450 27 0.001 0.0448438 1.23629e-05 -0.050684 13.5131 -9.20621 -4.58111 0 0.0021142
1451 27 0.001 0.0467786 0.000254561 -0.050608 -8.73728 -5.38995 19.9965 0 0.00836983
1452 27 0.001 0.0485017 0.000139925 -0.0484167 8.93934 5.91198 -3.38846 0 0.0158551
11 11 0.001 0.0499629 -3.25049e-05 -0.0456256 -10.3076 7.91881 -35.224 0 0.0240194
1223 26 0.001 0.0493146 0.000910483 -0.0491468 7.64473 4.10707 16.8543 0 0.0152867
14 13 0.001 -0.0518723 0.00177191 -0.0489 15.2093 6.48887 0.139066 0 0.00572478
224 14 0.001 -0.0314453 0.00202353 -0.0489938 15.173 1.11046 6.3568 0 0.0106947
474 17 0.001 -0.0115461 0.00195996 -0.0488994 15.1992 2.23723 3.8081 0 0.0096366
724 20 0.001 0.00882909 0.00181826 -0.0485301 12.0983 4.00483 -6.05125 0 0.00253366
974 23 0.001 0.0288291 0.00181826 -0.0485301 12.0983 4.00483 -6.05125 0 0.00253366
1224 26 0.001 0.0483286 0.00201872 -0.04873 8.64764 -6.21552 0.982455 0 0.00276106
17 13 0.001 -0.0517995 0.0036211 -0.0493227 -6.67849 -5.98167 17.7206 0 0.0251857
15 13 0.001 -0.0497235 0.00176085 -0.0487644 -35.3486 -8.65287 36.2255 0 0.00284651
16 13 0.001 -0.0491474 0.00214118 -0.0485004 12.6555 -0.492512 -47.4212 0 0.00939991
226 14 0.001 -0.0292095 0.00230464 -0.0484881 3.06655 0.566207 -31.0815 0 0.00861042
227 14 0.001 -0.0319587 0.00344929 -0.0492052 -4.2887 -1.43984 19.945 0 0.022546
225 14 0.001 -0.0299292 0.00166783 -0.0489655 -25.3095 -10.6405 27.8645 0 0.000689779
477 17 0.001 -0.0119547 0.00344389 -0.0492026 -4.45647 -1.69485 21.3017 0 0.0226052
475 17 0.001 -0.00983904 0.00170072 -0.0489599 -27.3726 -13.5636 29.754 0 0.00112023
476 17 0.001 -0.00919163 0.00230812 -0.048491 5.4774 2.06021 -33.3719 0 0.0086584
727 20 0.001 0.00835167 0.00412157 -0.0478985 -10.9526 -21.5153 -5.26357 0 0.020261
725 20 0.001 0.00938977 0.00114333 -0.048929 -12.8944 -12.0443 20.8965 0 7.83644e-05
726 20 0.001 0.0102372 0.00157453 -0.0482451 -0.144234 17.9913 -8.55938 0 0.00972529
976 23 0.001 0.0302372 0.00157453 -0.0482451 -0.144234 17.9913 -8.55938 0 0.00972529
977 23 0.001 0.0283517 0.00412157 -0.0478985 -10.9526 -21.5153 -5.26357 0 0.020261
975 23 0.001 0.0293898 0.00114333 -0.048929 -12.8944 -12.0443 20.8965 0 7.83644e-05
1227 26 0.001 0.048027 0.00347852 -0.0492293 -4.81487 0.919546 18.6788 0 0.0225651
1225 26 0.001 0.0500071 0.000970163 -0.0483559 -17.5484 1.49262 15.2302 0 0.00256658
1226 26 0.001 0.0507166 0.00222427 -0.0484722 -11.1538 -4.92836 -23.3212 0 0.00902512
19 13 0.001 -0.056127 0.00143521 -0.0453707 -12.1742 -3.13191 -16.178 0 0.0127985
20 13 0.001 -0.0565862 -0.000848229 -0.0462906 16.7581 12.2418 16.1186 0 0.0105889
18 13 0.001 -0.0551306 0.00333961 -0.0474834 28.3485 -11.855 7.67965 0 0.0240864
230 14 0.001 -0.0365975 -0.000825818 -0.0462581 17.0872 11.7647 15.49 0 0.0106639
228 14 0.001 -0.0351925 0.0033333 -0.0475458 26.3624 -13.4783 7.04181 0 0.022584
229 14 0.001 -0.0361565 0.00143264 -0.0453392 -12.3885 -2.35912 -16.7843 0 0.0130788
480 17 0.001 -0.0165967 -0.000826964 -0.0462612 17.0881 11.8037 15.5484 0 0.0106805
478 17 0.001 -0.0151905 0.00333435 -0.0475478 26.1509 -13.5269 6.74949 0 0.0225902
479 17 0.001 -0.0161564 0.00143542 -0.0453386 -12.331 -2.39426 -16.7581 0 0.0131195
729 20 0.001 0.0043518 0.0015688 -0.0463497 -15.2176 -6.4401 -16.5428 0 0.0100138
730 20 0.001 0.00376838 -0.000755793 -0.0461642 27.5828 15.7825 19.929 0 0.0122273
728 20 0.001 0.00507609 0.00381456 -0.0476998 27.6591 2.51795 29.4886 0 0.0166032
980 23 0.001 0.0237684 -0.000755793 -0.0461642 27.5828 15.7825 19.929 0 0.0122273
978 23 0.001 0.0250761 0.00381456 -0.0476998 27.6591 2.51795 29.4886 0 0.0166032
979 23 0.001 0.0243518 0.0015688 -0.0463497 -15.2176 -6.4401 -16.5428 0 0.0100138
1230 26 0.001 0.0434022 -0.000812959 -0.046227 17.0891 11.3446 14.9094 0 0.0104944
1228 26 0.001 0.0448049 0.00332497 -0.0475458 28.1074 -13.3517 9.64691 0 0.022524
1229 26 0.001 0.0438513 0.00141303 -0.0453584 -12.9525 -2.17925 -17.0033 0 0.0127259
23 13 0.001 -0.0547237 -0.0014445 -0.0450773 -4.76452 35.4734 48.2253 0 0.0149377
233 14 0.001 -0.0347233 -0.00144107 -0.0450802 -4.34195 35.0461 46.4343 0 0.0156009
483 17 0.001 -0.0147235 -0.00144124 -0.0450801 -4.3917 35.0684 46.5293 0 0.015579
733 20 0.001 0.00517188 -0.00154545 -0.0450612 -19.7295 22.2784 102.807 0 0.00414464
983 23 0.001 0.0251719 -0.00154545 -0.0450612 -19.7295 22.2784 102.807 0 0.00414464
1233 26 0.001 0.0452804 -0.00143943 -0.0450815 -3.73084 34.8552 45.4802 0 0.0157891
21 13 0.001 -0.0548719 0.00102897 -0.0453314 -10.1587 1.03158 9.57039 0 0.0063084
22 13 0.001 -0.0556141 0.00217337 -0.0451082 1.0051 -21.5872 -19.2293 0 0.0152369
231 14 0.001 -0.034782 0.000976992 -0.0452479 -14.7375 3.58869 2.40057 0 0.00681851
232 14 0.001 -0.0356585 0.00222682 -0.045169 4.68714 -24.8112 -12.267 0 0.0161748
481 17 0.001 -0.0147856 0.000979139 -0.0452535 -14.5656 3.48469 2.79465 0 0.00679514
482 17 0.001 -0.0156575 0.00222501 -0.0451649 4.55569 -24.6744 -12.6335 0 0.0161413
731 20 0.001 0.00491954 0.00202652 -0.0459996 -9.94189 -7.4225 -13.3701 0 0.0103044
732 20 0.001 0.00422892 0.000655591 -0.0447063 -3.65323 -5.14848 -35.3141 0 0.00621925
981 23 0.001 0.0249195 0.00202652 -0.0459996 -9.94189 -7.4225 -13.3701 0 0.0103044
982 23 0.001 0.0242289 0.000655591 -0.0447063 -3.65323 -5.14848 -35.3141 0 0.00621925
1231 26 0.001 0.0452527 0.000956884 -0.0451831 -16.005 4.62198 -2.0903 0 0.00703114
1232 26 0.001 0.0443406 0.00224335 -0.0452167 5.69368 -26.0751 -8.38092 0 0.0164741
25 13 0.001 -0.054609 -0.000933354 -0.0438775 -8.85716 18.9344 -9.63614 0 0.00198454
26 13 0.001 -0.0545036 -0.00114092 -0.0423177 -4.77223 13.4591 5.40218 0 0.00139229
235 14 0.001 -0.0346093 -0.000932922 -0.0438783 -9.006 18.9519 -9.62857 0 0.00199026
236 14 0.001 -0.0345036 -0.00114092 -0.0423178 -4.74494 13.4139 5.3997 0 0.00139402
485 17 0.001 -0.0146093 -0.000932944 -0.0438782 -9.00037 18.9539 -9.62735 0 0.00199019
486 17 0.001 -0.0145036 -0.00114092 -0.0423178 -4.75154 13.4129 5.40058 0 0.00139392
735 20 0.001 0.00538363 -0.000924418 -0.043873 -9.08433 19.1279 -7.85601 0 0.00201995
736 20 0.001 0.00549259 -0.00114397 -0.0423095 -9.11009 11.0458 5.73827 0 0.00140081
985 23 0.001 0.0253836 -0.000924418 -0.043873 -9.08433 19.1279 -7.85601 0 0.00201995
986 23 0.001 0.0254926 -0.00114397 -0.0423095 -9.11009 11.0458 5.73827 0 0.00140081
1235 26 0.001 0.0453916 -0.000932792 -0.0438788 -9.03824 18.8869 -9.63426 0 0.00198953
1236 26 0.001 0.0454965 -0.00114091 -0.042318 -4.64285 13.4579 5.38914 0 0.00139493
24 13 0.001 -0.0543043 -0.00241726 -0.0448067 -3.46512 -18.3208 -39.009 0 0.00129774
234 14 0.001 -0.0343019 -0.00241813 -0.044807 -3.01868 -17.2445 -35.666 0 0.00130435
484 17 0.001 -0.0143017 -0.00241808 -0.044807 -3.00614 -17.289 -35.8557 0 0.00130432
734 20 0.001 0.00581938 -0.00238087 -0.0448068 9.32635 -19.0275 -69.7921 0 0.00131705
984 23 0.001 0.0258194 -0.00238087 -0.0448068 9.32635 -19.0275 -69.7921 0 0.00131705
1234 26 0.001 0.0456954 -0.00241872 -0.0448066 -3.34443 -16.8577 -33.6535 0 0.00130275
27 13 0.001 -0.0551511 -0.000682248 -0.0436614 39.2733 -37.9114 -4.5184 0 0.0198715
28 13 0.001 -0.0517681 -0.00257753 -0.0423408 -19.6406 17.198 10.5623 0 0.0308556
29 13 0.001 -0.0523864 -0.0022569 -0.0390049 0.684815 2.90735 -30.4693 0 0.0170713
30 13 0.001 -0.0530862 -0.00143388 -0.0414049 24.16 -9.02881 -1.219 0 0.0306622
237 14 0.001 -0.0351511 -0.000682146 -0.0436616 39.3115 -37.9112 -4.53564 0 0.0198718
238 14 0.001 -0.0317682 -0.00257757 -0.0423407 -19.6379 17.1996 10.5599 0 0.0308553
239 14 0.001 -0.0323863 -0.00225689 -0.0390048 0.683295 2.90685 -30.4688 0 0.0170709
240 14 0.001 -0.0330862 -0.00143381 -0.0414049 24.1599 -9.02989 -1.21934 0 0.0306631
487 17 0.001 -0.0151511 -0.00068215 -0.0436616 39.3126 -37.9115 -4.53629 0 0.0198718
488 17 0.001 -0.0117682 -0.00257756 -0.0423407 -19.6381 17.1994 10.56 0 0.0308553
489 17 0.001 -0.0123863 -0.00225689 -0.0390048 0.683368 2.90685 -30.4689 0 0.0170709
490 17 0.001 -0.0130862 -0.00143382 -0.0414049 24.1599 -9.02981 -1.21932 0 0.0306631
737 20 0.001 0.00484807 -0.000686273 -0.0436526 41.1562 -37.0307 -5.1685 0 0.0198498
738 20 0.001 0.00823777 -0.00257565 -0.0423449 -19.7292 17.1744 10.6662 0 0.0308596
739 20 0.001 0.00761209 -0.00225699 -0.0390079 0.729159 2.89251 -30.4881 0 0.0170864
740 20 0.001 0.00691458 -0.00143672 -0.0414086 24.1689 -8.97755 -1.20427 0 0.0306255
987 23 0.001 0.0248481 -0.000686273 -0.0436526 41.1562 -37.0307 -5.1685 0 0.0198498
988 23 0.001 0.0282378 -0.00257565 -0.0423449 -19.7292 17.1744 10.6662 0 0.0308596
989 23 0.001 0.0276121 -0.00225699 -0.0390079 0.729159 2.89251 -30.4881 0 0.0170864
990 23 0.001 0.0269146 -0.00143672 -0.0414086 24.1689 -8.97755 -1.20427 0 0.0306255
1237 26 0.001 0.0448489 -0.000682107 -0.0436618 39.2779 -37.903 -4.51713 0 0.0198721
1238 26 0.001 0.0482317 -0.00257759 -0.0423406 -19.6348 17.2028 10.5585 0 0.0308552
1239 26 0.001 0.0476137 -0.00225689 -0.0390047 0.682568 2.9072 -30.4685 0 0.0170707
1240 26 0.001 0.0469137 -0.00143376 -0.0414048 24.1597 -9.03092 -1.21963 0 0.0306637
31 13 0.001 -0.0493028 -0.00219535 -0.043825 -21.3675 -0.415833 32.7803 0 0.0364918
241 14 0.001 -0.0293028 -0.00219536 -0.043825 -21.3679 -0.415536 32.7812 0 0.0364932
491 17 0.001 -0.00930283 -0.00219536 -0.043825 -21.3679 -0.415547 32.7812 0 0.0364931
741 20 0.001 0.0106978 -0.00219473 -0.043826 -21.3522 -0.427042 32.7388 0 0.036433
991 23 0.001 0.0306978 -0.00219473 -0.043826 -21.3522 -0.427044 32.7388 0 0.036433
1241 26 0.001 0.0506972 -0.00219537 -0.043825 -21.3682 -0.415334 32.782 0 0.0364942
32 13 0.001 -0.0497259 -0.00288354 -0.0405599 -14.4425 21.7978 -8.57346 0 0.0343404
33 13 0.001 -0.0518505 0.000476156 -0.038675 27.1927 -2.26726 -26.3974 0 0.0513547
242 14 0.001 -0.0297259 -0.0028836 -0.0405599 -14.4422 21.7981 -8.57504 0 0.0343405
243 14 0.001 -0.0318505 0.000476168 -0.0386751 27.1926 -2.26811 -26.3958 0 0.0513529
492 17 0.001 -0.00972591 -0.00288359 -0.0405599 -14.4423 21.7981 -8.57495 0 0.0343405
493 17 0.001 -0.0118505 0.000476168 -0.0386751 27.1926 -2.26808 -26.3959 0 0.051353
742 20 0.001 0.0102758 -0.00288114 -0.0405634 -14.4537 21.7804 -8.50477 0 0.0343367
743 20 0.001 0.00814889 0.000475641 -0.0386717 27.1971 -2.23063 -26.4657 0 0.0514301
992 23 0.001 0.0302758 -0.00288114 -0.0405634 -14.4537 21.7804 -8.50477 0 0.0343367
993 23 0.001 0.0281489 0.000475641 -0.0386717 27.1971 -2.23059 -26.4657 0 0.0514301
1242 26 0.001 0.0502741 -0.00288364 -0.0405598 -14.442 21.7984 -8.5762 0 0.0343405
1243 26 0.001 0.0481495 0.000476177 -0.0386751 27.1925 -2.26871 -26.3947 0 0.0513516
34 13 0.001 -0.049971 0.00358895 -0.0417501 -19.7866 -45.3726 26.1289 0 0.0520532
244 14 0.001 -0.0299709 0.0035889 -0.0417501 -19.7878 -45.3702 26.1275 0 0.0520489
494 17 0.001 -0.00997092 0.0035889 -0.0417501 -19.7877 -45.3702 26.1275 0 0.052049
744 20 0.001 0.0100264 0.00359094 -0.0417508 -19.73 -45.4723 26.1902 0 0.0522347
994 23 0.001 0.0300264 0.00359095 -0.0417508 -19.73 -45.4724 26.1902 0 0.052235
1244 26 0.001 0.0500291 0.00358887 -0.0417501 -19.7888 -45.3686 26.1264 0 0.052046
36 13 0.001 -0.0511731 0.00128172 -0.0356603 10.8312 -11.0258 -38.5103 0 0.0341135
35 13 0.001 -0.0504631 -0.000563952 -0.0402267 -6.23888 37.0858 16.7592 0 0.0553366
245 14 0.001 -0.0304632 -0.000563767 -0.0402268 -6.23765 37.0832 16.7605 0 0.0553334
246 14 0.001 -0.0311731 0.00128166 -0.0356603 10.8279 -11.0229 -38.5094 0 0.0341138
496 17 0.001 -0.0111731 0.00128167 -0.0356603 10.8274 -11.0227 -38.509 0 0.0341141
495 17 0.001 -0.0104632 -0.000563766 -0.0402268 -6.23801 37.0835 16.7604 0 0.0553336
746 20 0.001 0.00882634 0.00128444 -0.0356618 10.9534 -11.1455 -38.5322 0 0.0341067
745 20 0.001 0.00954167 -0.000571596 -0.0402236 -6.30118 37.2026 16.6993 0 0.055473
995 23 0.001 0.0295417 -0.000571608 -0.0402236 -6.30105 37.2026 16.6992 0 0.0554731
996 23 0.001 0.0288263 0.00128444 -0.0356618 10.954 -11.1459 -38.5326 0 0.0341065
1246 26 0.001 0.048827 0.00128161 -0.0356603 10.8263 -11.021 -38.5094 0 0.0341138
1245 26 0.001 0.0495368 -0.000563644 -0.0402269 -6.23645 37.0811 16.7615 0 0.0553311
38 13 0.001 -0.0540721 0.00444969 -0.0405875 30.8944 -26.2784 50.3345 0 0.0809291
39 13 0.001 -0.0520351 0.00292133 -0.0348232 -16.6941 -6.11887 -39.9631 0 0.0607657
37 13 0.001 -0.0515567 0.00230947 -0.0374723 -28.8951 14.406 1.54234 0 0.0276129
249 14 0.001 -0.0320351 0.0029213 -0.0348232 -16.695 -6.11461 -39.9647 0 0.0607659
247 14 0.001 -0.0315567 0.00230944 -0.0374723 -28.8913 14.4041 1.54112 0 0.0276135
248 14 0.001 -0.0340721 0.00444969 -0.0405875 30.8937 -26.2789 50.3344 0 0.0809295
499 17 0.001 -0.0120351 0.0029213 -0.0348231 -16.6965 -6.11143 -39.966 0 0.0607668
498 17 0.001 -0.0140721 0.00444968 -0.0405874 30.8935 -26.2793 50.3345 0 0.0809301
497 17 0.001 -0.0115566 0.00230944 -0.0374724 -28.8903 14.4036 1.54074 0 0.0276136
748 20 0.001 0.00592821 0.00444944 -0.0405884 30.9168 -26.2637 50.3358 0 0.0809214
749 20 0.001 0.00796503 0.00292214 -0.0348237 -16.6889 -6.1271 -39.958 0 0.0607692
747 20 0.001 0.00844065 0.00231071 -0.0374708 -29.0282 14.4732 1.58825 0 0.0275906
999 23 0.001 0.0279651 0.00292214 -0.0348237 -16.6877 -6.12917 -39.9571 0 0.0607683
997 23 0.001 0.0284406 0.00231071 -0.0374707 -29.0292 14.4737 1.58868 0 0.0275905
998 23 0.001 0.0259282 0.00444945 -0.0405884 30.9171 -26.2634 50.3357 0 0.0809209
1249 26 0.001 0.0479649 0.0029213 -0.0348232 -16.6944 -6.11828 -39.9634 0 0.0607656
1248 26 0.001 0.0459279 0.0044497 -0.0405874 30.8935 -26.279 50.3345 0 0.0809295
1247 26 0.001 0.0484434 0.00230942 -0.0374723 -28.8897 14.4033 1.54049 0 0.0276138
42 13 0.001 -0.0565433 0.00145001 -0.0362372 17.8899 -2.24588 13.0039 0 0.0230812
252 14 0.001 -0.0365427 0.00145041 -0.0362371 17.8908 -2.2414 12.9916 0 0.0230689
502 17 0.001 -0.0165425 0.00145082 -0.036237 17.8951 -2.24391 12.9808 0 0.0230689
752 20 0.001 0.00345688 0.00145013 -0.0362371 17.8972 -2.23083 13.006 0 0.0230752
1002 23 0.001 0.0234569 0.00144982 -0.0362373 17.8933 -2.22694 13.0134 0 0.0230716
1252 26 0.001 0.0434567 0.00145004 -0.0362371 17.8898 -2.24637 13.003 0 0.023081
40 13 0.001 -0.0533885 0.00186648 -0.0367063 -10.0952 19.7986 -6.4745 0 0.020395
41 13 0.001 -0.0566779 0.00213067 -0.0385536 14.3394 -21.9359 11.7092 0 0.0196259
251 14 0.001 -0.0366782 0.00213064 -0.0385537 14.3321 -21.9314 11.7159 0 0.0196284
250 14 0.001 -0.0333885 0.00186644 -0.0367063 -10.0962 19.7893 -6.47355 0 0.0203979
501 17 0.001 -0.0166783 0.00213057 -0.0385537 14.3301 -21.9234 11.7237 0 0.0196305
500 17 0.001 -0.0133885 0.00186635 -0.0367063 -10.0957 19.7818 -6.47387 0 0.0204
750 20 0.001 0.00661139 0.00186565 -0.0367061 -10.1011 19.8038 -6.48215 0 0.0203979
751 20 0.001 0.00332197 0.00213071 -0.0385535 14.3261 -21.9524 11.7077 0 0.0196262
1001 23 0.001 0.023322 0.00213078 -0.0385535 14.3262 -21.9595 11.7014 0 0.0196248
1000 23 0.001 0.0266114 0.00186573 -0.0367061 -10.1021 19.8088 -6.48153 0 0.0203966
1251 26 0.001 0.0433221 0.00213066 -0.0385537 14.3395 -21.9348 11.7098 0 0.0196261
1250 26 0.001 0.0466115 0.00186651 -0.0367063 -10.095 19.7978 -6.47417 0 0.0203951
44 13 0.001 -0.0563583 -9.20502e-05 -0.0359472 22.2646 23.0491 8.12554 0 0.0188565
45 13 0.001 -0.0560604 -0.00213381 -0.035361 6.12819 -4.59377 19.5885 0 0.0127277
254 14 0.001 -0.0363585 -9.18946e-05 -0.0359456 22.3945 23.072 8.02728 0 0.0188224
255 14 0.001 -0.0360608 -0.0021311 -0.0353608 5.65262 -4.36009 19.5509 0 0.0126188
504 17 0.001 -0.0163587 -9.24657e-05 -0.0359466 22.3805 23.0608 8.01469 0 0.0188317
505 17 0.001 -0.0160607 -0.00213052 -0.0353602 5.69399 -4.37603 19.5732 0 0.0126176
754 20 0.001 0.00364139 -9.20058e-05 -0.0359463 22.3889 23.0714 8.02159 0 0.0188331
755 20 0.001 0.00393926 -0.00213076 -0.0353605 5.66892 -4.36453 19.5639 0 0.0126182
1004 23 0.001 0.0236416 -9.13068e-05 -0.0359447 22.4286 23.088 8.02078 0 0.0188144
1005 23 0.001 0.0239391 -0.00213107 -0.0353613 5.53831 -4.30463 19.5294 0 0.0126024
1254 26 0.001 0.0436417 -9.20636e-05 -0.0359472 22.2645 23.0487 8.1253 0 0.0188563
1255 26 0.001 0.0439396 -0.0021338 -0.035361 6.12851 -4.59394 19.5886 0 0.0127276
43 13 0.001 -0.0543279 0.000927188 -0.0328527 -24.2971 -10.3548 -27.8536 0 0.0351349
253 14 0.001 -0.0343283 0.000927227 -0.0328533 -24.2979 -10.3578 -27.8171 0 0.0351019
503 17 0.001 -0.0143283 0.000927008 -0.0328532 -24.3001 -10.353 -27.8249 0 0.0351137
753 20 0.001 0.00567196 0.000927338 -0.032853 -24.3006 -10.3622 -27.8328 0 0.0351198
1003 23 0.001 0.0256718 0.000927579 -0.0328532 -24.2975 -10.3675 -27.8142 0 0.0350967
1253 26 0.001 0.0456721 0.000927177 -0.0328527 -24.2971 -10.3545 -27.8532 0 0.0351345
46 13 0.001 -0.0552402 -0.00118775 -0.0323822 -21.1085 -11.2185 -1.55935 0 0.0104922
47 13 0.001 -0.0546988 -0.00222394 -0.0332551 42.5076 28.3843 9.24554 0 0.00312297
48 13 0.001 -0.0533284 -0.0036265 -0.0341037 -24.8762 1.72922 -19.1117 0 0.00596038
49 13 0.001 -0.0532257 -0.00280066 -0.0319928 -21.552 -42.0993 21.0475 0 0.0033281
256 14 0.001 -0.0352441 -0.00119311 -0.0323903 -22.1643 -11.203 -2.43024 0 0.0103777
257 14 0.001 -0.0346911 -0.00222328 -0.0332464 43.7413 28.3756 9.51604 0 0.00298075
258 14 0.001 -0.0333473 -0.00361476 -0.0340875 -28.8199 2.70818 -19.4732 0 0.00546271
259 14 0.001 -0.0331902 -0.00282848 -0.0320459 -14.6837 -42.1947 15.4198 0 0.0029596
506 17 0.001 -0.0152437 -0.00119289 -0.0323894 -22.0452 -11.1878 -2.35491 0 0.0103812
507 17 0.001 -0.0146918 -0.00222359 -0.0332473 43.5621 28.3366 9.50121 0 0.00298893
508 17 0.001 -0.0133461 -0.00361545 -0.0340884 -28.5807 2.74186 -19.5003 0 0.0054884
509 17 0.001 -0.0131923 -0.00282646 -0.0320432 -14.9826 -42.2979 15.3989 0 0.00297856
756 20 0.001 0.00475606 -0.00119304 -0.0323898 -22.1065 -11.1932 -2.3991 0 0.0103788
757 20 0.001 0.00530857 -0.00222349 -0.0332469 43.6523 28.3694 9.49564 0 0.00298228
758 20 0.001 0.00665291 -0.00361484 -0.0340876 -28.7637 2.70496 -19.4731 0 0.00546694
759 20 0.001 0.00680947 -0.00282814 -0.0320453 -14.7454 -42.2141 15.4636 0 0.00296326
1006 23 0.001 0.0247549 -0.00119421 -0.0323922 -22.4328 -11.2212 -2.64021 0 0.0103561
1007 23 0.001 0.0253106 -0.00222273 -0.0332442 44.0917 28.3575 9.63775 0 0.00295801
1008 23 0.001 0.0266496 -0.00361294 -0.0340851 -29.472 2.89879 -19.5208 0 0.00538845
1009 23 0.001 0.0268152 -0.00283274 -0.0320544 -13.4527 -42.2815 14.4059 0 0.00290436
1256 26 0.001 0.0447598 -0.00118775 -0.0323822 -21.1078 -11.2185 -1.55882 0 0.0104922
1257 26 0.001 0.0453012 -0.00222394 -0.0332551 42.5065 28.3843 9.24507 0 0.00312298
1258 26 0.001 0.0466716 -0.0036265 -0.0341037 -24.8758 1.72911 -19.1116 0 0.0059604
1259 26 0.001 0.0467743 -0.00280066 -0.0319928 -21.5523 -42.0993 21.0479 0 0.00332812
50 13 0.001 -0.0522205 -0.00279388 -0.0315681 1.75652 67.9822 -38.1787 0 0.000579132
51 13 0.001 -0.0508857 -0.0023513 -0.0320999 21.3027 -33.0482 13.1317 0 0.00114462
52 13 0.001 -0.0507976 -0.00192346 -0.0306407 -1.20044 -10.6996 -55.4219 0 0.000680751
260 14 0.001 -0.0322148 -0.00276462 -0.0315349 -2.13124 62.142 -37.9657 0 0.000458087
261 14 0.001 -0.0309307 -0.00235853 -0.0320406 3.79494 -42.6446 25.3098 0 0.000759736
262 14 0.001 -0.0307589 -0.00190049 -0.0307431 34.6214 3.96415 -95.7932 0 0.00036121
510 17 0.001 -0.0122162 -0.00276698 -0.031535 -1.66513 62.9489 -36.4321 0 0.00047562
511 17 0.001 -0.0109259 -0.00235681 -0.0320493 7.08479 -41.1885 22.4739 0 0.000809731
512 17 0.001 -0.0107639 -0.00190615 -0.0307275 25.9163 1.78733 -92.2037 0 0.000401259
760 20 0.001 0.00778524 -0.00276487 -0.0315351 -2.09727 62.2771 -37.8952 0 0.000459196
761 20 0.001 0.00906964 -0.0023583 -0.0320414 4.21368 -42.5756 25.0543 0 0.000764041
762 20 0.001 0.0092406 -0.00190124 -0.0307414 33.4008 3.89167 -95.8725 0 0.000365315
1010 23 0.001 0.0277852 -0.00276068 -0.03153 -2.7529 61.4328 -37.3309 0 0.000446117
1011 23 0.001 0.0290633 -0.00235931 -0.0320341 2.25495 -43.3333 26.5724 0 0.000726881
1012 23 0.001 0.0292454 -0.00189983 -0.0307518 37.0602 6.13387 -99.4795 0 0.000339465
1260 26 0.001 0.0477795 -0.00279388 -0.0315681 1.75649 67.9825 -38.1794 0 0.00057913
1261 26 0.001 0.0491143 -0.0023513 -0.0320999 21.3028 -33.0485 13.1319 0 0.00114462
1262 26 0.001 0.0492024 -0.00192346 -0.0306407 -1.20045 -10.6995 -55.4217 0 0.000680753
53 13 0.001 -0.0501381 -0.000948428 -0.030771 -40.0919 -62.6676 121.891 0 0.00010904
54 13 0.001 -0.0500327 -0.000240741 -0.0299662 50.8349 102.71 -160.642 0 2.71952e-05
263 14 0.001 -0.0301632 -0.000992316 -0.0306848 -55.865 -48.27 164.567 0 3.27992e-05
264 14 0.001 -0.0300266 -0.000208737 -0.0300331 39.2106 84.0705 -132.781 0 9.80638e-06
513 17 0.001 -0.0101596 -0.000981753 -0.0307057 -52.1015 -59.3147 166.907 0 4.38616e-05
514 17 0.001 -0.0100262 -0.000223304 -0.0300053 39.0876 100.506 -165.849 0 1.40476e-05
763 20 0.001 0.00983716 -0.000990737 -0.0306879 -55.4557 -50.7977 166.317 0 3.4211e-05