ITEM: TIMESTEP
16
ITEM: NUMBER OF ATOMS
1472
ITEM: BOX BOUNDS ff ff ff
-6.0000000000000005e-02 6.0000000000000005e-02
-6.0000000000000001e-03 6.0000000000000001e-03
-5.5000000000000000e-02 5.5000000000000000e-02
ITEM: ATOMS id type radius x y z fx fy fz c_bendingE c_stretchingE
1 1 0.001 -0.0487718 -0.000479618 -0.0487726 14.034 23.8501 -46.5564 0 0.00335656
13 13 0.001 -0.0496951 0.000453206 -0.0488008 -29.4814 -16.7631 25.2404 0 0.00554728
433 15 0.001 -0.050674 0.000578621 -0.049281 18.5183 -5.82045 7.58643 0 0.0185798
434 15 0.001 -0.0470917 -0.000111641 -0.0502527 3.40556 4.15021 4.3316 0 0.0195545
435 15 0.001 -0.0475696 -0.000308739 -0.0526151 0.537363 -2.58334 31.6391 0 0.0224663
436 15 0.001 -0.0456027 0.000199517 -0.049137 -1.2137 5.86402 -22.6534 0 0.0289384
437 15 0.001 -0.0423731 1.40169e-05 -0.0485261 -5.08355 -7.36507 -4.25119 0 0.0113481
438 15 0.001 -0.0429418 -0.000366639 -0.0499723 51.8162 -27.4631 -108.874 0 0.00177791
439 15 0.001 -0.0430214 -0.000134067 -0.0500572 -77.5372 33.8789 115.501 0 0.00111741
440 15 0.001 -0.0429006 -0.000580002 -0.0506344 30.4903 -24.7377 15.333 0 0.00138758
441 15 0.001 -0.0432319 -0.000564105 -0.0488858 4.38983 27.3624 -9.07754 0 0.0206948
442 15 0.001 -0.0400052 0.00195623 -0.0492927 -20.4194 -20.7929 -5.3824 0 0.0237452
443 15 0.001 -0.0389153 0.000402551 -0.0508531 -2.21115 -23.8716 -38.822 0 0.0045871
444 15 0.001 -0.0398951 -0.00035878 -0.0503554 -15.4711 -31.5348 -2.12919 0 0.000401532
445 15 0.001 -0.0396561 -6.03582e-06 -0.0509196 41.0095 69.7664 45.5075 0 0.0240841
446 15 0.001 -0.0352043 0.000138999 -0.0506684 -19.1238 -2.70811 8.68262 0 0.0284878
447 15 0.001 -0.0334996 -0.000472022 -0.0489538 -17.148 -18.7314 -17.231 0 0.00468988
448 15 0.001 -0.0341098 -0.000197953 -0.0487295 -2.02175 22.142 -3.90208 0 0.00664175
449 15 0.001 -0.0346655 0.000360349 -0.051407 5.92076 7.32554 36.0892 0 0.00670422
450 15 0.001 -0.0350764 -0.000140749 -0.0513355 11.6477 -0.052498 -25.9117 0 0.00162494
451 15 0.001 -0.0341144 0.000612975 -0.0499825 10.0859 -28.9677 13.53 0 0.0204234
223 14 0.001 -0.0292344 0.000658238 -0.0470132 -12.3716 -1.34013 -33.467 0 0.0343389
452 15 0.001 -0.0304849 -0.000632578 -0.0485935 -7.34092 22.542 -24.1642 0 0.0255905
3 3 0.001 -0.0292768 -0.00106236 -0.0510863 -6.11192 26.7302 33.0249 0 0.0320123
683 18 0.001 -0.0306546 0.000116221 -0.0502712 11.7066 -9.39987 2.19673 0 0.00648707
684 18 0.001 -0.0282411 -6.70178e-05 -0.0497303 -6.69794 3.402 -8.73536 0 0.00852021
685 18 0.001 -0.0276947 0.000132895 -0.0520685 18.6632 -15.6876 14.146 0 0.0220679
686 18 0.001 -0.0243336 -0.000142523 -0.0499198 -16.2947 13.5334 0.657224 0 0.0210107
687 18 0.001 -0.0228499 -0.000168487 -0.0482842 -11.7639 -46.4946 -7.81073 0 0.00377845
688 18 0.001 -0.0231583 -0.000256566 -0.0498555 136.41 213.994 48.1126 0 0.00160329
689 18 0.001 -0.0231388 -0.000196838 -0.0501781 -114.185 -189.891 -5.87902 0 0.00102687
690 18 0.001 -0.0229793 -0.000750846 -0.0504871 -1.88863 1.30075 -24.3239 0 0.000905245
691 18 0.001 -0.0234713 -0.000256997 -0.049079 10.0879 17.027 -11.6236 0 0.023445
692 18 0.001 -0.019453 0.00146763 -0.0490798 -31.251 -10.9546 -12.198 0 0.0251413
693 18 0.001 -0.0188617 0.000539622 -0.0508424 6.99917 -36.5007 -44.4586 0 0.00257278
694 18 0.001 -0.0198911 -9.11802e-05 -0.0504422 -32.396 -33.0363 14.8397 0 0.000349286
695 18 0.001 -0.0196058 0.000108759 -0.051024 53.9092 76.9028 39.6566 0 0.0191122
696 18 0.001 -0.0155758 -6.36465e-06 -0.0504275 -13.4992 -0.733694 5.14047 0 0.0241389
697 18 0.001 -0.0134273 -0.000410943 -0.049021 -19.8928 -23.3077 -11.7317 0 0.00544465
698 18 0.001 -0.0139734 -0.000159929 -0.0488536 9.58773 30.5901 -7.4869 0 0.0054428
699 18 0.001 -0.0147418 0.000391998 -0.0512746 -0.481362 -31.3704 72.9867 0 0.0055199
700 18 0.001 -0.0149852 -7.89936e-05 -0.0514892 10.078 21.7597 -56.2445 0 0.00211118
701 18 0.001 -0.014179 0.000492429 -0.0498338 10.2857 -12.8786 3.13886 0 0.0217535
702 18 0.001 -0.0103527 -0.000610667 -0.0486362 -12.3643 16.5233 -18.4726 0 0.0251266
5 5 0.001 -0.00919283 -0.0011621 -0.0508897 -5.81046 30.9137 26.9914 0 0.0274692
473 17 0.001 -0.00927209 0.000675394 -0.0471708 -11.724 -2.22279 -28.9044 0 0.0296428
933 21 0.001 -0.0107048 0.000136575 -0.0502534 11.0419 -8.95198 2.65371 0 0.00601802
934 21 0.001 -0.00845864 9.97085e-06 -0.0496929 -4.96135 1.72506 -8.0299 0 0.0079174
935 21 0.001 -0.00765165 0.000116428 -0.0520169 17.4899 -11.6145 17.9988 0 0.0244997
936 21 0.001 -0.00408916 -8.75566e-05 -0.0498545 -11.738 8.89041 -9.75727 0 0.0220137
937 21 0.001 -0.00272545 -0.000125217 -0.0484612 -39.0589 -15.0879 9.7096 0 0.0023407
938 21 0.001 -0.0033941 4.64255e-05 -0.0497489 176.916 51.6949 -22.4836 0 0.00105984
939 21 0.001 -0.00347582 0.000154644 -0.0501532 -170.565 -67.3036 -29.8645 0 0.00162075
940 21 0.001 -0.00368667 0.000137278 -0.0500147 18.5644 25.1425 51.4118 0 0.00267652
941 21 0.001 -0.00434217 -0.000123245 -0.0482619 31.0726 -8.62019 -16.6766 0 0.031808
942 21 0.001 0.000116455 -0.000213813 -0.0502626 -14.6724 18.2725 0.0572892 0 0.0400913
943 21 0.001 0.00301564 -0.000114442 -0.0516608 -27.8163 -8.87222 25.7175 0 0.0240304
944 21 0.001 0.000825062 1.1352e-05 -0.0487438 5.16916 0.0957504 -23.6415 0 0.0176911
945 21 0.001 -0.000862951 7.08947e-05 -0.0503419 41.8743 -2.62005 -7.53834 0 0.04721
946 21 0.001 0.00434961 -1.33724e-05 -0.0525982 -27.5667 0.542742 50.1767 0 0.0849268
947 21 0.001 0.00516024 8.0761e-05 -0.0471041 -7.5872 -2.19521 -72.4879 0 0.0829023
948 21 0.001 0.00383364 -3.46235e-05 -0.0525126 23.3848 1.33208 72.32 0 0.0944698
949 21 0.001 0.00593232 7.54285e-07 -0.0467254 -9.75692 0.535905 -72.6219 0 0.101898
950 21 0.001 0.00763873 1.90158e-05 -0.0524396 -24.5898 -1.58692 54.3054 0 0.062817
951 21 0.001 0.00536651 -4.61861e-05 -0.0496205 28.6421 3.37349 -11.5831 0 0.0235147
7 7 0.001 0.01 0 -0.05 -0.330099 7.66849 32.6811 0 0.0185058
723 20 0.001 0.0107371 0.000286768 -0.0477491 -13.5566 6.44712 -13.5083 0 0.010678
952 21 0.001 0.00845575 0.000204564 -0.0488411 -9.58082 -5.47989 -8.24406 0 0.0115598
1183 24 0.001 0.0103717 1.81515e-05 -0.0465016 17.4817 -0.243178 -46.8299 0 0.0489957
1184 24 0.001 0.0135673 -4.4278e-06 -0.0506858 -27.1544 0.101058 16.2392 0 0.0413691
1185 24 0.001 0.012063 -4.53128e-06 -0.0527893 12.5495 0.0982458 53.4923 0 0.0641343
1186 24 0.001 0.0128216 8.48635e-07 -0.0463853 21.6699 -0.129493 -67.6621 0 0.102565
1187 24 0.001 0.0169582 -1.12987e-06 -0.0502729 -26.7483 0.555008 13.099 0 0.0473034
1188 24 0.001 0.0180084 1.60546e-05 -0.0523817 -18.6852 -0.530999 40.1599 0 0.039244
1189 24 0.001 0.0156244 -1.97367e-05 -0.0477387 32.0755 0.313314 -55.1897 0 0.063526
1190 24 0.001 0.0169645 2.14386e-05 -0.0522932 20.0282 -0.399731 46.166 0 0.0695894
1191 24 0.001 0.020384 -2.31068e-06 -0.0478994 -22.7945 0.837118 -45.0461 0 0.0613577
1192 24 0.001 0.0201302 -1.71981e-05 -0.0520375 -4.97097 0.336977 48.1896 0 0.036055
1193 24 0.001 0.0202293 1.31048e-05 -0.0481921 14.0682 -1.14487 -40.3014 0 0.0312507
1194 24 0.001 0.0210179 -1.79436e-05 -0.0518424 9.70962 0.338502 39.5082 0 0.0331964
1195 24 0.001 0.0213294 1.99041e-05 -0.0478408 -0.368037 -0.395812 -42.8993 0 0.0410292
1196 24 0.001 0.0222186 -1.92665e-05 -0.0521292 2.97267 0.295316 32.2971 0 0.0490759
1197 24 0.001 0.0250458 2.60437e-07 -0.0484693 -29.7714 0.159488 -39.8657 0 0.0475822
1198 24 0.001 0.0235481 -8.13168e-06 -0.0524643 15.9164 0.171448 65.202 0 0.0730116
1199 24 0.001 0.0253495 2.39927e-05 -0.0466401 -0.864507 -0.785379 -72.021 0 0.0957151
1200 24 0.001 0.025927 -3.64989e-05 -0.0523141 -16.2128 1.12841 44.2061 0 0.0461904
1201 24 0.001 0.0270087 1.08324e-05 -0.0506113 21.5412 -1.02949 -2.33098 0 0.0151843
9 9 0.001 0.03 0 -0.05 0.940375 -8.09616 30.2081 0 0.0156888
973 23 0.001 0.0307371 0.000286768 -0.0477491 -13.5566 6.44712 -13.5083 0 0.010678
1202 24 0.001 0.0293872 5.97081e-05 -0.0479794 -19.1997 0.0552928 -14.3743 0 0.0155897
1433 27 0.001 0.0300465 -0.00249489 -0.0480974 17.6936 27.7428 -22.3055 0 0.0315745
1434 27 0.001 0.0331659 -5.94306e-05 -0.0498882 -25.6565 3.28626 0.0778665 0 0.0376412
1435 27 0.001 0.0313587 0.00292099 -0.0512992 17.4952 -51.0974 7.5613 0 0.0521759
1436 27 0.001 0.0327765 -0.00216715 -0.0517669 15.108 38.257 11.7112 0 0.0592077
1437 27 0.001 0.0360847 -0.00132923 -0.0490845 -5.01057 7.68208 -6.2285 0 0.0286026
1438 27 0.001 0.0363013 0.000826041 -0.047372 3.80957 -10.2009 -25.8256 0 0.0284136
1439 27 0.001 0.0371905 -2.40585e-05 -0.0515198 -5.56468 1.84266 26.6457 0 0.0346243
1440 27 0.001 0.0404608 0.000462113 -0.0503907 -31.3817 -20.351 15.8618 0 0.0321904
1441 27 0.001 0.0375566 -0.000338889 -0.0475559 28.8223 8.01424 -32.1655 0 0.0318124
1442 27 0.001 0.0398098 2.36402e-05 -0.0501503 -2.8069 8.51017 6.05969 0 0.0195118
1443 27 0.001 0.0423033 0.000326278 -0.0516234 17.5319 -4.6679 18.7899 0 0.00739396
1444 27 0.001 0.0419423 0.000128669 -0.0507666 -32.4399 3.34832 -3.20086 0 0.000260671
1445 27 0.001 0.040631 0.000154471 -0.0505104 -8.37073 -1.7444 7.89111 0 0.0014916
1446 27 0.001 0.0418112 -9.9176e-05 -0.0492217 39.9903 1.49265 -19.3336 0 0.0309051
1447 27 0.001 0.0466559 -0.000118353 -0.0495524 32.6756 -28.0596 -23.2359 0 0.0299903
1448 27 0.001 0.0464872 4.42649e-05 -0.0500758 -78.3275 39.4812 50.8593 0 0.001078
1449 27 0.001 0.0450461 0.00025407 -0.0507274 78.9912 -20.2801 -32.7342 0 0.00122826
1450 27 0.001 0.044939 6.72952e-05 -0.0511649 -55.9094 19.4663 5.91374 0 0.00281181
1451 27 0.001 0.0469567 0.000293998 -0.0507864 2.13708 -22.0462 11.7085 0 0.00959819
1452 27 0.001 0.0487226 3.55736e-05 -0.0485084 -3.07252 11.2278 23.1366 0 0.0437972
11 11 0.001 0.0497684 -0.000245321 -0.0433386 -7.01897 7.17988 -73.672 0 0.0897777
1223 26 0.001 0.0496718 0.000498196 -0.0494665 2.34945 17.2524 27.9271 0 0.0570452
14 13 0.001 -0.0518007 0.00199671 -0.0486024 22.1717 14.4125 -15.1815 0 0.00733604
224 14 0.001 -0.0316171 0.00216109 -0.0487905 20.9739 6.2503 4.90232 0 0.0123573
474 17 0.001 -0.0116899 0.00211066 -0.0487091 21.006 7.11658 3.56782 0 0.0117287
724 20 0.001 0.00863348 0.00207508 -0.0483544 18.1377 -1.70072 -4.85638 0 0.00760271
974 23 0.001 0.0286335 0.00207508 -0.0483544 18.1377 -1.70072 -4.85638 0 0.00760271
1224 26 0.001 0.0483133 0.00219053 -0.0485254 12.0185 0.676475 -10.1319 0 0.00568484
17 13 0.001 -0.0516976 0.0039462 -0.0490837 -10.8372 -21.4706 13.0806 0 0.0278408
15 13 0.001 -0.0500545 0.0016881 -0.0494966 -16.8102 -6.68957 20.434 0 0.00341935
16 13 0.001 -0.0490599 0.00207962 -0.0480249 -1.11077 7.74387 -18.392 0 0.0129945
226 14 0.001 -0.0291238 0.00223957 -0.0479838 -3.80336 6.34427 -20.0901 0 0.0126827
227 14 0.001 -0.0318396 0.00378027 -0.049015 -8.69207 -17.9173 16.1277 0 0.0253442
225 14 0.001 -0.0300872 0.00170425 -0.049673 -18.2453 -12.162 16.9926 0 0.00356263
477 17 0.001 -0.0118346 0.00377845 -0.0490147 -8.88383 -18.3987 16.4386 0 0.0253764
475 17 0.001 -0.0100163 0.00173032 -0.0496651 -19.1176 -12.8868 16.3884 0 0.00388923
476 17 0.001 -0.00911384 0.00224131 -0.0479881 -2.8591 6.49965 -19.8356 0 0.0125103
727 20 0.001 0.00862287 0.00431645 -0.0472437 -13.8683 -22.1696 -21.9331 0 0.0312034
725 20 0.001 0.00922594 0.00125111 -0.0496303 -6.77653 -6.61303 16.925 0 0.00283431
726 20 0.001 0.010454 0.00150755 -0.0480998 -9.79372 13.1199 3.14786 0 0.014159
976 23 0.001 0.030454 0.00150755 -0.0480998 -9.79372 13.1199 3.14786 0 0.014159
977 23 0.001 0.0286229 0.00431645 -0.0472437 -13.8683 -22.1696 -21.9331 0 0.0312034
975 23 0.001 0.0292259 0.00125111 -0.0496303 -6.77653 -6.61303 16.925 0 0.00283431
1227 26 0.001 0.0481485 0.00378711 -0.0490432 -9.04773 -14.8728 18.4105 0 0.0255309
1225 26 0.001 0.0498049 0.0012128 -0.0493144 -20.2246 -18.0443 33.4082 0 0.00375901
1226 26 0.001 0.05083 0.00218232 -0.0479648 -5.25684 5.06849 -21.7506 0 0.0125879
19 13 0.001 -0.056308 0.00120159 -0.0451324 -13.6978 6.76523 -30.9925 0 0.0172285
20 13 0.001 -0.0564506 -0.000557224 -0.045677 27.0095 5.55097 19.221 0 0.00492917
18 13 0.001 -0.0553506 0.00358794 -0.0479314 25.1073 -5.70232 15.7449 0 0.031981
230 14 0.001 -0.0364578 -0.000548862 -0.0456511 25.7421 5.60711 19.8058 0 0.00494342
228 14 0.001 -0.0354023 0.00357987 -0.0479777 23.8476 -6.67816 14.3229 0 0.0310101
229 14 0.001 -0.0363159 0.00121004 -0.0450932 -14.1777 7.90318 -32.243 0 0.0177208
480 17 0.001 -0.0164573 -0.000549285 -0.0456535 25.8017 5.63902 19.7901 0 0.00495181
478 17 0.001 -0.0153998 0.00358066 -0.0479779 23.7689 -6.55754 14.1463 0 0.0310315
479 17 0.001 -0.0163169 0.00121155 -0.045094 -14.1185 7.85182 -32.132 0 0.0177266
729 20 0.001 0.0039246 0.00104665 -0.045847 1.09512 3.77574 -39.6994 0 0.0210557
730 20 0.001 0.00380087 -0.000377767 -0.0456933 31.8354 8.67082 31.5783 0 0.00493001
728 20 0.001 0.00477293 0.00412678 -0.0485907 21.2091 -1.64986 39.3879 0 0.0396635
980 23 0.001 0.0238009 -0.000377767 -0.0456933 31.8354 8.67082 31.5783 0 0.00493001
978 23 0.001 0.0247729 0.00412678 -0.0485907 21.2091 -1.64986 39.3879 0 0.0396635
979 23 0.001 0.0239246 0.00104665 -0.045847 1.09512 3.77574 -39.6994 0 0.0210557
1230 26 0.001 0.0435449 -0.00054675 -0.0456272 24.9928 5.4296 19.8276 0 0.0048703
1228 26 0.001 0.0445873 0.00358073 -0.0479937 24.4238 -8.01482 14.905 0 0.031145
1229 26 0.001 0.0437029 0.00120357 -0.0450932 -14.4765 8.22016 -33.3259 0 0.0177824
23 13 0.001 -0.0545086 -0.00114515 -0.0443607 -28.1232 -17.0532 26.4178 0 0.0149613
233 14 0.001 -0.0345114 -0.00114416 -0.0443596 -26.8928 -16.848 25.244 0 0.0154402
483 17 0.001 -0.0145113 -0.0011442 -0.0443597 -26.9835 -16.8607 25.2964 0 0.015419
733 20 0.001 0.00549101 -0.00114694 -0.0443455 -50.5736 -33.0714 28.1146 0 0.00753715
983 23 0.001 0.025491 -0.00114694 -0.0443455 -50.5736 -33.0714 28.1146 0 0.00753715
1233 26 0.001 0.0454881 -0.00114412 -0.0443592 -25.8093 -16.6723 24.7052 0 0.0156536
21 13 0.001 -0.0551968 0.00136173 -0.0457766 -12.0597 -4.13743 -1.71557 0 0.00354544
22 13 0.001 -0.0553986 0.00205333 -0.0456327 3.60761 -12.4813 4.22836 0 0.0132318
231 14 0.001 -0.035145 0.00133089 -0.0457382 -12.2003 -3.79614 2.26404 0 0.00348606
232 14 0.001 -0.0354217 0.00208768 -0.0456618 3.85692 -13.7524 2.59445 0 0.0136431
481 17 0.001 -0.0151471 0.00133243 -0.0457409 -12.2149 -3.84735 2.05295 0 0.00348898
482 17 0.001 -0.0154214 0.00208632 -0.0456597 3.8811 -13.6596 2.66435 0 0.0136243
731 20 0.001 0.00475033 0.00187689 -0.0461419 -35.1759 -10.6186 -27.9 0 0.00454788
732 20 0.001 0.00444352 0.00109208 -0.0454069 25.5341 6.8007 18.9622 0 0.00583821
981 23 0.001 0.0247503 0.00187689 -0.0461419 -35.1759 -10.6186 -27.9 0 0.00454788
982 23 0.001 0.0244435 0.00109208 -0.0454069 25.5341 6.8007 18.9622 0 0.00583821
1231 26 0.001 0.0448752 0.00131509 -0.0457056 -12.0762 -3.05396 4.58975 0 0.00344296
1232 26 0.001 0.0445816 0.0021013 -0.0456862 3.492 -14.8878 1.7034 0 0.013836
25 13 0.001 -0.0547277 -0.000973584 -0.0440316 6.02448 12.7152 -25.3317 0 0.00808452
26 13 0.001 -0.0544739 -0.000983175 -0.041508 -4.02234 -4.92778 -22.1504 0 0.0109826
235 14 0.001 -0.0347276 -0.000973711 -0.0440316 5.95944 12.8394 -25.4971 0 0.00808718
236 14 0.001 -0.0344738 -0.000983086 -0.0415082 -4.04334 -4.94145 -22.1495 0 0.0109826
485 17 0.001 -0.0147276 -0.000973702 -0.0440316 5.95645 12.8326 -25.4875 0 0.00808709
486 17 0.001 -0.0144738 -0.00098309 -0.0415082 -4.04247 -4.9408 -22.1495 0 0.0109826
735 20 0.001 0.00526613 -0.000968016 -0.0440298 5.46738 13.1795 -24.9052 0 0.00800449
736 20 0.001 0.00552221 -0.000987095 -0.0415022 -4.02812 -5.01059 -22.0451 0 0.0109745
985 23 0.001 0.0252661 -0.000968016 -0.0440298 5.46738 13.1795 -24.9052 0 0.00800449
986 23 0.001 0.0255222 -0.000987095 -0.0415022 -4.02812 -5.01059 -22.0451 0 0.0109745
1235 26 0.001 0.0452728 -0.000973836 -0.0440318 6.03637 12.8951 -25.5817 0 0.00808778
1236 26 0.001 0.0455263 -0.000983029 -0.0415083 -4.04862 -4.94597 -22.1504 0 0.0109829
24 13 0.001 -0.0546529 -0.00279101 -0.0453816 1.71507 15.015 -0.863668 0 0.00512485
234 14 0.001 -0.0346534 -0.0027918 -0.0453819 2.24837 15.0137 -0.835435 0 0.00513603
484 17 0.001 -0.0146533 -0.00279176 -0.0453819 2.25593 15.0155 -0.842617 0 0.00513554
734 20 0.001 0.00540408 -0.00275761 -0.0453768 10.8668 15.3143 -1.79032 0 0.00491491
984 23 0.001 0.0254041 -0.00275761 -0.0453768 10.8668 15.3143 -1.79032 0 0.00491491
1234 26 0.001 0.0453453 -0.00279228 -0.0453819 2.02622 14.9828 -0.74478 0 0.00513969
27 13 0.001 -0.0553619 -0.00121014 -0.0440963 39.1667 -2.06209 17.0449 0 0.0299293
28 13 0.001 -0.0514726 -0.00293159 -0.0427974 -26.0717 18.2535 16.9627 0 0.0448571
29 13 0.001 -0.052607 -0.00242459 -0.0387349 7.32343 6.69456 -35.9924 0 0.0273203
30 13 0.001 -0.0530924 -0.00138981 -0.0412371 24.2669 -12.4844 -5.88955 0 0.0401505
237 14 0.001 -0.0353619 -0.00121 -0.0440966 39.1665 -2.07172 17.0489 0 0.0299302
238 14 0.001 -0.0314727 -0.00293163 -0.0427973 -26.0691 18.2541 16.9594 0 0.0448555
239 14 0.001 -0.032607 -0.00242458 -0.0387349 7.32194 6.69425 -35.9917 0 0.0273188
240 14 0.001 -0.0330924 -0.00138976 -0.041237 24.2671 -12.4847 -5.88966 0 0.0401514
487 17 0.001 -0.0153619 -0.00121001 -0.0440966 39.1669 -2.07084 17.0485 0 0.0299301
488 17 0.001 -0.0114727 -0.00293163 -0.0427973 -26.0693 18.254 16.9596 0 0.0448556
489 17 0.001 -0.012607 -0.00242458 -0.0387349 7.32202 6.69427 -35.9918 0 0.0273189
490 17 0.001 -0.0130924 -0.00138977 -0.041237 24.2671 -12.4847 -5.88965 0 0.0401514
737 20 0.001 0.00463643 -0.00121571 -0.044086 39.3995 -1.59377 16.7922 0 0.0298925
738 20 0.001 0.0085342 -0.0029297 -0.0428031 -26.1847 18.223 17.1039 0 0.0449231
739 20 0.001 0.00739082 -0.00242502 -0.0387373 7.38562 6.70636 -36.0207 0 0.027384
740 20 0.001 0.00690823 -0.00139195 -0.0412399 24.2613 -12.4688 -5.88439 0 0.0401121
987 23 0.001 0.0246364 -0.00121571 -0.044086 39.3995 -1.59377 16.7922 0 0.0298925
988 23 0.001 0.0285342 -0.0029297 -0.0428031 -26.1847 18.223 17.1039 0 0.0449231
989 23 0.001 0.0273908 -0.00242502 -0.0387373 7.38562 6.70636 -36.0207 0 0.027384
990 23 0.001 0.0269082 -0.00139195 -0.0412399 24.2613 -12.4688 -5.88439 0 0.0401121
1237 26 0.001 0.0446381 -0.0012099 -0.0440968 39.1596 -2.08565 17.0546 0 0.0299309
1238 26 0.001 0.0485272 -0.00293166 -0.0427972 -26.067 18.255 16.9569 0 0.0448546
1239 26 0.001 0.0473931 -0.00242458 -0.0387348 7.32087 6.6941 -35.9913 0 0.0273178
1240 26 0.001 0.0469075 -0.00138973 -0.041237 24.2672 -12.485 -5.88976 0 0.0401521
31 13 0.001 -0.0489702 -0.00211506 -0.0441957 -27.1549 0.343582 42.6738 0 0.0533952
241 14 0.001 -0.0289702 -0.00211507 -0.0441957 -27.1553 0.343659 42.6748 0 0.0533971
491 17 0.001 -0.00897019 -0.00211507 -0.0441957 -27.1553 0.343659 42.6748 0 0.053397
741 20 0.001 0.0110301 -0.0021147 -0.0441961 -27.1365 0.341301 42.6297 0 0.0533157
991 23 0.001 0.0310301 -0.0021147 -0.0441961 -27.1365 0.341299 42.6297 0 0.0533157
1241 26 0.001 0.0510298 -0.00211507 -0.0441956 -27.1556 0.343703 42.6756 0 0.0533985
32 13 0.001 -0.0497337 -0.00277273 -0.040203 -12.0043 18.7303 -16.7158 0 0.0382406
33 13 0.001 -0.0519373 0.000269816 -0.0386561 30.2474 1.47441 -23.3735 0 0.0507025
242 14 0.001 -0.0297338 -0.00277278 -0.0402029 -12.0039 18.7308 -16.7176 0 0.0382411
243 14 0.001 -0.0319373 0.000269832 -0.0386562 30.2474 1.47344 -23.3716 0 0.0507005
492 17 0.001 -0.00973378 -0.00277278 -0.0402029 -12.0039 18.7307 -16.7175 0 0.0382411
493 17 0.001 -0.0119373 0.000269832 -0.0386562 30.2474 1.47347 -23.3718 0 0.0507006
742 20 0.001 0.0102679 -0.00277054 -0.0402067 -12.022 18.7093 -16.64 0 0.0382171
743 20 0.001 0.00806212 0.000269102 -0.0386524 30.2493 1.51604 -23.4555 0 0.050791
992 23 0.001 0.0302679 -0.00277054 -0.0402067 -12.0219 18.7093 -16.64 0 0.0382171
993 23 0.001 0.0280621 0.000269102 -0.0386524 30.2493 1.51608 -23.4555 0 0.050791
1242 26 0.001 0.0502662 -0.00277282 -0.0402029 -12.0036 18.7311 -16.7188 0 0.0382415
1243 26 0.001 0.0480627 0.000269844 -0.0386562 30.2474 1.47276 -23.3702 0 0.050699
34 13 0.001 -0.0497103 0.00351426 -0.0417413 -21.8382 -44.1155 27.0152 0 0.0527751
244 14 0.001 -0.0297102 0.0035142 -0.0417412 -21.8395 -44.1131 27.0135 0 0.0527708
494 17 0.001 -0.00971021 0.0035142 -0.0417413 -21.8394 -44.1131 27.0136 0 0.0527709
744 20 0.001 0.0102872 0.00351664 -0.0417425 -21.7833 -44.2155 27.0872 0 0.0529583
994 23 0.001 0.0302871 0.00351665 -0.0417425 -21.7833 -44.2157 27.0872 0 0.0529585
1244 26 0.001 0.0502898 0.00351417 -0.0417412 -21.8404 -44.1114 27.0123 0 0.0527678
36 13 0.001 -0.0512304 0.00144058 -0.0357711 7.75865 -8.45842 -33.9743 0 0.031357
35 13 0.001 -0.0503109 -0.000328315 -0.0400813 -9.26825 35.2584 12.0049 0 0.0489114
245 14 0.001 -0.030311 -0.000328147 -0.0400814 -9.26696 35.2558 12.0064 0 0.0489084
246 14 0.001 -0.0312304 0.00144051 -0.0357711 7.75645 -8.45544 -33.9746 0 0.0313572
496 17 0.001 -0.0112304 0.00144052 -0.0357711 7.75614 -8.45511 -33.9744 0 0.0313574
495 17 0.001 -0.010311 -0.000328148 -0.0400814 -9.26717 35.256 12.0063 0 0.0489085
746 20 0.001 0.00876851 0.0014435 -0.0357724 7.84229 -8.57412 -33.959 0 0.0313554
745 20 0.001 0.00969337 -0.000335298 -0.0400785 -9.32938 35.3717 11.9424 0 0.0490433
995 23 0.001 0.0296934 -0.000335308 -0.0400785 -9.32935 35.3718 11.9423 0 0.0490434
996 23 0.001 0.0287685 0.0014435 -0.0357724 7.84266 -8.57456 -33.9591 0 0.0313552
1246 26 0.001 0.0487696 0.00144047 -0.0357711 7.7553 -8.45375 -33.9749 0 0.0313571
1245 26 0.001 0.049689 -0.000328034 -0.0400815 -9.26586 35.2539 12.0074 0 0.0489062
38 13 0.001 -0.0540202 0.004344 -0.0403129 25.7005 -22.4649 40.147 0 0.0616403
39 13 0.001 -0.0522941 0.00294808 -0.0351454 -11.6097 -9.63764 -25.4299 0 0.045362
37 13 0.001 -0.0514264 0.00242558 -0.0378058 -23.3815 8.36679 6.30888 0 0.0223633
249 14 0.001 -0.0322941 0.00294805 -0.0351454 -11.6104 -9.63518 -25.4319 0 0.0453624
247 14 0.001 -0.0314264 0.00242557 -0.0378058 -23.3792 8.36458 6.30842 0 0.0223638
248 14 0.001 -0.0340202 0.004344 -0.0403129 25.7001 -22.465 40.1472 0 0.0616407
499 17 0.001 -0.0122941 0.00294804 -0.0351453 -11.6122 -9.6326 -25.4333 0 0.0453632
498 17 0.001 -0.0140202 0.004344 -0.0403128 25.7002 -22.4653 40.1474 0 0.0616415
497 17 0.001 -0.0114264 0.00242557 -0.0378058 -23.3785 8.36397 6.30822 0 0.0223639
748 20 0.001 0.00597996 0.00434388 -0.0403135 25.7139 -22.469 40.1432 0 0.06164
749 20 0.001 0.00770597 0.00294864 -0.0351457 -11.6061 -9.6318 -25.4284 0 0.0453651
747 20 0.001 0.00857212 0.00242599 -0.0378047 -23.4619 8.44379 6.32512 0 0.022345
999 23 0.001 0.027706 0.00294865 -0.0351458 -11.6044 -9.63373 -25.4276 0 0.0453644
997 23 0.001 0.0285721 0.00242599 -0.0378047 -23.4625 8.4444 6.32532 0 0.0223449
998 23 0.001 0.02598 0.00434389 -0.0403136 25.7138 -22.4689 40.143 0 0.0616394
1249 26 0.001 0.0477059 0.00294806 -0.0351454 -11.6099 -9.63769 -25.4301 0 0.0453619
1248 26 0.001 0.0459798 0.004344 -0.0403128 25.6999 -22.4648 40.1471 0 0.0616404
1247 26 0.001 0.0485736 0.00242556 -0.0378058 -23.3783 8.36367 6.30822 0 0.022364
42 13 0.001 -0.0563535 0.00138161 -0.0361528 18.8876 7.64745 17.8611 0 0.0121547
252 14 0.001 -0.0363532 0.00138177 -0.0361527 18.9007 7.6669 17.8502 0 0.0121483
502 17 0.001 -0.0163531 0.00138204 -0.0361525 18.9069 7.66932 17.8377 0 0.0121483
752 20 0.001 0.00364651 0.00138161 -0.0361528 18.8998 7.66258 17.8685 0 0.0121516
1002 23 0.001 0.0236465 0.00138137 -0.036153 18.8972 7.66584 17.8782 0 0.0121498
1252 26 0.001 0.0436465 0.00138162 -0.0361527 18.8878 7.64771 17.86 0 0.0121545
40 13 0.001 -0.053571 0.00186096 -0.0365125 -6.83132 25.6904 -12.6819 0 0.0130531
41 13 0.001 -0.0563981 0.00234018 -0.0380592 4.64119 -34.1508 -2.81627 0 0.0129175
251 14 0.001 -0.0363982 0.00234017 -0.0380592 4.63155 -34.1541 -2.81285 0 0.0129189
250 14 0.001 -0.0335709 0.00186096 -0.0365125 -6.83232 25.6842 -12.6804 0 0.0130545
501 17 0.001 -0.0163983 0.0023401 -0.0380593 4.62857 -34.1506 -2.80202 0 0.0129205
500 17 0.001 -0.0135709 0.00186093 -0.0365125 -6.8313 25.6781 -12.6821 0 0.0130557
750 20 0.001 0.00642902 0.00186044 -0.0365124 -6.83706 25.6782 -12.6826 0 0.0130549
751 20 0.001 0.00360193 0.00234023 -0.038059 4.62841 -34.1578 -2.82578 0 0.0129171
1001 23 0.001 0.023602 0.0023403 -0.0380589 4.62893 -34.1624 -2.83607 0 0.0129159
1000 23 0.001 0.026429 0.00186047 -0.0365124 -6.83853 25.6827 -12.6804 0 0.013054
1251 26 0.001 0.0436019 0.00234017 -0.0380592 4.64121 -34.1505 -2.81542 0 0.0129176
1250 26 0.001 0.0464291 0.00186098 -0.0365125 -6.8311 25.6904 -12.6819 0 0.0130532
44 13 0.001 -0.0563203 -0.000352295 -0.0355856 14.8213 29.9153 -13.0426 0 0.00837337
45 13 0.001 -0.0559707 -0.00182453 -0.0350883 8.61241 -6.44453 15.0966 0 0.00458499
254 14 0.001 -0.0363203 -0.000352111 -0.0355844 14.808 29.9025 -13.0911 0 0.00836157
255 14 0.001 -0.0359706 -0.0018241 -0.0350881 8.47905 -6.12472 15.0567 0 0.00455747
504 17 0.001 -0.0163204 -0.000352418 -0.035585 14.8015 29.8842 -13.1217 0 0.00836538
505 17 0.001 -0.0159706 -0.00182376 -0.0350878 8.49222 -6.11739 15.0961 0 0.00455769
754 20 0.001 0.00367967 -0.000352186 -0.0355848 14.8064 29.9012 -13.1114 0 0.00836605
755 20 0.001 0.00402938 -0.00182391 -0.0350879 8.48244 -6.11716 15.0803 0 0.00455771
1004 23 0.001 0.0236798 -0.000351792 -0.0355839 14.8102 29.9201 -13.0786 0 0.00835878
1005 23 0.001 0.0240294 -0.00182428 -0.0350883 8.44827 -6.07244 15.021 0 0.00455281
1254 26 0.001 0.0436797 -0.000352301 -0.0355856 14.8211 29.9147 -13.0428 0 0.0083733
1255 26 0.001 0.0440293 -0.00182453 -0.0350883 8.61256 -6.44438 15.0969 0 0.00458497
43 13 0.001 -0.0547206 0.000924267 -0.0334727 -13.6919 -15.8254 -7.22047 0 0.0171257
253 14 0.001 -0.0347208 0.000924282 -0.0334732 -13.6877 -15.8284 -7.19579 0 0.0171087
503 17 0.001 -0.0147208 0.000924151 -0.0334731 -13.6919 -15.8293 -7.20011 0 0.0171128
753 20 0.001 0.00527931 0.000924377 -0.0334729 -13.6849 -15.8312 -7.20694 0 0.0171174
1003 23 0.001 0.0252792 0.000924515 -0.0334731 -13.6797 -15.8303 -7.19577 0 0.0171081
1253 26 0.001 0.0452794 0.000924259 -0.0334727 -13.6921 -15.8253 -7.22014 0 0.0171254
46 13 0.001 -0.0551624 -0.00137245 -0.0329074 -26.8617 -7.9699 19.8188 0 0.00410733
47 13 0.001 -0.054722 -0.00254867 -0.0333974 32.9711 50.5905 -13.0308 0 0.000595358
48 13 0.001 -0.0534966 -0.00317109 -0.0334826 -35.4942 -31.912 -7.08543 0 0.000869577
49 13 0.001 -0.0531108 -0.00283388 -0.03207 14.3137 -25.73 -68.7191 0 0.000590706
256 14 0.001 -0.0351627 -0.00137466 -0.0329117 -27.4002 -8.19848 19.6351 0 0.00407321
257 14 0.001 -0.0347203 -0.00254811 -0.0333917 33.6368 50.6027 -13.124 0 0.000580862
258 14 0.001 -0.0334985 -0.00316805 -0.0334778 -38.4197 -30.7864 -6.18656 0 0.000825285
259 14 0.001 -0.0331045 -0.00283536 -0.0320861 18.8328 -30.9396 -72.599 0 0.000544462
506 17 0.001 -0.0151627 -0.00137455 -0.0329112 -27.3371 -8.19298 19.6371 0 0.00407502
507 17 0.001 -0.0147204 -0.00254825 -0.0333923 33.5522 50.58 -13.1022 0 0.000582
508 17 0.001 -0.0134984 -0.00316827 -0.0334781 -38.2357 -30.8338 -6.24259 0 0.000827704
509 17 0.001 -0.0131049 -0.00283519 -0.0320851 18.5587 -30.5902 -72.4556 0 0.000547063
756 20 0.001 0.00483726 -0.00137463 -0.0329114 -27.3682 -8.196 19.6278 0 0.00407406
757 20 0.001 0.00527967 -0.00254818 -0.033392 33.5887 50.5805 -13.1096 0 0.000581308
758 20 0.001 0.00650154 -0.00316815 -0.0334778 -38.3808 -30.7615 -6.20077 0 0.000825682
759 20 0.001 0.00689545 -0.00283525 -0.0320859 18.7905 -30.9183 -72.5498 0 0.000544895
1006 23 0.001 0.0248372 -0.00137509 -0.0329128 -27.5472 -8.25244 19.6225 0 0.00406606
1007 23 0.001 0.0252799 -0.00254792 -0.0333903 33.8398 50.6616 -13.1604 0 0.000577843
1008 23 0.001 0.0265012 -0.00316737 -0.0334772 -38.8866 -30.7058 -6.03088 0 0.000818409
1009 23 0.001 0.0268964 -0.00283587 -0.0320886 19.5344 -31.618 -73.2419 0 0.000537548
1256 26 0.001 0.0448376 -0.00137245 -0.0329074 -26.8612 -7.96989 19.8188 0 0.00410733
1257 26 0.001 0.045278 -0.00254867 -0.0333974 32.9705 50.5902 -13.0308 0 0.000595362
1258 26 0.001 0.0465034 -0.00317109 -0.0334826 -35.4939 -31.9117 -7.08548 0 0.000869579
1259 26 0.001 0.0468892 -0.00283387 -0.03207 14.3135 -25.73 -68.7187 0 0.000590708
50 13 0.001 -0.0519944 -0.00285532 -0.0321025 -61.6073 16.3878 136.732 0 4.8246e-05
51 13 0.001 -0.0512917 -0.00244894 -0.0314662 90.4657 23.3056 -144.351 0 1.06303e-05
52 13 0.001 -0.0506185 -0.00180748 -0.0310758 -40.0985 -27.5582 98.9653 0 6.48513e-06
260 14 0.001 -0.032004 -0.00285809 -0.0320844 -56.1371 23.7585 135.602 0 3.82867e-05
261 14 0.001 -0.0312845 -0.00244385 -0.0314832 77.7857 19.521 -124.343 0 8.99293e-06
262 14 0.001 -0.0306236 -0.00181344 -0.0310611 -29.7027 -20.0794 70.9481 0 5.95307e-06
510 17 0.001 -0.0120034 -0.00285791 -0.0320856 -56.6952 23.1853 136.072 0 3.8851e-05
511 17 0.001 -0.011285 -0.00244433 -0.0314818 79.0479 20.0941 -126.777 0 9.09876e-06
512 17 0.001 -0.0106231 -0.00181262 -0.031063 -30.977 -21.6312 75.0546 0 6.0047e-06
760 20 0.001 0.00799603 -0.00285811 -0.0320845 -56.1565 23.7132 135.594 0 3.83488e-05
761 20 0.001 0.00871552 -0.00244387 -0.0314831 77.8708 19.5788 -124.532 0 9.00036e-06
762 20 0.001 0.0093764 -0.00181338 -0.0310613 -29.8177 -20.2637 71.3635 0 5.9569e-06
1010 23 0.001 0.0279946 -0.00285835 -0.032082 -55.5495 24.7022 135.549 0 3.70597e-05
1011 23 0.001 0.0287164 -0.00244336 -0.031485 76.1799 19.1376 -122.168 0 8.84101e-06
1012 23 0.001 0.0293759 -0.00181386 -0.03106 -28.5925 -19.7558 68.619 0 5.92435e-06
1260 26 0.001 0.0480056 -0.00285532 -0.0321025 -61.6073 16.3877 136.732 0 4.82464e-05
1261 26 0.001 0.0487083 -0.00244894 -0.0314662 90.4658 23.3055 -144.351 0 1.06304e-05
1262 26 0.001 0.0493815 -0.00180748 -0.0310758 -40.0986 -27.5582 98.9654 0 6.48513e-06
53 13 0.001 -0.0502062 -0.00105684 -0.0305442 15.8551 25.3638 -53.2847 0 6.14969e-06
54 13 0.001 -0.0500154 -0.000169387 -0.0301108 -3.76817 -16.9644 34.0899 0 5.87643e-06
263 14 0.001 -0.0302036 -0.00105113 -0.0305562 9.43436 13.6177 -29.8951 0 5.85682e-06
264 14 0.001 -0.0300161 -0.000173976 -0.0301022 -2.12711 -8.21484 16.2108 0 5.75562e-06
513 17 0.001 -0.0102039 -0.00105242 -0.0305537 10.3395 16.4045 -35.3878 0 5.89939e-06
514 17 0.001 -0.0100162 -0.000172176 -0.0301056 -2.03475 -12.0651 23.5557 0 5.79591e-06
763 20 0.001 0.00979639 -0.00105129 -0.0305559 9.51871 14.0174 -30.6743 0 5.86106e-06