ITEM: TIMESTEP
11
ITEM: NUMBER OF ATOMS
1472
ITEM: BOX BOUNDS ff ff ff
-6.0000000000000005e-02 6.0000000000000005e-02
-6.0000000000000001e-03 6.0000000000000001e-03
-5.5000000000000000e-02 5.5000000000000000e-02
ITEM: ATOMS id type radius x y z fx fy fz c_bendingE c_stretchingE
1 1 0.001 -0.0503004 0.000307392 -0.0522889 3.18682 -7.90117 32.5073 0 0.0201113
13 13 0.001 -0.049439 -0.000380992 -0.0485067 -9.92871 21.0403 -21.6051 0 0.0284061
433 15 0.001 -0.0503142 0.000271411 -0.050123 13.1403 3.26833 -3.02457 0 0.0107668
434 15 0.001 -0.0475745 0.000216576 -0.0489361 -3.22894 -8.55441 -25.7191 0 0.0218518
435 15 0.001 -0.0475378 -0.000488146 -0.0524963 3.29019 15.7818 35.2245 0 0.0285283
436 15 0.001 -0.0459723 0.00024592 -0.0492233 1.78123 -12.6728 -16.0826 0 0.0207975
437 15 0.001 -0.0438019 -0.000267693 -0.0476286 -2.92212 12.0704 -37.0712 0 0.0504413
438 15 0.001 -0.0439717 0.000339194 -0.0533105 5.02872 -11.7333 80.3021 0 0.108006
439 15 0.001 -0.0433635 -0.000293522 -0.0467061 -2.0065 6.10185 -82.268 0 0.115887
440 15 0.001 -0.0428119 0.000180351 -0.0527841 6.67106 -12.0479 62.4062 0 0.0782187
441 15 0.001 -0.042169 -0.00139238 -0.0484972 1.02819 27.7704 -25.1527 0 0.047451
442 15 0.001 -0.0400842 0.00223841 -0.0493422 -3.62433 -33.3256 -11.6087 0 0.0447225
443 15 0.001 -0.0386032 -0.000424161 -0.0525382 -17.8942 17.5788 55.115 0 0.0752869
444 15 0.001 -0.0395101 -0.000851034 -0.0465097 10.1116 14.4602 -85.564 0 0.123788
445 15 0.001 -0.0386529 0.000760405 -0.0532813 -0.374101 -20.6196 69.4837 0 0.0977665
446 15 0.001 -0.0361875 -0.000184199 -0.0495093 9.83877 7.42094 -27.1549 0 0.0336885
447 15 0.001 -0.0339302 -0.000566936 -0.0476374 -24.4037 6.52579 -34.0419 0 0.0507436
448 15 0.001 -0.0343509 0.000781194 -0.0531052 1.53821 -18.0811 78.6431 0 0.104217
449 15 0.001 -0.0343351 -0.000851019 -0.0467622 0.206493 23.1176 -81.8143 0 0.114835
450 15 0.001 -0.0345184 0.000778008 -0.0527336 22.1031 -21.258 37.1887 0 0.0613356
451 15 0.001 -0.0325058 1.51374e-05 -0.0507104 -16.5253 10.748 24.4191 0 0.0227574
223 14 0.001 -0.0290769 -0.000280447 -0.0487911 -9.35603 19.8037 -7.14886 0 0.0160436
452 15 0.001 -0.0306727 -0.000396025 -0.0474786 5.56146 0.13598 -41.6079 0 0.0296998
3 3 0.001 -0.0295596 0.00039758 -0.0509198 -0.130528 -27.5862 25.7306 0 0.0180481
683 18 0.001 -0.0301401 0.000144138 -0.051712 3.66641 12.3768 25.0217 0 0.0237325
684 18 0.001 -0.0279972 -9.34641e-05 -0.0478242 -6.04365 5.72199 -50.7056 0 0.0533144
685 18 0.001 -0.0272945 7.5355e-05 -0.0526204 -4.29886 5.64381 47.9499 0 0.0419003
686 18 0.001 -0.0258709 4.45804e-05 -0.0494505 13.5218 -8.28746 -19.522 0 0.0187744
687 18 0.001 -0.0239351 -0.000414545 -0.0475006 -8.26871 12.7658 -37.973 0 0.0557252
688 18 0.001 -0.0240427 0.000541043 -0.0533987 5.63158 -15.1151 83.5685 0 0.119391
689 18 0.001 -0.0232391 -0.000434999 -0.0465732 -2.51156 7.97885 -87.0259 0 0.129458
690 18 0.001 -0.022742 0.000193845 -0.0529865 3.98841 -14.0464 68.0452 0 0.0868964
691 18 0.001 -0.0224962 -0.00118636 -0.0484839 5.0198 25.6125 -26.8956 0 0.047671
692 18 0.001 -0.0197048 0.00185973 -0.049046 -6.90223 -28.7941 -16.1907 0 0.0424531
693 18 0.001 -0.0187753 -0.000263856 -0.0527187 -12.1023 15.0408 59.8827 0 0.0772346
694 18 0.001 -0.0195007 -0.000807723 -0.0465311 9.53202 15.9964 -86.4768 0 0.126734
695 18 0.001 -0.0186166 0.000779269 -0.0533062 -1.27186 -20.0942 68.8802 0 0.0981536
696 18 0.001 -0.0162774 -0.000209128 -0.0494356 8.09677 7.16622 -26.8035 0 0.0342964
697 18 0.001 -0.0138883 -0.000561832 -0.0476748 -23.85 7.00978 -33.5061 0 0.0502293
698 18 0.001 -0.0143221 0.000787942 -0.0530982 0.733074 -18.3399 78.0874 0 0.103124
699 18 0.001 -0.0143878 -0.000840462 -0.0467701 1.08736 22.9295 -81.1448 0 0.113075
700 18 0.001 -0.0145561 0.000781141 -0.0526714 21.6923 -19.6311 36.005 0 0.0597439
701 18 0.001 -0.0124433 -1.22135e-05 -0.0507981 -14.3958 8.64592 24.5675 0 0.023392
702 18 0.001 -0.0106461 -0.000386524 -0.0474591 4.64924 0.842926 -40.764 0 0.030147
5 5 0.001 -0.0096328 0.000446923 -0.0508866 5.79514 -27.9652 24.5959 0 0.0176624
473 17 0.001 -0.00908817 -0.000279495 -0.0487964 -9.65366 19.912 -7.01835 0 0.0159071
933 21 0.001 -0.0101318 0.000136598 -0.0517049 -0.901094 12.1054 24.6046 0 0.0233595
934 21 0.001 -0.00800851 -9.70416e-05 -0.0478373 -8.92716 6.59777 -49.1703 0 0.0517971
935 21 0.001 -0.00732433 0.000134385 -0.0525571 -6.60629 5.27621 48.9151 0 0.0398619
936 21 0.001 -0.00576306 -3.26964e-05 -0.0495608 19.0956 -8.95377 -20.7069 0 0.0179142
937 21 0.001 -0.00399162 -0.000396192 -0.0474358 -11.1574 13.0578 -38.6879 0 0.0571851
938 21 0.001 -0.00406966 0.000584089 -0.0534032 5.25872 -13.9327 84.5445 0 0.121684
939 21 0.001 -0.00317393 -0.000460176 -0.0465619 -1.49723 15.3575 -86.7585 0 0.129458
940 21 0.001 -0.00293243 0.000280593 -0.0529375 2.47523 -5.25284 71.4144 0 0.08664
941 21 0.001 -0.00284338 -1.38208e-05 -0.0481906 -2.46197 -3.58865 -25.0406 0 0.0332907
942 21 0.001 -0.000386875 -0.00017242 -0.0489843 6.57891 1.80935 -29.0004 0 0.0370077
943 21 0.001 0.00203695 6.86391e-05 -0.0533493 -19.4095 -2.3552 67.7129 0 0.0901443
944 21 0.001 0.00124968 2.42426e-06 -0.046985 -3.19876 0.726116 -66.3704 0 0.0749324
945 21 0.001 0.000802841 6.59007e-06 -0.050844 14.971 -0.359013 19.4565 0 0.0231234
946 21 0.001 0.00346973 -3.40316e-05 -0.0516401 19.7529 0.939 19.365 0 0.0233066
947 21 0.001 0.00434972 6.20226e-05 -0.0478413 15.9464 -1.25072 -32.1717 0 0.0330732
948 21 0.001 0.00484911 -2.23899e-05 -0.0516513 -1.26867 0.302743 16.2263 0 0.026148
949 21 0.001 0.00603474 1.64388e-06 -0.0486568 4.56112 0.212644 17.4629 0 0.0142756
950 21 0.001 0.00727761 -1.34488e-07 -0.0507783 -12.8974 0.195983 -39.4526 0 0.00466915
951 21 0.001 0.0080308 3.01347e-06 -0.0496175 -37.2092 -0.0199631 13.412 0 0.00168402
7 7 0.001 0.01 0 -0.05 12.2697 0.109726 -72.2284 0 0.00381499
723 20 0.001 0.0110648 -0.000330849 -0.0479748 -16.4317 16.5269 -10.828 0 0.0167184
952 21 0.001 0.00961311 -2.4295e-06 -0.0504827 -15.6169 -0.459945 15.3971 0 0.00160436
1183 24 0.001 0.0108292 2.02937e-07 -0.0500471 -9.14616 0.651353 135.087 0 7.29433e-05
1184 24 0.001 0.0118921 1.12928e-06 -0.0497719 28.7642 -0.302825 -51.8509 0 0.000207086
1185 24 0.001 0.0126798 -2.03889e-06 -0.0507719 -4.86353 -0.0404039 -6.90579 0 0.00139389
1186 24 0.001 0.0136394 5.78179e-07 -0.0492956 -1.52045 0.189928 11.2962 0 0.00178209
1187 24 0.001 0.0150949 1.18122e-07 -0.0496959 19.1676 -0.302981 -1.54009 0 0.00105188
1188 24 0.001 0.0158305 1.29297e-06 -0.0509707 48.0624 0.292844 -32.0218 0 0.00232431
1189 24 0.001 0.0165322 -4.01255e-06 -0.0491618 -27.3161 -0.413296 50.6228 0 0.00298467
1190 24 0.001 0.0176019 5.99146e-06 -0.0505314 -15.0913 0.508652 -52.9555 0 0.00248899
1191 24 0.001 0.0188705 -1.70575e-06 -0.049255 18.342 -0.0806698 34.1028 0 0.00573569
1192 24 0.001 0.0199141 -8.78227e-06 -0.0514918 -11.7586 -0.0321104 4.77793 0 0.0207528
1193 24 0.001 0.020641 1.94693e-05 -0.0477045 -16.1357 -0.350653 -46.573 0 0.0521577
1194 24 0.001 0.021284 -2.63251e-05 -0.0529027 -2.49874 0.606746 68.6444 0 0.0857034
1195 24 0.001 0.0219299 2.74937e-05 -0.0469294 4.54424 -0.617036 -69.5506 0 0.0890673
1196 24 0.001 0.022699 -2.09179e-05 -0.0523084 14.0811 0.38659 39.7263 0 0.0576211
1197 24 0.001 0.0244542 1.08986e-05 -0.0486742 27.7257 -0.159078 -10.3299 0 0.0230509
1198 24 0.001 0.0248114 -6.24102e-06 -0.0511503 -12.3032 -0.0453946 -14.6008 0 0.0096162
1199 24 0.001 0.0260995 5.43463e-06 -0.0489246 -12.9677 0.211796 37.066 0 0.00723056
1200 24 0.001 0.0272944 -5.74343e-06 -0.0505697 -34.3671 -0.508728 -24.3546 0 0.00228214
1201 24 0.001 0.028064 4.32695e-06 -0.0496912 -12.0198 0.327555 -18.4254 0 0.00123427
9 9 0.001 0.03 0 -0.05 14.0911 46.7022 -44.2763 0 0.00382916
973 23 0.001 0.0310648 -0.000330849 -0.0479748 -16.4317 16.5269 -10.828 0 0.0167184
1202 24 0.001 0.0296204 -1.64092e-06 -0.0504732 -11.1834 0.229415 31.8334 0 0.00142762
1433 27 0.001 0.0308326 6.21471e-05 -0.0500365 -9.92536 -90.6328 85.7721 0 5.41434e-05
1434 27 0.001 0.0318508 -0.000160189 -0.0498482 9.02548 39.9958 -55.1074 0 2.26991e-05
1435 27 0.001 0.0325601 0.000210306 -0.0502953 5.29938 61.5289 35.9769 0 0.00014867
1436 27 0.001 0.03377 0.000195696 -0.0500181 -14.8961 -116.066 -71.7337 0 0.000409705
1437 27 0.001 0.034889 -0.000473557 -0.0496946 10.0212 71.7443 46.9913 0 0.000326045
1438 27 0.001 0.0357405 0.000178388 -0.0492967 20.3099 -34.6021 4.11241 0 0.00259274
1439 27 0.001 0.0367113 -0.000205471 -0.0511294 -5.34005 23.6076 10.6039 0 0.00513257
1440 27 0.001 0.0386678 0.000604026 -0.0509762 6.8626 -14.0142 16.1118 0 0.0227694
1441 27 0.001 0.0375587 -0.000723358 -0.0471764 9.43084 14.6118 -42.6287 0 0.0420989
1442 27 0.001 0.0400702 7.24196e-05 -0.050589 -7.74961 -0.0450851 12.0192 0 0.0274987
1443 27 0.001 0.0417972 0.000604008 -0.0525364 -20.2834 -12.3324 43.1681 0 0.0608862
1444 27 0.001 0.0411308 -0.000779325 -0.0464531 14.7652 20.5352 -91.7225 0 0.143446
1445 27 0.001 0.0413471 0.000870946 -0.0539341 8.1646 -19.6185 88.9833 0 0.141827
1446 27 0.001 0.0422746 -0.00046376 -0.047955 8.11799 9.62862 -42.2685 0 0.0779405
1447 27 0.001 0.0466924 -0.000285391 -0.0486965 -31.6533 4.80609 -21.6372 0 0.047655
1448 27 0.001 0.0460602 0.000684015 -0.0529646 -4.47977 -15.4217 65.9288 0 0.0783233
1449 27 0.001 0.0454145 -0.000703375 -0.0468998 6.45604 18.5059 -76.132 0 0.0994658
1450 27 0.001 0.0453379 0.00057641 -0.0524853 18.4546 -12.5643 39.2904 0 0.0521633
1451 27 0.001 0.047765 2.27644e-06 -0.0509279 -0.402893 5.37364 12.2883 0 0.0209519
1452 27 0.001 0.0493783 -0.00019656 -0.0477412 -11.1325 1.32848 -38.977 0 0.0294085
11 11 0.001 0.0485825 0.000337137 -0.0514503 8.35107 -4.48536 36.2163 0 0.0261194
1223 26 0.001 0.0507294 -0.000286889 -0.0491139 -20.7859 18.9 -8.27038 0 0.022253
14 13 0.001 -0.0505199 0.00278468 -0.0483738 -5.16126 -26.8756 -11.3642 0 0.0204396
224 14 0.001 -0.0309102 0.00267115 -0.0482951 6.3533 -21.5347 -18.2145 0 0.0216754
474 17 0.001 -0.0108986 0.0026726 -0.0482918 6.21779 -21.5229 -18.3001 0 0.0216229
724 20 0.001 0.00899345 0.00256194 -0.048167 9.86099 -18.6785 -16.2602 0 0.0229453
974 23 0.001 0.0289935 0.00256194 -0.048167 9.86099 -18.6785 -16.2602 0 0.0229453
1224 26 0.001 0.0491156 0.0026584 -0.0482669 6.7535 -20.1853 -21.5425 0 0.021598
17 13 0.001 -0.0519134 0.00400586 -0.0472659 -3.76905 -6.32426 -25.2373 0 0.0200421
15 13 0.001 -0.0516871 0.00149287 -0.0510028 22.2121 13.4321 36.3975 0 0.0336452
16 13 0.001 -0.0495331 0.00243523 -0.0471811 -22.6287 3.41981 -11.7957 0 0.0312469
226 14 0.001 -0.0295573 0.00251395 -0.0471532 -22.9047 2.04072 -11.0852 0 0.0315224
227 14 0.001 -0.0319405 0.00396956 -0.0472717 -4.58387 -7.56367 -25.3658 0 0.0197208
225 14 0.001 -0.0314599 0.00161462 -0.0511727 15.9664 11.6683 40.5557 0 0.0340124
477 17 0.001 -0.0119393 0.00396911 -0.0472721 -4.53251 -7.50969 -25.3695 0 0.019729
475 17 0.001 -0.0114675 0.00161244 -0.0511706 16.0429 11.6405 40.586 0 0.0340919
476 17 0.001 -0.00955381 0.00251164 -0.0471539 -22.9939 2.059 -11.0936 0 0.0315738
727 20 0.001 0.00873243 0.00420824 -0.046021 -17.8234 -2.42312 -32.7089 0 0.0492576
725 20 0.001 0.00845495 0.00175734 -0.0512165 11.7035 4.03975 40.9508 0 0.0302932
726 20 0.001 0.0102939 0.00194713 -0.0474404 -22.9844 3.19559 -9.78309 0 0.0293816
976 23 0.001 0.0302939 0.00194713 -0.0474404 -22.9844 3.19559 -9.78309 0 0.0293816
977 23 0.001 0.0287324 0.00420824 -0.046021 -17.8234 -2.42312 -32.7089 0 0.0492576
975 23 0.001 0.028455 0.00175734 -0.0512165 11.7035 4.03975 40.9508 0 0.0302932
1227 26 0.001 0.0480562 0.00396566 -0.0472751 -4.70375 -7.69073 -25.3013 0 0.0200898
1225 26 0.001 0.0485634 0.0016302 -0.0512023 11.2469 8.35765 43.1596 0 0.0346602
1226 26 0.001 0.0504457 0.00249936 -0.0471453 -22.9201 2.25891 -11.4186 0 0.0318727
19 13 0.001 -0.0562322 0.00131315 -0.0460595 11.6387 6.95767 2.02389 0 0.0337691
20 13 0.001 -0.055315 0.00100289 -0.0425564 -6.62636 0.989486 -61.0922 0 0.0680853
18 13 0.001 -0.0550813 0.00413981 -0.0488689 9.89356 -16.426 28.2986 0 0.0329283
230 14 0.001 -0.0353202 0.000994618 -0.0425534 -6.34488 1.03657 -60.8496 0 0.0677606
228 14 0.001 -0.0351087 0.0041203 -0.0488945 9.95889 -16.076 28.7653 0 0.0330044
229 14 0.001 -0.0362123 0.00133707 -0.0460263 10.8534 6.86115 1.78697 0 0.0334064
480 17 0.001 -0.01532 0.000995376 -0.0425536 -6.3652 1.02746 -60.8661 0 0.0677834
478 17 0.001 -0.0151069 0.00412161 -0.0488932 9.93577 -16.1164 28.7565 0 0.0329942
479 17 0.001 -0.0162142 0.00133599 -0.0460285 10.9077 6.88296 1.81122 0 0.0334324
729 20 0.001 0.00345397 0.000684796 -0.0461154 23.2715 26.3713 -6.8364 0 0.0552865
730 20 0.001 0.00486515 0.00129009 -0.0425992 -11.5557 -6.24233 -61.4108 0 0.0706136
728 20 0.001 0.00472595 0.00448321 -0.049786 18.1889 -23.4533 45.3059 0 0.0795712
980 23 0.001 0.0248651 0.00129009 -0.0425992 -11.5557 -6.24233 -61.4108 0 0.0706136
978 23 0.001 0.0247259 0.00448321 -0.049786 18.1889 -23.4533 45.3059 0 0.0795712
979 23 0.001 0.023454 0.000684796 -0.0461154 23.2715 26.3713 -6.8364 0 0.0552865
1230 26 0.001 0.0446779 0.000983907 -0.042551 -6.02819 1.1167 -60.6645 0 0.067476
1228 26 0.001 0.0448734 0.00412906 -0.0489294 10.2867 -16.1887 29.1056 0 0.0336754
1229 26 0.001 0.0438167 0.00134579 -0.0459999 10.0968 6.8582 1.36076 0 0.0334936
23 13 0.001 -0.0545976 -4.14905e-05 -0.0420305 -11.2427 -13.335 -51.0584 0 0.0715715
233 14 0.001 -0.0345976 -4.20653e-05 -0.0420313 -11.2392 -13.3255 -51.0415 0 0.0715472
483 17 0.001 -0.0145976 -4.20264e-05 -0.0420313 -11.2397 -13.326 -51.0426 0 0.0715491
733 20 0.001 0.00540455 -1.42645e-05 -0.0419938 -11.3911 -13.8121 -51.815 0 0.0726743
983 23 0.001 0.0254046 -1.42645e-05 -0.0419938 -11.3911 -13.8121 -51.815 0 0.0726743
1233 26 0.001 0.0454024 -4.25657e-05 -0.042032 -11.2292 -13.3203 -51.0283 0 0.0715211
21 13 0.001 -0.0563342 0.000791657 -0.0486868 9.54151 14.5104 56.1563 0 0.0639437
22 13 0.001 -0.0555257 0.00216939 -0.0459091 0.981037 -21.3386 7.95565 0 0.0351087
231 14 0.001 -0.0363376 0.000786388 -0.0486849 9.88031 14.5407 56.1273 0 0.0639785
232 14 0.001 -0.0355247 0.00217036 -0.0459086 0.963305 -21.3406 7.92621 0 0.0351228
481 17 0.001 -0.0163373 0.000786728 -0.048685 9.85717 14.5391 56.1288 0 0.0639766
482 17 0.001 -0.0155248 0.00217033 -0.0459087 0.963017 -21.3411 7.92871 0 0.0351222
731 20 0.001 0.00373069 0.000845182 -0.0487129 7.55387 9.29577 55.6334 0 0.0637438
732 20 0.001 0.00442886 0.0021266 -0.0459284 1.4079 -23.0822 9.77264 0 0.0349294
981 23 0.001 0.0237307 0.000845182 -0.0487129 7.55387 9.29577 55.6334 0 0.0637438
982 23 0.001 0.0244289 0.0021266 -0.0459284 1.4079 -23.0822 9.77264 0 0.0349294
1231 26 0.001 0.0436587 0.000782503 -0.048683 10.1783 14.561 56.114 0 0.0640067
1232 26 0.001 0.0444767 0.00217054 -0.0459083 0.983718 -21.3292 7.88871 0 0.0351266
25 13 0.001 -0.0549004 -0.00169273 -0.0447642 -7.38781 5.08043 17.4393 0 0.0317994
26 13 0.001 -0.0546796 -0.000977506 -0.0402396 2.78437 -19.2414 -48.1828 0 0.0538385
235 14 0.001 -0.0349003 -0.00169288 -0.0447642 -7.3875 5.08258 17.4405 0 0.0318011
236 14 0.001 -0.0346795 -0.000977354 -0.0402396 2.78341 -19.2444 -48.1843 0 0.0538418
485 17 0.001 -0.0149003 -0.00169287 -0.0447642 -7.38763 5.08254 17.4404 0 0.031801
486 17 0.001 -0.0146795 -0.000977363 -0.0402396 2.78346 -19.2442 -48.1842 0 0.0538416
735 20 0.001 0.00509634 -0.00168629 -0.0447638 -7.40643 5.02287 17.3793 0 0.031726
736 20 0.001 0.00531711 -0.000983981 -0.0402395 2.82838 -19.1131 -48.1212 0 0.0536996
985 23 0.001 0.0250963 -0.00168629 -0.0447638 -7.40643 5.02287 17.3793 0 0.031726
986 23 0.001 0.0253171 -0.000983981 -0.0402395 2.82838 -19.1131 -48.1212 0 0.0536996
1235 26 0.001 0.0450998 -0.001693 -0.0447643 -7.385 5.08288 17.4416 0 0.0318027
1236 26 0.001 0.0453205 -0.000977242 -0.0402396 2.78273 -19.2467 -48.1854 0 0.0538444
24 13 0.001 -0.0562151 -0.0030321 -0.046755 25.7407 17.1479 39.7354 0 0.0523648
234 14 0.001 -0.0362154 -0.00303239 -0.0467549 25.7355 17.1467 39.7294 0 0.0523492
484 17 0.001 -0.0162154 -0.00303237 -0.0467549 25.736 17.1468 39.7298 0 0.0523502
734 20 0.001 0.00379759 -0.0030192 -0.0467614 25.849 17.2021 40.0445 0 0.053081
984 23 0.001 0.0237976 -0.0030192 -0.0467614 25.849 17.2021 40.0445 0 0.053081
1234 26 0.001 0.0437843 -0.00303261 -0.0467547 25.7276 17.1464 39.7253 0 0.0523361
27 13 0.001 -0.0543524 -0.00318508 -0.0444385 -4.77958 25.3013 22.6565 0 0.0338178
28 13 0.001 -0.0518451 -0.00351302 -0.0435778 -0.975753 8.52499 22.2755 0 0.0230615
29 13 0.001 -0.0527867 -0.00265799 -0.039842 7.27442 10.2321 -11.9783 0 0.0185733
30 13 0.001 -0.051806 -0.00212001 -0.041186 1.79768 -3.53976 -7.10126 0 0.00944766
237 14 0.001 -0.0343523 -0.00318508 -0.0444386 -4.77968 25.3032 22.6563 0 0.0338202
238 14 0.001 -0.0318452 -0.00351303 -0.0435777 -0.975471 8.52463 22.2753 0 0.0230603
239 14 0.001 -0.0327867 -0.00265797 -0.039842 7.27464 10.2304 -11.9787 0 0.0185723
240 14 0.001 -0.031806 -0.00212003 -0.041186 1.79694 -3.53645 -7.09898 0 0.00944759
487 17 0.001 -0.0143523 -0.00318508 -0.0444386 -4.77966 25.3031 22.6563 0 0.03382
488 17 0.001 -0.0118452 -0.00351303 -0.0435777 -0.975485 8.52465 22.2753 0 0.0230604
489 17 0.001 -0.0127867 -0.00265797 -0.039842 7.27463 10.2305 -11.9787 0 0.0185724
490 17 0.001 -0.011806 -0.00212003 -0.041186 1.79698 -3.53663 -7.09911 0 0.00944759
737 20 0.001 0.00564694 -0.00318528 -0.0444335 -4.77473 25.2233 22.6651 0 0.0337201
738 20 0.001 0.0081585 -0.00351255 -0.0435814 -0.987762 8.54139 22.286 0 0.0231128
739 20 0.001 0.0072122 -0.0026589 -0.0398426 7.26655 10.3025 -11.9592 0 0.0186167
740 20 0.001 0.00819369 -0.00211924 -0.0411853 1.82657 -3.6778 -7.19681 0 0.00945075
987 23 0.001 0.0256469 -0.00318528 -0.0444335 -4.77473 25.2233 22.6651 0 0.0337201
988 23 0.001 0.0281585 -0.00351255 -0.0435814 -0.987762 8.54139 22.286 0 0.0231128
989 23 0.001 0.0272122 -0.0026589 -0.0398426 7.26655 10.3025 -11.9592 0 0.0186167
990 23 0.001 0.0281937 -0.00211924 -0.0411853 1.82657 -3.6778 -7.19681 0 0.00945075
1237 26 0.001 0.0456477 -0.00318508 -0.0444387 -4.77994 25.3048 22.656 0 0.0338219
1238 26 0.001 0.0481547 -0.00351304 -0.0435776 -0.975303 8.52433 22.2751 0 0.0230594
1239 26 0.001 0.0472133 -0.00265795 -0.039842 7.27477 10.2292 -11.979 0 0.0185716
1240 26 0.001 0.048194 -0.00212004 -0.041186 1.79646 -3.5341 -7.09736 0 0.00944753
31 13 0.001 -0.0493242 -0.00164136 -0.0428451 -17.665 -2.99718 10.9737 0 0.0171855
241 14 0.001 -0.0293242 -0.00164135 -0.0428451 -17.665 -2.99851 10.9731 0 0.0171856
491 17 0.001 -0.00932423 -0.00164135 -0.0428451 -17.665 -2.99844 10.9731 0 0.0171856
741 20 0.001 0.0106757 -0.00164177 -0.0428452 -17.6667 -2.94333 10.9977 0 0.0171829
991 23 0.001 0.0306757 -0.00164177 -0.0428452 -17.6667 -2.94333 10.9977 0 0.0171829
1241 26 0.001 0.0506758 -0.00164134 -0.0428451 -17.665 -2.99941 10.9727 0 0.0171856
32 13 0.001 -0.0502706 -0.00137429 -0.0399025 -5.28072 -14.6062 -7.31698 0 0.00909993
33 13 0.001 -0.0505777 -0.000230713 -0.0394223 15.1529 3.32538 -10.4203 0 0.00156529
242 14 0.001 -0.0302706 -0.0013743 -0.0399025 -5.28152 -14.6069 -7.3157 0 0.00910006
243 14 0.001 -0.0305777 -0.00023071 -0.0394223 15.1543 3.32543 -10.422 0 0.00156527
492 17 0.001 -0.0102706 -0.0013743 -0.0399025 -5.28146 -14.6068 -7.31578 0 0.00910005
493 17 0.001 -0.0105777 -0.00023071 -0.0394223 15.1542 3.32544 -10.4219 0 0.00156527
742 20 0.001 0.00972982 -0.00137406 -0.0399033 -5.24479 -14.5781 -7.37211 0 0.00909452
743 20 0.001 0.00942234 -0.000230839 -0.0394217 15.0881 3.32321 -10.3446 0 0.001566
992 23 0.001 0.0297298 -0.00137406 -0.0399033 -5.2448 -14.5781 -7.37211 0 0.00909452
993 23 0.001 0.0294223 -0.000230839 -0.0394217 15.0881 3.3232 -10.3447 0 0.001566
1242 26 0.001 0.0497294 -0.0013743 -0.0399025 -5.28214 -14.6073 -7.31477 0 0.00910015
1243 26 0.001 0.0494223 -0.000230708 -0.0394223 15.1554 3.32546 -10.4233 0 0.00156526
34 13 0.001 -0.0498129 0.00121653 -0.0402007 -29.2977 47.6172 -38.928 0 0.00154413
244 14 0.001 -0.0298129 0.00121654 -0.0402008 -29.2989 47.6181 -38.9279 0 0.00154413
494 17 0.001 -0.00981288 0.00121654 -0.0402008 -29.2989 47.618 -38.9279 0 0.00154413
744 20 0.001 0.0101869 0.00121642 -0.0402007 -29.2446 47.5794 -38.9351 0 0.00154439
994 23 0.001 0.0301869 0.00121642 -0.0402007 -29.2445 47.5794 -38.9351 0 0.00154439
1244 26 0.001 0.0501871 0.00121654 -0.0402008 -29.2998 47.6187 -38.9278 0 0.00154412
36 13 0.001 -0.0510868 0.00194876 -0.038007 -18.0955 38.3702 -29.6954 0 0.00066252
35 13 0.001 -0.0504198 0.00181666 -0.0392745 34.8257 -87.8694 57.1582 0 0.000584971
245 14 0.001 -0.0304198 0.00181665 -0.0392745 34.8267 -87.8699 57.1587 0 0.000584971
246 14 0.001 -0.0310868 0.00194876 -0.038007 -18.0961 38.3703 -29.6958 0 0.000662517
496 17 0.001 -0.0110868 0.00194876 -0.038007 -18.0962 38.3702 -29.6957 0 0.000662519
495 17 0.001 -0.0104198 0.00181665 -0.0392745 34.8267 -87.8699 57.1587 0 0.000584971
746 20 0.001 0.00891324 0.00194874 -0.038007 -18.0737 38.3641 -29.6792 0 0.000662677
745 20 0.001 0.00958022 0.00181678 -0.0392747 34.7836 -87.8444 57.1383 0 0.000584989
995 23 0.001 0.0295802 0.00181678 -0.0392747 34.7836 -87.8444 57.1383 0 0.000584989
996 23 0.001 0.0289132 0.00194874 -0.038007 -18.0736 38.3642 -29.6793 0 0.000662676
1246 26 0.001 0.0489132 0.00194876 -0.038007 -18.0964 38.3705 -29.6961 0 0.000662514
1245 26 0.001 0.0495802 0.00181665 -0.0392745 34.8274 -87.8704 57.159 0 0.00058497
38 13 0.001 -0.0526291 0.00296886 -0.0376069 -87.4206 59.699 -128.793 0 3.66698e-05
39 13 0.001 -0.0535593 0.0029443 -0.0372133 50.7237 -42.1832 102.568 0 6.67459e-06
37 13 0.001 -0.0519064 0.00289288 -0.038436 51.8853 -24.5029 61.1034 0 0.000271392
249 14 0.001 -0.0335593 0.0029443 -0.0372133 50.724 -42.1833 102.569 0 6.67461e-06
247 14 0.001 -0.0319064 0.00289288 -0.038436 51.8855 -24.5026 61.1031 0 0.000271394
248 14 0.001 -0.0326291 0.00296886 -0.0376069 -87.4206 59.699 -128.794 0 3.66702e-05
499 17 0.001 -0.0135593 0.0029443 -0.0372133 50.7244 -42.1832 102.57 0 6.67462e-06
498 17 0.001 -0.0126291 0.00296886 -0.0376069 -87.4206 59.699 -128.794 0 3.66705e-05
497 17 0.001 -0.0119064 0.00289288 -0.038436 51.8856 -24.5026 61.1029 0 0.000271395
748 20 0.001 0.00737089 0.00296886 -0.0376069 -87.4221 59.6979 -128.797 0 3.66574e-05
749 20 0.001 0.00644074 0.0029443 -0.0372133 50.7209 -42.1773 102.56 0 6.67433e-06
747 20 0.001 0.00809359 0.00289287 -0.038436 51.8816 -24.5118 61.1095 0 0.000271355
999 23 0.001 0.0264407 0.0029443 -0.0372133 50.7205 -42.1773 102.559 0 6.67432e-06
997 23 0.001 0.0280936 0.00289287 -0.038436 51.8815 -24.5119 61.1097 0 0.000271354
998 23 0.001 0.0273709 0.00296886 -0.0376069 -87.422 59.6979 -128.796 0 3.66572e-05
1249 26 0.001 0.0464407 0.0029443 -0.0372133 50.7238 -42.1835 102.568 0 6.6746e-06
1248 26 0.001 0.0473709 0.00296886 -0.0376069 -87.4205 59.6991 -128.793 0 3.66703e-05
1247 26 0.001 0.0480936 0.00289288 -0.038436 51.8855 -24.5025 61.1031 0 0.000271394
42 13 0.001 -0.05564 0.00141271 -0.035782 -0.270832 -0.208759 -0.617862 0 6.12395e-06
252 14 0.001 -0.03564 0.00141271 -0.035782 -0.270929 -0.208845 -0.618091 0 6.12395e-06
502 17 0.001 -0.01564 0.00141271 -0.035782 -0.271136 -0.209157 -0.618797 0 6.12395e-06
752 20 0.001 0.00435998 0.00141271 -0.035782 -0.271068 -0.20908 -0.618604 0 6.12395e-06
1002 23 0.001 0.02436 0.00141271 -0.035782 -0.270887 -0.208774 -0.617931 0 6.12395e-06
1252 26 0.001 0.04436 0.00141271 -0.035782 -0.270833 -0.20876 -0.617864 0 6.12395e-06
40 13 0.001 -0.0543923 0.0026505 -0.0367286 -18.0536 6.42317 -27.3634 0 6.20889e-06
41 13 0.001 -0.0551094 0.00212509 -0.0362561 2.29122 1.40371 4.996 0 6.11443e-06
251 14 0.001 -0.0351094 0.00212509 -0.0362561 2.29144 1.40389 4.99653 0 6.11443e-06
250 14 0.001 -0.0343923 0.0026505 -0.0367286 -18.0541 6.42301 -27.3642 0 6.2089e-06
501 17 0.001 -0.0151094 0.00212509 -0.0362561 2.2918 1.40423 4.99747 0 6.11443e-06
500 17 0.001 -0.0143923 0.0026505 -0.0367286 -18.0547 6.4227 -27.3653 0 6.2089e-06
750 20 0.001 0.00560772 0.0026505 -0.0367286 -18.051 6.42171 -27.3597 0 6.20888e-06
751 20 0.001 0.00489058 0.00212509 -0.0362561 2.29139 1.40382 4.9964 0 6.11443e-06
1001 23 0.001 0.0248906 0.00212509 -0.0362561 2.2911 1.40354 4.99562 0 6.11443e-06
1000 23 0.001 0.0256077 0.0026505 -0.0367286 -18.0506 6.42195 -27.3588 0 6.20888e-06
1251 26 0.001 0.0448906 0.00212509 -0.0362561 2.29124 1.40373 4.99604 0 6.11443e-06
1250 26 0.001 0.0456077 0.0026505 -0.0367286 -18.0538 6.42321 -27.3636 0 6.20889e-06
44 13 0.001 -0.055978 -0.000311504 -0.0348341 0.0159309 -0.00361388 -0.0102674 0 6.12296e-06
45 13 0.001 -0.0557555 -0.00117154 -0.0343602 0.0150013 0.00888044 0.00438448 0 6.12295e-06
254 14 0.001 -0.035978 -0.000311504 -0.0348341 0.0158544 -0.00338629 -0.00982384 0 6.12296e-06
255 14 0.001 -0.0357555 -0.00117154 -0.0343602 0.0152135 0.00851127 0.00358461 0 6.12295e-06
504 17 0.001 -0.015978 -0.000311504 -0.0348341 0.0158482 -0.00355288 -0.010137 0 6.12296e-06
505 17 0.001 -0.0157555 -0.00117154 -0.0343602 0.0151933 0.00860204 0.00375841 0 6.12295e-06
754 20 0.001 0.00402201 -0.000311504 -0.0348341 0.0158474 -0.00350942 -0.010055 0 6.12296e-06
755 20 0.001 0.00424447 -0.00117154 -0.0343602 0.0152022 0.00857279 0.00370084 0 6.12295e-06
1004 23 0.001 0.024022 -0.000311504 -0.0348341 0.0158295 -0.00323996 -0.00954398 0 6.12296e-06
1005 23 0.001 0.0242445 -0.00117154 -0.0343602 0.0152857 0.00835315 0.00325626 0 6.12295e-06
1254 26 0.001 0.044022 -0.000311504 -0.0348341 0.0159309 -0.00361388 -0.0102674 0 6.12296e-06
1255 26 0.001 0.0442445 -0.00117154 -0.0343602 0.0150013 0.00888044 0.00438448 0 6.12295e-06
43 13 0.001 -0.0559383 0.000575945 -0.0353081 0.042028 0.0308633 0.0758506 0 6.12286e-06
253 14 0.001 -0.0359383 0.000575945 -0.0353081 0.0420674 0.0308067 0.0757593 0 6.12286e-06
503 17 0.001 -0.0159383 0.000575945 -0.0353081 0.0421459 0.0310573 0.076254 0 6.12286e-06
753 20 0.001 0.00406168 0.000575945 -0.0353081 0.0421299 0.0310006 0.0761427 0 6.12286e-06
1003 23 0.001 0.0240617 0.000575945 -0.0353081 0.042059 0.0306987 0.0755557 0 6.12286e-06
1253 26 0.001 0.0440617 0.000575945 -0.0353081 0.0420281 0.0308633 0.0758508 0 6.12286e-06
46 13 0.001 -0.0552905 -0.00192845 -0.0338863 0.0145768 0.0094006 -0.00415802 0 6.12295e-06
47 13 0.001 -0.0546239 -0.00251562 -0.0334123 0.00743316 0.0156514 0.0042444 0 6.12295e-06
48 13 0.001 -0.0538144 -0.00288136 -0.0329384 0.00680889 0.0159178 -0.00420538 0 6.12295e-06
49 13 0.001 -0.0529331 -0.00299349 -0.0324645 -0.00250747 0.0171726 0.004017 0 6.12295e-06
256 14 0.001 -0.0352905 -0.00192845 -0.0338863 0.0141577 0.0098288 -0.00302782 0 6.12295e-06
257 14 0.001 -0.0346239 -0.00251562 -0.0334123 0.00807628 0.0152777 0.00283927 0 6.12295e-06
258 14 0.001 -0.0338144 -0.00288137 -0.0329384 0.00598935 0.0161272 -0.00260637 0 6.12295e-06
259 14 0.001 -0.0329331 -0.00299349 -0.0324645 -0.00161252 0.0171984 0.00232408 0 6.12295e-06
506 17 0.001 -0.0152905 -0.00192845 -0.0338863 0.014176 0.00979039 -0.0031065 0 6.12295e-06
507 17 0.001 -0.0146239 -0.00251562 -0.0334123 0.00806886 0.0152888 0.00286301 0 6.12295e-06
508 17 0.001 -0.0138144 -0.00288137 -0.0329384 0.00598955 0.0161259 -0.0026078 0 6.12295e-06
509 17 0.001 -0.0129331 -0.00299349 -0.0324645 -0.00161405 0.0171967 0.0023273 0 6.12295e-06
756 20 0.001 0.00470947 -0.00192845 -0.0338863 0.0141652 0.0098071 -0.003069 0 6.12295e-06
757 20 0.001 0.00537608 -0.00251562 -0.0334123 0.00807895 0.0152808 0.00283855 0 6.12295e-06
758 20 0.001 0.00618563 -0.00288137 -0.0329384 0.00597937 0.0161287 -0.00258765 0 6.12295e-06
759 20 0.001 0.00706687 -0.00299349 -0.0324645 -0.00160082 0.0171984 0.00230204 0 6.12295e-06
1006 23 0.001 0.0247095 -0.00192845 -0.0338863 0.0140407 0.0099679 -0.00268432 0 6.12295e-06
1007 23 0.001 0.0253761 -0.00251562 -0.0334123 0.00822052 0.0151799 0.00250985 0 6.12295e-06
1008 23 0.001 0.0261856 -0.00288137 -0.0329384 0.00584175 0.0161756 -0.0023128 0 6.12295e-06
1009 23 0.001 0.0270669 -0.00299349 -0.0324645 -0.00148327 0.0171935 0.00207977 0 6.12295e-06
1256 26 0.001 0.0447095 -0.00192845 -0.0338863 0.0145768 0.0094006 -0.00415802 0 6.12295e-06
1257 26 0.001 0.0453761 -0.00251562 -0.0334123 0.00743316 0.0156514 0.0042444 0 6.12295e-06
1258 26 0.001 0.0461856 -0.00288136 -0.0329384 0.00680889 0.0159178 -0.00420538 0 6.12295e-06
1259 26 0.001 0.0470669 -0.00299349 -0.0324645 -0.00250747 0.0171726 0.004017 0 6.12295e-06
50 13 0.001 -0.0520578 -0.00284213 -0.0319905 -0.0035408 0.0168708 -0.00368509 0 6.12295e-06
51 13 0.001 -0.0512654 -0.0024406 -0.0315166 -0.0113884 0.0130844 0.00322112 0 6.12295e-06
52 13 0.001 -0.0506256 -0.00182425 -0.0310427 -0.0127047 0.0115226 -0.00264244 0 6.12295e-06
260 14 0.001 -0.0320578 -0.00284213 -0.0319905 -0.00438597 0.0166016 -0.00200798 0 6.12295e-06
261 14 0.001 -0.0312654 -0.0024406 -0.0315166 -0.0107044 0.013539 0.00166866 0 6.12295e-06
262 14 0.001 -0.0306256 -0.00182425 -0.0310427 -0.013164 0.0109881 -0.00131174 0 6.12295e-06
510 17 0.001 -0.0120578 -0.00284213 -0.0319905 -0.00437637 0.0166086 -0.00202955 0 6.12295e-06
511 17 0.001 -0.0112654 -0.0024406 -0.0315166 -0.0107234 0.0135194 0.00171978 0 6.12295e-06
512 17 0.001 -0.0106256 -0.00182425 -0.0310427 -0.0131402 0.0110292 -0.00140096 0 6.12295e-06
760 20 0.001 0.00794221 -0.00284213 -0.0319905 -0.00439535 0.0165994 -0.00198982 0 6.12295e-06
761 20 0.001 0.00873463 -0.0024406 -0.0315166 -0.0106987 0.0135419 0.00165668 0 6.12295e-06
762 20 0.001 0.00937436 -0.00182425 -0.0310427 -0.0131665 0.0109863 -0.00130606 0 6.12295e-06
1010 23 0.001 0.0279422 -0.00284213 -0.0319905 -0.00448336 0.016578 -0.00181889 0 6.12295e-06
1011 23 0.001 0.0287346 -0.0024406 -0.0315166 -0.0106423 0.0135733 0.00153533 0 6.12295e-06
1012 23 0.001 0.0293744 -0.00182425 -0.0310427 -0.0131957 0.0109591 -0.0012316 0 6.12295e-06
1260 26 0.001 0.0479422 -0.00284213 -0.0319905 -0.0035408 0.0168708 -0.00368509 0 6.12295e-06
1261 26 0.001 0.0487346 -0.0024406 -0.0315166 -0.0113884 0.0130844 0.00322112 0 6.12295e-06
1262 26 0.001 0.0493744 -0.00182425 -0.0310427 -0.0127047 0.0115226 -0.00264244 0 6.12295e-06
53 13 0.001 -0.0501949 -0.00104733 -0.0305687 -0.0165616 0.0050703 0.00197316 0 6.12295e-06