ITEM: TIMESTEP
15
ITEM: NUMBER OF ATOMS
1472
ITEM: BOX BOUNDS ff ff ff
-6.0000000000000005e-02 6.0000000000000005e-02
-6.0000000000000001e-03 6.0000000000000001e-03
-5.5000000000000000e-02 5.5000000000000000e-02
ITEM: ATOMS id type radius x y z fx fy fz c_bendingE c_stretchingE
1 1 0.001 -0.0487024 -0.000297191 -0.048717 2.41908 -4.72112 -64.781 0 0.00421784
13 13 0.001 -0.0495824 8.55732e-05 -0.0489037 -13.2973 21.9994 42.38 0 0.00848504
433 15 0.001 -0.0508496 0.000571454 -0.049477 21.7134 -5.45727 8.36518 0 0.019994
434 15 0.001 -0.0471068 -6.42564e-06 -0.049844 -5.09883 -0.362683 -1.0808 0 0.0259794
435 15 0.001 -0.0476426 -0.000435216 -0.0530213 6.28894 5.48498 41.3132 0 0.0357784
436 15 0.001 -0.0456509 0.000298322 -0.0489648 -3.05979 -7.87436 -19.5791 0 0.0365387
437 15 0.001 -0.0424581 -7.9775e-05 -0.0480828 -21.4611 -0.850359 -17.4739 0 0.0199116
438 15 0.001 -0.0432055 -9.81894e-05 -0.0510978 4.38884 -17.3802 24.9287 0 0.0115893
439 15 0.001 -0.0432091 -0.000180086 -0.048967 16.6636 0.333506 -16.5315 0 0.00730863
440 15 0.001 -0.0429219 -0.000406924 -0.0514545 3.96292 6.11425 21.8598 0 0.012088
441 15 0.001 -0.0430828 -0.00104213 -0.0486135 4.30335 30.5521 -13.3771 0 0.0347871
442 15 0.001 -0.0399121 0.00237684 -0.0492209 -14.5449 -33.6069 -4.91218 0 0.0391472
443 15 0.001 -0.0386264 0.000153254 -0.0514793 -22.2462 -0.111371 10.2374 0 0.0181254
444 15 0.001 -0.0398858 -0.000582815 -0.049125 4.29131 10.8982 -22.6733 0 0.0125983
445 15 0.001 -0.0397175 0.000186139 -0.0517666 35.3276 9.42027 19.7572 0 0.0327274
446 15 0.001 -0.0352879 6.60085e-05 -0.0503869 -16.8212 -4.44906 3.70982 0 0.032152
447 15 0.001 -0.0335416 -0.000536153 -0.0484557 19.1773 3.34625 -20.0291 0 0.00662883
448 15 0.001 -0.0339272 4.20733e-05 -0.0499738 -36.4213 3.10845 46.822 0 0.000968546
449 15 0.001 -0.0348016 4.45761e-05 -0.0501134 28.201 6.13381 -41.3067 0 0.0010578
450 15 0.001 -0.0349935 9.50919e-05 -0.0518032 -13.0692 5.37769 6.02232 0 0.00300032
451 15 0.001 -0.0338878 0.000545524 -0.0502339 11.4658 -26.1295 10.4977 0 0.0220066
223 14 0.001 -0.0290616 0.000404626 -0.0474881 -13.7471 -3.29235 -19.8981 0 0.024583
452 15 0.001 -0.0304496 -0.000588807 -0.0481748 -10.0597 7.90025 -19.4923 0 0.0281953
3 3 0.001 -0.0286042 -0.0016631 -0.0502942 -16.0314 35.8829 18.5449 0 0.0285135
683 18 0.001 -0.0308258 0.000204589 -0.0507963 23.8726 -8.70404 11.0706 0 0.0184264
684 18 0.001 -0.028069 -4.94045e-05 -0.0489751 -12.0905 -2.08944 -25.4507 0 0.0257799
685 18 0.001 -0.0276377 0.000179739 -0.0526777 2.46715 -12.4426 46.2092 0 0.0365296
686 18 0.001 -0.0247472 -0.0001174 -0.0495344 14.1258 9.87306 -35.4689 0 0.0259897
687 18 0.001 -0.0228683 -0.000183748 -0.047917 -21.0854 -17.3571 -9.03503 0 0.0137434
688 18 0.001 -0.0233923 4.69988e-05 -0.0510097 4.86955 -18.7841 20.5746 0 0.0113133
689 18 0.001 -0.0231758 -0.000298207 -0.0490612 -0.00330319 7.35383 -9.35872 0 0.00576037
690 18 0.001 -0.0229438 -0.000535759 -0.0513877 1.39142 6.09763 21.82 0 0.00940935
691 18 0.001 -0.0234559 -0.000734618 -0.0487716 19.5424 29.9224 -12.9494 0 0.0357931
692 18 0.001 -0.0193189 0.00185659 -0.0489466 -22.995 -29.198 -9.02413 0 0.0387443
693 18 0.001 -0.0186594 0.000333326 -0.0515271 -19.2406 -4.92363 10.0357 0 0.01461
694 18 0.001 -0.0198883 -0.000379928 -0.0492119 5.83975 13.8135 -19.2156 0 0.0120108
695 18 0.001 -0.019669 0.000281032 -0.0518464 36.296 9.56397 18 0 0.0292968
696 18 0.001 -0.015581 -5.62257e-05 -0.0502233 -21.5455 -3.92696 12.1106 0 0.0297056
697 18 0.001 -0.0134457 -0.000487483 -0.0484908 13.2035 2.57698 -25.0916 0 0.00739105
698 18 0.001 -0.0138778 6.39936e-05 -0.0500045 -21.5785 5.22559 30.2205 0 0.00094861
699 18 0.001 -0.0148463 8.40533e-05 -0.0500654 20.9383 3.72763 -26.1644 0 0.00154186
700 18 0.001 -0.0149675 0.000160981 -0.0519188 -8.42812 0.04068 10.2241 0 0.00403031
701 18 0.001 -0.0138976 0.000410283 -0.0501305 12.2594 -15.9625 4.28495 0 0.0224208
702 18 0.001 -0.0103392 -0.000557132 -0.0482141 -12.9933 3.31454 -15.4988 0 0.0264775
5 5 0.001 -0.00852288 -0.00159972 -0.0500692 -15.969 36.9436 12.4853 0 0.0248815
473 17 0.001 -0.00909794 0.000391008 -0.0476125 -13.8158 -3.23978 -15.9485 0 0.0211856
933 21 0.001 -0.0108684 0.000207871 -0.0507875 24.4514 -7.84375 11.6862 0 0.0183914
934 21 0.001 -0.00822842 8.0058e-06 -0.0489543 -12.5264 -2.76478 -24.1905 0 0.0237808
935 21 0.001 -0.00771747 0.00021096 -0.0525388 18.6893 -11.3808 31.445 0 0.0374486
936 21 0.001 -0.00431791 -0.000162047 -0.0497132 -22.9768 9.34916 -0.763456 0 0.0268497
937 21 0.001 -0.00294767 -0.000183476 -0.0479172 -1.06303 -1.40245 -27.8827 0 0.0122301
938 21 0.001 -0.00349472 0.000244231 -0.0509486 -17.3213 -8.63324 25.4686 0 0.0108485
939 21 0.001 -0.00332978 -6.40403e-06 -0.0490233 -1.77684 -2.34879 -15.3186 0 0.00403926
940 21 0.001 -0.0035781 0.000174717 -0.0510242 13.7232 4.33955 23.2739 0 0.01147
941 21 0.001 -0.00432834 -0.000102833 -0.04798 34.064 1.09522 -22.3676 0 0.03791
942 21 0.001 7.46068e-05 -0.000243564 -0.0498509 -11.8556 4.70658 -10.2813 0 0.047631
943 21 0.001 0.00310405 -6.23322e-05 -0.0525812 -29.1462 -1.31781 48.1558 0 0.0549081
944 21 0.001 0.000912207 6.71836e-06 -0.0478185 1.11771 0.0297673 -46.8594 0 0.0460111
945 21 0.001 -0.000917041 7.61893e-05 -0.050494 44.5582 -2.2195 -1.34429 0 0.0568119
946 21 0.001 0.00437972 -3.43533e-05 -0.0529593 -29.1975 1.42112 60.2843 0 0.109235
947 21 0.001 0.005053 9.98702e-05 -0.0463851 -8.05084 -2.39214 -91.033 0 0.131861
948 21 0.001 0.00387031 -4.31345e-05 -0.0531886 23.2678 1.34086 90.9867 0 0.142812
949 21 0.001 0.00591728 3.92963e-06 -0.0464076 -8.11888 -0.133299 -84.6765 0 0.130989
950 21 0.001 0.00758394 1.91841e-05 -0.0525633 -20.1307 -1.59336 58.9636 0 0.0698218
951 21 0.001 0.00599703 -3.01672e-05 -0.0494702 22.8166 3.51963 -15.9954 0 0.0199441
7 7 0.001 0.01 0 -0.05 5.19196 7.42166 26.5333 0 0.0136403
723 20 0.001 0.0109935 2.55138e-05 -0.0476577 -18.3417 11.2575 -14.5747 0 0.0165997
952 21 0.001 0.00893145 9.73676e-05 -0.0493266 -12.4745 -6.56769 -1.37761 0 0.00778218
1183 24 0.001 0.0103604 1.6352e-05 -0.0469548 15.2202 -0.215811 -39.0441 0 0.035438
1184 24 0.001 0.0132789 -4.33392e-06 -0.0505938 -22.5145 0.0919187 12.0951 0 0.031052
1185 24 0.001 0.0121672 -4.64683e-06 -0.0527663 9.91567 0.103108 52.3572 0 0.0602503
1186 24 0.001 0.0128749 2.24549e-06 -0.0464984 19.6257 -0.169144 -65.1682 0 0.0934653
1187 24 0.001 0.0166401 -3.53043e-06 -0.0502781 -10.8112 0.423026 18.0744 0 0.0412199
1188 24 0.001 0.0176269 1.3067e-05 -0.0524203 -22.6062 -0.307361 38.2572 0 0.0394675
1189 24 0.001 0.0156447 -1.94234e-05 -0.0475787 23.4041 0.386857 -59.9276 0 0.0648181
1190 24 0.001 0.0170348 2.41951e-05 -0.0521937 18.0727 -0.567878 45.7628 0 0.0667449
1191 24 0.001 0.0201358 -5.94871e-06 -0.0478402 -9.44626 0.742492 -47.2947 0 0.0642083
1192 24 0.001 0.0201986 -1.83145e-05 -0.0524885 -8.55525 0.281093 60.7959 0 0.0603793
1193 24 0.001 0.0203594 2.327e-05 -0.0473744 -2.88231 -1.16096 -67.0707 0 0.0752723
1194 24 0.001 0.0210479 -2.72209e-05 -0.0528952 4.00716 0.675829 74.5086 0 0.093598
1195 24 0.001 0.0214216 2.92226e-05 -0.0467881 3.05683 -0.699684 -78.0608 0 0.104402
1196 24 0.001 0.0221956 -2.60095e-05 -0.0528657 10.9619 0.587413 64.3802 0 0.0974306
1197 24 0.001 0.0251239 1.46373e-05 -0.047903 -31.1104 -2.34919 -60.1616 0 0.0796921
1198 24 0.001 0.0236151 -1.26385e-05 -0.0528403 22.3207 0.675868 73.7666 0 0.0961537
1199 24 0.001 0.0255232 1.64782e-05 -0.0465561 -2.43516 1.4176 -72.6705 0 0.100943
1200 24 0.001 0.0261832 -5.72302e-06 -0.0519595 16.7101 -10.184 3.65164 0 0.0406633
1201 24 0.001 0.027504 -2.90276e-05 -0.0507432 -38.6116 16.681 52.372 0 0.00938153
9 9 0.001 0.03 0 -0.05 1.04775 -3.98381 26.0597 0 0.0113196
973 23 0.001 0.0309935 2.55138e-05 -0.0476577 -18.3417 11.2575 -14.5747 0 0.0165997
1202 24 0.001 0.0294234 5.88516e-05 -0.0484435 9.3924 -7.46895 -26.1876 0 0.00898129
1433 27 0.001 0.0301419 -0.00202519 -0.0482945 13.4727 19.3993 -20.3556 0 0.0204708
1434 27 0.001 0.0328542 -0.000125336 -0.0500071 -15.8619 5.70299 1.12687 0 0.0249068
1435 27 0.001 0.0315907 0.00266106 -0.0510269 11.9892 -45.926 4.71797 0 0.0396865
1436 27 0.001 0.0329667 -0.00197873 -0.0514581 12.9386 34.6729 7.32123 0 0.0463114
1437 27 0.001 0.0358302 -0.000910217 -0.0490716 -1.75332 0.926674 -5.99627 0 0.018727
1438 27 0.001 0.0361742 0.00054171 -0.0477189 2.61325 -2.91318 -18.2994 0 0.0212046
1439 27 0.001 0.0371348 -7.38244e-05 -0.0516433 -7.89987 1.64706 23.2829 0 0.0305749
1440 27 0.001 0.0403245 0.000673627 -0.0507689 -27.4505 -23.0685 25.7278 0 0.043604
1441 27 0.001 0.037226 -0.000564735 -0.0470291 34.5929 12.5533 -43.4952 0 0.0541682
1442 27 0.001 0.0400106 2.41236e-05 -0.0502809 -10.653 6.22606 6.57606 0 0.0304216
1443 27 0.001 0.0423692 0.000437194 -0.0521454 -20.599 -3.82964 21.1775 0 0.0149506
1444 27 0.001 0.0418332 -0.00013922 -0.0494541 -20.611 6.18058 -12.3473 0 0.0116588
1445 27 0.001 0.0406229 0.0004111 -0.0516635 20.9124 -6.08878 19.6374 0 0.0150938
1446 27 0.001 0.0416074 -0.000256357 -0.0486596 41.6355 2.83113 -25.0142 0 0.0511231
1447 27 0.001 0.0471063 -0.00015173 -0.0493462 -44.285 -2.55404 2.56311 0 0.0417315
1448 27 0.001 0.0465312 0.000192933 -0.0507349 -12.9925 5.63392 -20.7924 0 0.00190252
1449 27 0.001 0.0450187 1.77411e-05 -0.0498193 4.95287 -1.85405 18.3545 0 0.00269678
1450 27 0.001 0.0447673 0.000215172 -0.0516175 28.2223 -0.740721 6.83305 0 0.00589858
1451 27 0.001 0.0471449 0.000228172 -0.0509089 -1.38909 -4.39457 9.63029 0 0.0126745
1452 27 0.001 0.0489289 -1.51691e-05 -0.0484897 -6.40146 1.50618 27.3892 0 0.0584804
11 11 0.001 0.0494548 -0.000321557 -0.0424935 -0.780328 6.95165 -88.2996 0 0.126605
1223 26 0.001 0.0500402 0.000168283 -0.0496529 -14.2335 17.877 32.9478 0 0.0848292
14 13 0.001 -0.0516233 0.00229032 -0.0483774 8.85955 -4.56679 -21.8329 0 0.0115243
224 14 0.001 -0.0316888 0.0023285 -0.0485638 26.1464 0.298782 -2.47064 0 0.0153043
474 17 0.001 -0.0117335 0.00229533 -0.0485017 26.5088 1.09707 -3.64634 0 0.0151949
724 20 0.001 0.00852447 0.00232379 -0.0482019 19.8949 -11.1735 -8.37217 0 0.0153838
974 23 0.001 0.0285245 0.00232379 -0.0482019 19.8949 -11.1735 -8.37217 0 0.0153838
1224 26 0.001 0.0483554 0.00236557 -0.0483691 11.3681 -2.26047 -10.1922 0 0.0120379
17 13 0.001 -0.0516476 0.00416878 -0.0487823 -10.1668 -24.9965 10.7575 0 0.0297823
15 13 0.001 -0.0504659 0.0015834 -0.0501312 2.84197 0.758944 31.6733 0 0.0106663
16 13 0.001 -0.0489777 0.00205503 -0.0476372 -13.2699 9.32616 -21.1293 0 0.0211259
226 14 0.001 -0.0290562 0.00220478 -0.0475754 -11.8006 8.45022 -23.6927 0 0.0207293
227 14 0.001 -0.0317619 0.0040257 -0.0487477 -9.6403 -23.3344 13.1911 0 0.0275617
225 14 0.001 -0.0303322 0.0016826 -0.0502993 -11.9974 -5.02682 25.4382 0 0.0119444
477 17 0.001 -0.0117569 0.00402517 -0.0487482 -9.80856 -23.5944 13.3174 0 0.0275808
475 17 0.001 -0.0102849 0.00169839 -0.050292 -12.605 -5.33419 25.2942 0 0.0121477
476 17 0.001 -0.0090497 0.00220554 -0.04758 -11.2965 8.50972 -23.5352 0 0.0204757
727 20 0.001 0.00882786 0.00440548 -0.0466937 -16.9337 -16.2179 -28.6158 0 0.0456455
725 20 0.001 0.00902977 0.00132732 -0.0502507 0.0513293 0.114996 24.4767 0 0.010296
726 20 0.001 0.010624 0.00150321 -0.0479394 -17.7414 11.0113 0.812425 0 0.0205805
976 23 0.001 0.030624 0.00150321 -0.0479394 -17.7414 11.0113 0.812425 0 0.0205805
977 23 0.001 0.0288279 0.00440548 -0.0466937 -16.9337 -16.2179 -28.6158 0 0.0456455
975 23 0.001 0.0290298 0.00132732 -0.0502507 0.0513294 0.114996 24.4767 0 0.010296
1227 26 0.001 0.0482269 0.00402468 -0.0487692 -9.71767 -22.2267 13.6491 0 0.0278121
1225 26 0.001 0.049506 0.00136928 -0.0501135 1.51946 -12.5047 41.4555 0 0.0118059
1226 26 0.001 0.0509184 0.00216456 -0.0475613 -13.1194 6.90534 -23.3531 0 0.0207052
19 13 0.001 -0.0565544 0.00100027 -0.0450422 23.321 14.7779 -40.8709 0 0.0239083
20 13 0.001 -0.056186 -0.000239715 -0.0449716 -2.86609 3.20179 11.5069 0 0.00403847
18 13 0.001 -0.0554507 0.00380905 -0.0483042 18.2295 -5.01467 20.2252 0 0.0399871
230 14 0.001 -0.0361952 -0.000245134 -0.0449496 -1.45596 4.60783 10.9738 0 0.00411652
228 14 0.001 -0.0354982 0.00379456 -0.0483413 18.2082 -5.14235 19.2311 0 0.0393062
229 14 0.001 -0.0365429 0.00102517 -0.0450011 19.9649 13.8101 -40.5142 0 0.0241994
480 17 0.001 -0.0161948 -0.000244682 -0.0449512 -1.50733 4.53285 10.9388 0 0.00411419
478 17 0.001 -0.0154957 0.00379565 -0.0483404 18.1732 -5.1095 19.1193 0 0.0393293
479 17 0.001 -0.0165447 0.00102518 -0.0450029 20.1315 13.8919 -40.4417 0 0.024195
729 20 0.001 0.00350263 0.000542519 -0.0455339 51.3579 44.4767 -46.6467 0 0.040612
730 20 0.001 0.00398536 4.16591e-05 -0.0450716 -3.25337 -16.4965 24.5394 0 0.00280907
728 20 0.001 0.00457103 0.00443112 -0.0492935 17.1683 -17.3703 43.8593 0 0.072296
980 23 0.001 0.0239854 4.16591e-05 -0.0450716 -3.25337 -16.4965 24.5394 0 0.00280907
978 23 0.001 0.024571 0.00443112 -0.0492935 17.1683 -17.3703 43.8593 0 0.072296
979 23 0.001 0.0235026 0.000542519 -0.0455339 51.3579 44.4767 -46.6467 0 0.040612
1230 26 0.001 0.043807 -0.000254617 -0.0449328 -0.798255 5.67962 11.419 0 0.00415974
1228 26 0.001 0.0444863 0.00379822 -0.0483705 18.7807 -5.66543 19.969 0 0.0396095
1229 26 0.001 0.0434853 0.00103336 -0.0449872 18.1204 12.8029 -41.414 0 0.0244831
23 13 0.001 -0.0544277 -0.000927227 -0.043518 -6.92459 3.11428 -26.0976 0 0.0276841
233 14 0.001 -0.034428 -0.000927702 -0.0435185 -7.40351 3.38168 -25.808 0 0.0278017
483 17 0.001 -0.014428 -0.000927657 -0.0435184 -7.37803 3.36685 -25.8252 0 0.0277954
733 20 0.001 0.00556866 -0.000906339 -0.0434955 -5.39773 0.116075 -26.64 0 0.024495
983 23 0.001 0.0255687 -0.000906339 -0.0434955 -5.39773 0.116075 -26.64 0 0.024495
1233 26 0.001 0.0455727 -0.000928424 -0.043519 -7.67437 3.53906 -25.6228 0 0.0278761
21 13 0.001 -0.0555794 0.00167474 -0.04623 34.2415 -95.6366 -51.9097 0 0.00434142
22 13 0.001 -0.0551659 0.00187369 -0.046137 -45.5928 72.5455 69.9284 0 0.0174191
231 14 0.001 -0.0355663 0.00166667 -0.0462177 40.4439 -100.208 -47.7418 0 0.00440503
232 14 0.001 -0.0351666 0.00188287 -0.0461422 -49.9576 76.5873 65.6654 0 0.0175521
481 17 0.001 -0.0155669 0.00166735 -0.0462186 40.2114 -100.054 -48.0404 0 0.00440269
482 17 0.001 -0.0151669 0.00188242 -0.0461418 -49.8202 76.4613 65.9665 0 0.0175459
731 20 0.001 0.00441316 0.00167655 -0.0464175 30.6737 6.59225 -69.3969 0 0.00311726
732 20 0.001 0.00478004 0.00156104 -0.0460169 -67.4379 -29.1193 78.1664 0 0.0140769
981 23 0.001 0.0244132 0.00167655 -0.0464175 30.6737 6.59225 -69.3969 0 0.00311726
982 23 0.001 0.02478 0.00156104 -0.0460169 -67.4379 -29.1193 78.1664 0 0.0140769
1231 26 0.001 0.04444 0.00165872 -0.0462062 42.3842 -101.554 -44.5341 0 0.00442661
1232 26 0.001 0.0448393 0.00188816 -0.0461476 -50.8995 77.574 62.4132 0 0.0176218
25 13 0.001 -0.0548176 -0.000953104 -0.0443067 9.35983 -17.7108 8.36512 0 0.0187138
26 13 0.001 -0.0544634 -0.000848961 -0.0408042 -6.25492 -10.2361 -38.3625 0 0.0292519
235 14 0.001 -0.0348175 -0.000953197 -0.0443068 9.34565 -17.7184 8.36765 0 0.0187174
236 14 0.001 -0.0344633 -0.000848842 -0.0408043 -6.25664 -10.2375 -38.3641 0 0.0292531
485 17 0.001 -0.0148175 -0.00095319 -0.0443068 9.34539 -17.7181 8.36787 0 0.0187172
486 17 0.001 -0.0144633 -0.000848848 -0.0408042 -6.25663 -10.2375 -38.364 0 0.029253
735 20 0.001 0.00517475 -0.000948687 -0.0443055 9.49493 -17.4902 8.47596 0 0.0185619
736 20 0.001 0.0055326 -0.00085414 -0.0408003 -6.22871 -10.1822 -38.2841 0 0.0291985
985 23 0.001 0.0251747 -0.000948687 -0.0443055 9.49493 -17.4902 8.47596 0 0.0185619
986 23 0.001 0.0255326 -0.00085414 -0.0408003 -6.22871 -10.1822 -38.2841 0 0.0291985
1235 26 0.001 0.0451829 -0.00095331 -0.0443068 9.35999 -17.7193 8.36014 0 0.0187194
1236 26 0.001 0.0455368 -0.000848759 -0.0408043 -6.25528 -10.2385 -38.3662 0 0.0292541
24 13 0.001 -0.0549934 -0.00309306 -0.0459607 -7.72171 23.107 24.0183 0 0.016705
234 14 0.001 -0.0349941 -0.00309379 -0.0459608 -7.65221 23.1132 24.0072 0 0.016709
484 17 0.001 -0.014994 -0.00309375 -0.0459608 -7.65331 23.1121 24.0078 0 0.0167088
734 20 0.001 0.00504066 -0.00306122 -0.0459554 -4.2517 22.7341 23.1181 0 0.0165193
984 23 0.001 0.0250407 -0.00306122 -0.0459554 -4.2517 22.7341 23.1181 0 0.0165193
1234 26 0.001 0.0450048 -0.00309431 -0.0459607 -7.65865 23.1302 24.001 0 0.0167089
27 13 0.001 -0.0553858 -0.00174787 -0.0444499 30.7383 9.79633 26.26 0 0.0412052
28 13 0.001 -0.0513015 -0.0031985 -0.043173 -29.1101 17.4971 21.3501 0 0.0538174
29 13 0.001 -0.0527927 -0.00256033 -0.0386369 12.6615 8.35667 -37.8469 0 0.0351161
30 13 0.001 -0.0529828 -0.00140536 -0.0410973 21.6141 -14.3029 -10.2543 0 0.0440658
237 14 0.001 -0.0353857 -0.00174775 -0.0444501 30.7387 9.7933 26.2641 0 0.0412069
238 14 0.001 -0.0313017 -0.00319854 -0.0431728 -29.1073 17.4977 21.3465 0 0.0538146
239 14 0.001 -0.0327927 -0.00256031 -0.0386368 12.6599 8.35623 -37.8462 0 0.0351136
240 14 0.001 -0.0329828 -0.00140533 -0.0410973 21.6143 -14.3028 -10.2541 0 0.0440665
487 17 0.001 -0.0153857 -0.00174776 -0.0444501 30.7387 9.79359 26.2639 0 0.0412068
488 17 0.001 -0.0113017 -0.00319854 -0.0431728 -29.1075 17.4977 21.3467 0 0.0538148
489 17 0.001 -0.0127927 -0.00256031 -0.0386368 12.66 8.35625 -37.8462 0 0.0351138
490 17 0.001 -0.0129828 -0.00140533 -0.0410973 21.6143 -14.3028 -10.2541 0 0.0440665
737 20 0.001 0.0046129 -0.00175275 -0.0444392 30.7299 9.92467 26.08 0 0.0411336
738 20 0.001 0.00870561 -0.00319675 -0.0431796 -29.2282 17.47 21.5037 0 0.0539368
739 20 0.001 0.00720481 -0.00256103 -0.0386386 12.7284 8.37476 -37.8798 0 0.0352232
740 20 0.001 0.00701773 -0.00140672 -0.0410992 21.6059 -14.3085 -10.2621 0 0.0440351
987 23 0.001 0.0246129 -0.00175275 -0.0444392 30.7299 9.92467 26.08 0 0.0411336
988 23 0.001 0.0287056 -0.00319675 -0.0431796 -29.2282 17.47 21.5037 0 0.0539368
989 23 0.001 0.0272048 -0.00256103 -0.0386386 12.7284 8.37476 -37.8798 0 0.0352232
990 23 0.001 0.0270177 -0.00140672 -0.0410992 21.6059 -14.3085 -10.2621 0 0.0440351
1237 26 0.001 0.0446143 -0.00174766 -0.0444503 30.7395 9.78873 26.2678 0 0.0412083
1238 26 0.001 0.0486982 -0.00319857 -0.0431727 -29.1053 17.4984 21.3437 0 0.0538128
1239 26 0.001 0.0472074 -0.0025603 -0.0386368 12.6588 8.35592 -37.8456 0 0.0351118
1240 26 0.001 0.0470172 -0.0014053 -0.0410973 21.6145 -14.3027 -10.254 0 0.044067
31 13 0.001 -0.0487672 -0.00203313 -0.0443625 -30.1279 1.05227 48.2635 0 0.0637316
241 14 0.001 -0.0287672 -0.00203313 -0.0443625 -30.1284 1.05214 48.2644 0 0.0637336
491 17 0.001 -0.0087672 -0.00203313 -0.0443625 -30.1283 1.05215 48.2644 0 0.0637335
741 20 0.001 0.0112328 -0.00203303 -0.0443626 -30.108 1.05815 48.2227 0 0.063648
991 23 0.001 0.0312328 -0.00203303 -0.0443626 -30.108 1.05815 48.2227 0 0.063648
1241 26 0.001 0.0512328 -0.00203313 -0.0443625 -30.1287 1.05204 48.2651 0 0.063735
32 13 0.001 -0.0497989 -0.00257249 -0.0399259 -8.64178 14.2818 -22.6008 0 0.0389014
33 13 0.001 -0.0518797 7.05153e-05 -0.0387488 30.4261 4.56862 -16.9677 0 0.042801
242 14 0.001 -0.029799 -0.00257253 -0.0399258 -8.64129 14.2823 -22.6025 0 0.0389023
243 14 0.001 -0.0318797 7.05317e-05 -0.0387489 30.4262 4.56774 -16.9656 0 0.0427991
492 17 0.001 -0.00979895 -0.00257253 -0.0399259 -8.64133 14.2822 -22.6024 0 0.0389023
493 17 0.001 -0.0118797 7.05311e-05 -0.0387489 30.4262 4.56776 -16.9658 0 0.0427992
742 20 0.001 0.0102026 -0.00257062 -0.0399294 -8.66365 14.2624 -22.5292 0 0.0388634
743 20 0.001 0.00811978 6.98017e-05 -0.0387451 30.4252 4.60663 -17.0561 0 0.0428813
992 23 0.001 0.0302026 -0.00257062 -0.0399294 -8.66363 14.2624 -22.5292 0 0.0388634
993 23 0.001 0.0281198 6.98011e-05 -0.0387451 30.4252 4.60668 -17.0561 0 0.0428813
1242 26 0.001 0.050201 -0.00257256 -0.0399258 -8.64091 14.2826 -22.6037 0 0.038903
1243 26 0.001 0.0481204 7.05435e-05 -0.0387489 30.4262 4.56711 -16.9641 0 0.0427978
34 13 0.001 -0.0495538 0.00322894 -0.0416034 -22.093 -37.9238 25.2957 0 0.0437192
244 14 0.001 -0.0295538 0.00322888 -0.0416034 -22.094 -37.9216 25.2941 0 0.0437158
494 17 0.001 -0.00955378 0.00322888 -0.0416034 -22.094 -37.9217 25.2942 0 0.0437159
744 20 0.001 0.0104439 0.00323123 -0.0416048 -22.0496 -38.013 25.3651 0 0.0438631
994 23 0.001 0.0304439 0.00323123 -0.0416048 -22.0495 -38.0131 25.3651 0 0.0438633
1244 26 0.001 0.0504463 0.00322884 -0.0416034 -22.0947 -37.9202 25.2929 0 0.0437134
36 13 0.001 -0.0512507 0.00155906 -0.0360442 5.84889 -4.95863 -28.2568 0 0.0245473
35 13 0.001 -0.0502029 7.56688e-05 -0.0398786 -12.5347 27.6699 4.87851 0 0.035158
245 14 0.001 -0.030203 7.5807e-05 -0.0398787 -12.5339 27.6677 4.87953 0 0.0351558
246 14 0.001 -0.0312507 0.001559 -0.0360441 5.84732 -4.9565 -28.2572 0 0.0245474
496 17 0.001 -0.0112507 0.001559 -0.0360441 5.84714 -4.9563 -28.2572 0 0.0245475
495 17 0.001 -0.010203 7.58057e-05 -0.0398787 -12.534 27.6679 4.87947 0 0.0351559
746 20 0.001 0.00874812 0.00156162 -0.0360452 5.90949 -5.04205 -28.239 0 0.0245468
745 20 0.001 0.00980053 6.9888e-05 -0.0398764 -12.5732 27.7643 4.83337 0 0.0352531
995 23 0.001 0.0298005 6.98802e-05 -0.0398764 -12.5732 27.7644 4.83331 0 0.0352531
996 23 0.001 0.0287481 0.00156162 -0.0360452 5.90974 -5.04234 -28.2389 0 0.0245467
1246 26 0.001 0.0487493 0.00155896 -0.0360441 5.84647 -4.95526 -28.2575 0 0.0245473
1245 26 0.001 0.0497969 7.59016e-05 -0.0398787 -12.5332 27.6661 4.88027 0 0.0351542
38 13 0.001 -0.0538455 0.00413105 -0.0398466 17.6754 -14.5769 24.1957 0 0.0371052
39 13 0.001 -0.0526085 0.00292882 -0.035589 0.103052 -12.5802 -6.74404 0 0.0268552
37 13 0.001 -0.0514078 0.00258163 -0.0381092 -19.531 0.410411 14.9173 0 0.0148187
249 14 0.001 -0.0326085 0.0029288 -0.035589 0.102505 -12.5799 -6.74532 0 0.0268555
247 14 0.001 -0.0314077 0.00258163 -0.0381092 -19.5292 0.40884 14.917 0 0.0148191
248 14 0.001 -0.0338455 0.00413105 -0.0398466 17.6751 -14.5768 24.196 0 0.0371054
499 17 0.001 -0.0126085 0.00292878 -0.0355889 0.100243 -12.5786 -6.74538 0 0.026856
498 17 0.001 -0.0138456 0.00413105 -0.0398466 17.6754 -14.5771 24.1962 0 0.037106
497 17 0.001 -0.0114077 0.00258163 -0.0381092 -19.5286 0.408533 14.917 0 0.0148192
748 20 0.001 0.00615449 0.00413104 -0.0398471 17.6857 -14.5884 24.1914 0 0.0371081
749 20 0.001 0.00739149 0.00292914 -0.0355892 0.10679 -12.5654 -6.74891 0 0.0268574
747 20 0.001 0.00859157 0.00258158 -0.0381084 -19.5926 0.468513 14.9277 0 0.0148055
999 23 0.001 0.0273915 0.00292916 -0.0355893 0.108987 -12.5666 -6.7493 0 0.026857
997 23 0.001 0.0285916 0.00258158 -0.0381084 -19.5931 0.468849 14.9278 0 0.0148054
998 23 0.001 0.0261545 0.00413104 -0.0398471 17.6855 -14.5882 24.1912 0 0.0371077
1249 26 0.001 0.0473915 0.00292881 -0.035589 0.102811 -12.5808 -6.74391 0 0.0268552
1248 26 0.001 0.0461545 0.00413105 -0.0398466 17.675 -14.5764 24.1959 0 0.0371051
1247 26 0.001 0.0485923 0.00258163 -0.0381092 -19.5285 0.408059 14.9169 0 0.0148192
42 13 0.001 -0.0560736 0.00134971 -0.0359831 28.5854 28.5848 20.4228 0 0.00428603
252 14 0.001 -0.0360735 0.00134974 -0.035983 28.5998 28.6115 20.42 0 0.00428466
502 17 0.001 -0.0160734 0.00134989 -0.0359829 28.6095 28.6132 20.4072 0 0.00428475
752 20 0.001 0.00392638 0.00134967 -0.0359832 28.5886 28.6016 20.4384 0 0.00428508
1002 23 0.001 0.0239264 0.00134952 -0.0359833 28.5833 28.6074 20.4505 0 0.00428459
1252 26 0.001 0.0439264 0.00134972 -0.0359831 28.5862 28.5853 20.4216 0 0.00428602
40 13 0.001 -0.053786 0.0019781 -0.0363793 -6.73884 29.7973 -20.0319 0 0.00648415
41 13 0.001 -0.056096 0.00238663 -0.0375781 -8.71575 -45.5705 -18.6283 0 0.00712276
251 14 0.001 -0.0360961 0.00238663 -0.0375782 -8.72105 -45.5748 -18.6272 0 0.00712345
250 14 0.001 -0.033786 0.00197811 -0.0363793 -6.73932 29.7948 -20.031 0 0.00648463
501 17 0.001 -0.0160962 0.00238658 -0.0375783 -8.72545 -45.5723 -18.6141 0 0.00712445
500 17 0.001 -0.013786 0.00197811 -0.0363793 -6.73759 29.7907 -20.0349 0 0.00648525
750 20 0.001 0.006214 0.00197784 -0.0363792 -6.74513 29.7764 -20.0227 0 0.00648463
751 20 0.001 0.00390399 0.00238666 -0.037578 -8.72061 -45.5718 -18.6448 0 0.00712207
1001 23 0.001 0.023904 0.00238671 -0.0375779 -8.71766 -45.5756 -18.658 0 0.00712125
1000 23 0.001 0.026214 0.00197783 -0.0363793 -6.74712 29.7799 -20.0184 0 0.00648414
1251 26 0.001 0.043904 0.00238662 -0.0375782 -8.71591 -45.5705 -18.6272 0 0.00712284
1250 26 0.001 0.046214 0.00197811 -0.0363793 -6.73856 29.7979 -20.0324 0 0.00648417
44 13 0.001 -0.0562115 -0.000469704 -0.0352863 10.1144 15.3648 -41.8212 0 0.00237737
45 13 0.001 -0.0558398 -0.00154603 -0.0347436 -12.6752 31.8286 30.7024 0 0.000792721
254 14 0.001 -0.0362114 -0.000469554 -0.0352858 10.0474 15.3541 -41.7518 0 0.00237485
255 14 0.001 -0.03584 -0.00154633 -0.0347435 -12.5918 32.0301 30.6437 0 0.000790521
504 17 0.001 -0.0162114 -0.000469683 -0.035286 10.0438 15.3335 -41.7775 0 0.00237578
505 17 0.001 -0.01584 -0.0015462 -0.0347433 -12.5897 32.0543 30.6745 0 0.000790561
754 20 0.001 0.00378864 -0.000469599 -0.0352859 10.0429 15.353 -41.7721 0 0.00237591
755 20 0.001 0.00416001 -0.00154627 -0.0347434 -12.5893 32.0447 30.66 0 0.000790565
1004 23 0.001 0.0237887 -0.000469419 -0.0352855 10.0369 15.3751 -41.7263 0 0.00237421
1005 23 0.001 0.02416 -0.00154648 -0.0347435 -12.5787 32.046 30.6111 0 0.000790134
1254 26 0.001 0.0437885 -0.000469706 -0.0352863 10.1144 15.3642 -41.8211 0 0.00237735
1255 26 0.001 0.0441602 -0.00154603 -0.0347436 -12.6751 31.8289 30.7027 0 0.000792719
43 13 0.001 -0.0551786 0.000845785 -0.0341272 -8.34206 -19.9896 13.3245 0 0.00480404
253 14 0.001 -0.0351787 0.000845761 -0.0341274 -8.34144 -19.9846 13.3106 0 0.00479976
503 17 0.001 -0.0151787 0.000845714 -0.0341274 -8.34653 -19.9902 13.3113 0 0.00480044
753 20 0.001 0.00482132 0.000845827 -0.0341273 -8.32724 -19.9867 13.3096 0 0.0048021
1003 23 0.001 0.0248213 0.000845867 -0.0341274 -8.32382 -19.9791 13.3062 0 0.00480015
1253 26 0.001 0.0448214 0.000845781 -0.0341272 -8.34278 -19.9897 13.3246 0 0.00480397
46 13 0.001 -0.0552129 -0.0015952 -0.033338 -4.8402 -24.5256 -27.8525 0 0.000768411
47 13 0.001 -0.0545878 -0.00263186 -0.0336018 -35.5135 42.6233 83.1313 0 0.000153676
48 13 0.001 -0.0538343 -0.00286804 -0.0328953 75.1999 -65.6188 -132.265 0 1.82329e-05
49 13 0.001 -0.0529276 -0.00298994 -0.0324753 -39.6536 32.6592 87.3459 0 6.01712e-06
256 14 0.001 -0.0352122 -0.00159535 -0.0333394 -5.21837 -24.9074 -28.1215 0 0.000763697
257 14 0.001 -0.0345889 -0.00263134 -0.0335997 -34.6535 42.5087 83.3638 0 0.000150977
258 14 0.001 -0.0338331 -0.00286834 -0.0328977 74.2597 -64.8481 -130.198 0 1.78228e-05
259 14 0.001 -0.0329289 -0.00298997 -0.0324729 -37.7525 32.3605 82.8844 0 5.96855e-06
506 17 0.001 -0.0152122 -0.00159534 -0.0333393 -5.18802 -24.8937 -28.0923 0 0.000764027
507 17 0.001 -0.0145888 -0.00263141 -0.0335999 -34.7153 42.5095 83.3247 0 0.000151233
508 17 0.001 -0.0138331 -0.00286832 -0.0328975 74.318 -64.9041 -130.306 0 1.78529e-05
509 17 0.001 -0.0129288 -0.00298997 -0.032473 -37.8568 32.3971 83.133 0 5.97092e-06
756 20 0.001 0.00478779 -0.00159535 -0.0333393 -5.20643 -24.9033 -28.1063 0 0.00076386
757 20 0.001 0.00541114 -0.00263137 -0.0335998 -34.6778 42.508 83.3409 0 0.000151097
758 20 0.001 0.00616692 -0.00286833 -0.0328976 74.2757 -64.873 -130.22 0 1.78348e-05
759 20 0.001 0.00707114 -0.00298998 -0.0324729 -37.7664 32.3866 82.9283 0 5.96908e-06
1006 23 0.001 0.024788 -0.00159538 -0.0333398 -5.30212 -24.9789 -28.1907 0 0.000762663
1007 23 0.001 0.0254108 -0.00263121 -0.0335992 -34.4787 42.4898 83.4415 0 0.000150348
1008 23 0.001 0.0261672 -0.00286841 -0.0328981 74.0941 -64.6751 -129.859 0 1.77397e-05
1009 23 0.001 0.0270709 -0.00298997 -0.0324725 -37.4683 32.2512 82.182 0 5.9612e-06
1256 26 0.001 0.0447871 -0.0015952 -0.033338 -4.84004 -24.5257 -27.8523 0 0.000768411
1257 26 0.001 0.0454122 -0.00263186 -0.0336018 -35.5137 42.6232 83.131 0 0.000153677
1258 26 0.001 0.0461657 -0.00286804 -0.0328953 75.1999 -65.6189 -132.265 0 1.8233e-05
1259 26 0.001 0.0470724 -0.00298994 -0.0324753 -39.6537 32.6594 87.3461 0 6.01713e-06
50 13 0.001 -0.0520625 -0.00283852 -0.0319841 15.1182 -3.57316 -26.3023 0 5.88553e-06
51 13 0.001 -0.0512658 -0.0024353 -0.0315218 -5.8246 -3.42651 12.8611 0 5.83007e-06
52 13 0.001 -0.0506308 -0.00182307 -0.0310384 3.15051 3.50191 -8.83534 0 5.83202e-06
260 14 0.001 -0.0320613 -0.00283812 -0.0319866 12.557 -4.32948 -21.4228 0 5.86721e-06
261 14 0.001 -0.0312668 -0.00243597 -0.0315195 -3.85256 -2.062 8.28543 0 5.81894e-06
262 14 0.001 -0.0306302 -0.00182227 -0.0310404 1.77169 1.89385 -4.87255 0 5.82338e-06
510 17 0.001 -0.0120614 -0.00283814 -0.0319864 12.705 -4.28235 -21.7128 0 5.86792e-06
511 17 0.001 -0.0112667 -0.00243591 -0.0315196 -3.99763 -2.18546 8.64538 0 5.81964e-06
512 17 0.001 -0.0106302 -0.00182237 -0.0310402 1.91081 2.11 -5.35792 0 5.82384e-06
760 20 0.001 0.00793869 -0.00283812 -0.0319866 12.5685 -4.33395 -21.4416 0 5.86728e-06
761 20 0.001 0.00873321 -0.00243597 -0.0315195 -3.85604 -2.06606 8.29536 0 5.81893e-06
762 20 0.001 0.00936984 -0.00182227 -0.0310404 1.77701 1.90827 -4.90105 0 5.82336e-06
1010 23 0.001 0.0279389 -0.00283808 -0.0319869 12.2071 -4.40347 -20.7739 0 5.86515e-06
1011 23 0.001 0.0287331 -0.00243603 -0.0315192 -3.63354 -1.93007 7.79802 0 5.81827e-06
1012 23 0.001 0.0293699 -0.00182222 -0.0310406 1.65087 1.78201 -4.56919 0 5.82277e-06
1260 26 0.001 0.0479375 -0.00283852 -0.0319841 15.1183 -3.5732 -26.3024 0 5.88553e-06
1261 26 0.001 0.0487342 -0.0024353 -0.0315218 -5.82461 -3.42651 12.8611 0 5.83007e-06
1262 26 0.001 0.0493692 -0.00182307 -0.0310384 3.15051 3.50191 -8.83534 0 5.83202e-06
53 13 0.001 -0.0501986 -0.00104415 -0.0305719 -1.5168 -3.11446 6.55552 0 5.82232e-06
54 13 0.001 -0.050016 -0.000179032 -0.0300927 0.454819 2.26245 -4.29163 0 5.82362e-06
263 14 0.001 -0.0301989 -0.00104492 -0.0305703 -0.814769 -1.57444 3.33915 0 5.81846e-06
264 14 0.001 -0.0300159 -0.000178437 -0.0300938 0.243777 1.0359 -1.97454 0 5.82048e-06
513 17 0.001 -0.0101989 -0.00104477 -0.0305706 -0.909064 -1.91409 4.00379 0 5.81935e-06
514 17 0.001 -0.0100159 -0.000178656 -0.0300934 0.236018 1.50972 -2.86717 0 5.82077e-06
763 20 0.001 0.00980108 -0.00104491 -0.0305703 -0.820351 -1.61352 3.41217 0 5.81858e-06