ITEM: TIMESTEP
20
ITEM: NUMBER OF ATOMS
1472
ITEM: BOX BOUNDS ff ff ff
-6.0000000000000005e-02 6.0000000000000005e-02
-6.0000000000000001e-03 6.0000000000000001e-03
-5.5000000000000000e-02 5.5000000000000000e-02
ITEM: ATOMS id type radius x y z fx fy fz c_bendingE c_stretchingE
1 1 0.001 -0.0492917 0.00209114 -0.0521618 -5.94945 -15.7258 45.1725 0 0.0409705
13 13 0.001 -0.0508646 0.00182633 -0.0480017 4.74892 -16.4949 -24.6546 0 0.0258935
433 15 0.001 -0.0488993 0.00023226 -0.0487308 20.7879 0.741702 -25.4548 0 0.0312858
434 15 0.001 -0.0466677 -0.000320792 -0.0515756 6.78158 -1.17745 37.1486 0 0.0162463
435 15 0.001 -0.0477236 -4.30676e-05 -0.0499007 -19.7921 6.10364 -39.4594 0 0.00763089
436 15 0.001 -0.0452222 0.000180126 -0.0507627 -2.24269 11.4163 28.7843 0 0.0122372
437 15 0.001 -0.0425228 -3.33439e-05 -0.0499915 -2.80282 -21.9183 -17.3158 0 0.0151564
438 15 0.001 -0.0414917 -0.00226775 -0.0481899 -21.6305 37.5766 -22.3213 0 0.0408573
439 15 0.001 -0.0436791 0.000942129 -0.0513842 29.3286 -25.4904 50.3203 0 0.0680776
440 15 0.001 -0.0415051 -0.00112926 -0.0470994 -17.8689 31.1667 -49.8492 0 0.0633582
441 15 0.001 -0.0436325 0.00159449 -0.0503168 18.8233 -34.4319 5.15797 0 0.0352021
442 15 0.001 -0.0413024 -0.000159878 -0.0500179 -4.40856 20.131 6.30453 0 0.0102802
443 15 0.001 -0.0393574 0.000183198 -0.0491613 4.47192 -7.42539 -31.2339 0 0.0415157
444 15 0.001 -0.0401695 -0.000108202 -0.0545041 8.85055 11.0245 81.017 0 0.11588
445 15 0.001 -0.0387164 0.00128949 -0.0475597 -10.1761 -19.3659 -65.0798 0 0.0984694
446 15 0.001 -0.0358885 0.000378698 -0.0506249 4.63205 0.556497 40.9431 0 0.0249531
447 15 0.001 -0.0338708 -0.000432817 -0.0514419 -22.4442 4.87493 21.233 0 0.0544366
448 15 0.001 -0.0348341 -0.0006145 -0.0454657 10.1055 11.2286 -103.238 0 0.184628
449 15 0.001 -0.0339158 0.00111491 -0.0544713 -14.5327 -19.8033 88.3873 0 0.157211
450 15 0.001 -0.03513 5.07687e-05 -0.050352 16.8923 14.5094 -13.8872 0 0.0266371
451 15 0.001 -0.0342394 -0.000767575 -0.048456 14.5486 2.82241 -16.3955 0 0.0216042
223 14 0.001 -0.0304938 0.00180448 -0.0468555 9.65339 -8.16319 -15.4912 0 0.00742015
452 15 0.001 -0.0311197 0.000358534 -0.0507479 -14.6227 -1.86218 20.9859 0 0.0263779
3 3 0.001 -0.0316103 0.00253296 -0.0487603 18.6261 -29.2872 -11.109 0 0.0248131
683 18 0.001 -0.0296847 -0.000450444 -0.0484081 -5.17851 9.31079 -23.0688 0 0.0304317
684 18 0.001 -0.0294556 -0.000242039 -0.0523242 8.0955 1.75801 29.0231 0 0.0290122
685 18 0.001 -0.0268677 8.95255e-05 -0.0501047 -11.7973 -19.3235 -19.4745 0 0.020176
686 18 0.001 -0.0239922 -0.000696601 -0.0506648 -5.6693 45.976 30.2392 0 0.0100046
687 18 0.001 -0.0221205 -0.000437115 -0.0505695 7.10709 -13.6452 23.3146 0 0.0589824
688 18 0.001 -0.0204933 0.00206267 -0.0449415 -41.5408 -47.8784 -99.7852 0 0.243408
689 18 0.001 -0.0244685 -0.00274791 -0.0536267 40.5876 46.6188 97.5744 0 0.237658
690 18 0.001 -0.0232886 -0.00145672 -0.0477913 5.89356 13.5044 -44.4706 0 0.0691193
691 18 0.001 -0.0230326 0.00174357 -0.0501082 4.17777 -19.4249 2.44883 0 0.0223632
692 18 0.001 -0.0212063 9.27049e-05 -0.0507286 7.86853 2.95285 -3.52285 0 0.0117191
693 18 0.001 -0.0191081 8.75304e-06 -0.048807 -12.0139 0.0239853 -33.2672 0 0.0492831
694 18 0.001 -0.0203968 0.000388046 -0.0542574 10.709 4.57162 78.7906 0 0.106916
695 18 0.001 -0.0183581 0.00111059 -0.0479175 -6.42469 -26.8808 -34.5444 0 0.073381
696 18 0.001 -0.0160724 0.000210641 -0.049799 -12.2103 26.9853 -21.1457 0 0.015714
697 18 0.001 -0.014107 -0.000391632 -0.051761 -3.11521 -6.90292 57.2402 0 0.0563
698 18 0.001 -0.0142632 -0.000408137 -0.0457785 -1.10084 5.21555 -94.6309 0 0.148281
699 18 0.001 -0.0140106 0.00042661 -0.0537901 -6.11917 -4.04313 72.2299 0 0.108469
700 18 0.001 -0.0148749 0.000426545 -0.0507247 11.1749 -0.228435 -5.08458 0 0.0132052
701 18 0.001 -0.0144679 -0.000385737 -0.0485863 17.3385 3.84157 -14.6979 0 0.0217474
702 18 0.001 -0.0110929 0.000145329 -0.0506886 -15.7616 -1.62276 17.165 0 0.0234926
5 5 0.001 -0.0114794 0.00230088 -0.0492513 17.1154 -27.0186 -6.64104 0 0.0201736
473 17 0.001 -0.010522 0.00188594 -0.0469767 6.40166 -8.76741 -16.847 0 0.00759178
933 21 0.001 -0.0098019 -0.000320592 -0.0482958 -2.69937 6.15603 -25.7268 0 0.0306047
934 21 0.001 -0.00966281 -6.87875e-05 -0.0524755 10.8999 -3.66511 33.9634 0 0.0394677
935 21 0.001 -0.00661336 -0.000283979 -0.049759 -17.3556 37.921 -7.87485 0 0.0245476
936 21 0.001 -0.00413673 0.0003194 -0.0504309 0.804799 -74.9992 -2.85954 0 0.00613017
937 21 0.001 -0.00262925 0.000438867 -0.0508435 6.00322 38.9227 35.4997 0 0.0438959
938 21 0.001 -0.000325844 -0.000305827 -0.0457293 -60.6001 3.25058 -89.102 0 0.210532
939 21 0.001 -0.00652452 -0.000591235 -0.0538144 76.5824 9.41034 113.346 0 0.301405
940 21 0.001 -0.00289971 -0.000183834 -0.0453409 -22.3595 2.12087 -92.7932 0 0.170441
941 21 0.001 -0.00378853 0.00032062 -0.0505124 13.2059 -7.25654 28.5862 0 0.05141
942 21 0.001 -0.000223077 0.000189281 -0.0516288 6.22134 -4.28803 22.1453 0 0.0363047
943 21 0.001 0.00157307 -0.000206234 -0.0477861 -16.2326 4.67522 -45.5152 0 0.0454873
944 21 0.001 0.000818252 -5.37391e-05 -0.0522013 -7.45532 4.44651 37.3364 0 0.0259607
945 21 0.001 0.000728756 -1.82138e-05 -0.0502911 4.63122 -4.89272 5.77917 0 0.00549307
946 21 0.001 0.00301533 -0.000103452 -0.0497291 14.5307 1.5926 -13.4763 0 0.0131182
947 21 0.001 0.00539362 1.0157e-05 -0.0517982 15.8015 -1.04242 33.5371 0 0.0273221
948 21 0.001 0.00449103 5.43943e-05 -0.0479071 6.97835 -0.905036 -29.5752 0 0.0251339
949 21 0.001 0.00566483 4.04066e-05 -0.0505399 -61.0531 -1.55425 28.8901 0 0.00723355
950 21 0.001 0.00668141 -3.83467e-05 -0.0500031 -0.572955 1.78252 -5.73938 0 0.0043296
951 21 0.001 0.00427084 3.11446e-05 -0.0504144 23.8088 2.15808 -8.06734 0 0.0165847
7 7 0.001 0.01 0 -0.05 -8.64944 13.2741 42.7164 0 0.0384861
723 20 0.001 0.00897492 0.00150334 -0.0481451 26.3238 5.00056 8.26879 0 0.00519669
952 21 0.001 0.00631007 0.000381594 -0.0476219 15.6739 -4.103 -32.7021 0 0.0355133
1183 24 0.001 0.011201 1.39321e-05 -0.0469919 5.46219 -0.147592 -35.0102 0 0.0267095
1184 24 0.001 0.0134276 -4.90143e-07 -0.0501679 -14.3944 -0.15115 16.6345 0 0.0167587
1185 24 0.001 0.0122875 -2.56369e-07 -0.0506744 9.36038 0.23637 9.70478 0 0.00379003
1186 24 0.001 0.0136039 -8.26331e-06 -0.0487465 11.0933 -0.670264 -11.8627 0 0.0156641
1187 24 0.001 0.0168713 8.86617e-07 -0.0498392 -20.6482 0.787651 -18.3189 0 0.0139646
1188 24 0.001 0.0186671 1.77513e-05 -0.0506434 -10.066 -3.59884 -13.3163 0 0.00284001
1189 24 0.001 0.0170425 3.63343e-06 -0.0503599 3.87091 4.22383 27.2512 0 0.000912376
1190 24 0.001 0.017789 -4.91558e-05 -0.0511106 26.6444 -0.510461 13.5184 0 0.0120401
1191 24 0.001 0.0211237 -0.000121854 -0.0502469 -25.0434 6.21284 2.79991 0 0.0154604
1192 24 0.001 0.0194801 0.00015181 -0.0486683 11.1605 -4.58244 -25.6392 0 0.0144394
1193 24 0.001 0.0202847 9.40894e-06 -0.051905 8.5546 -1.98296 44.6593 0 0.0392764
1194 24 0.001 0.0223205 1.7227e-05 -0.0475986 -23.146 -0.818236 -63.4196 0 0.0698441
1195 24 0.001 0.0193249 -1.61555e-05 -0.052293 41.5181 0.708826 52.3691 0 0.0728688
1196 24 0.001 0.0222542 2.6987e-06 -0.0482892 9.18582 0.142837 -20.4515 0 0.0492088
1197 24 0.001 0.0241424 -1.87771e-05 -0.0518044 -0.295196 0.082627 32.0465 0 0.0253332
1198 24 0.001 0.023365 -3.44083e-06 -0.0489941 -31.7085 0.0715909 -18.1076 0 0.00798085
1199 24 0.001 0.0247184 4.26699e-06 -0.0496569 19.277 -0.0327005 -24.3846 0 0.00379429
1200 24 0.001 0.0243211 -3.34004e-05 -0.0518775 -8.95041 -1.97907 14.7544 0 0.00733204
1201 24 0.001 0.0257965 1.35496e-05 -0.0499638 2.81025 3.86851 11.1429 0 0.0205555
9 9 0.001 0.03 0 -0.05 1.87712 -5.25614 34.2478 0 0.0269003
973 23 0.001 0.0289749 0.00150334 -0.0481451 26.3238 5.00056 8.26879 0 0.00519669
1202 24 0.001 0.0283832 0.000113332 -0.0470932 -12.2564 -2.61965 -26.2131 0 0.0273677
1433 27 0.001 0.0305408 -0.00283028 -0.0483586 10.6532 34.5107 -14.4921 0 0.0301953
1434 27 0.001 0.0330664 0.000202571 -0.0495157 -19.4955 -9.59646 -8.99945 0 0.0299287
1435 27 0.001 0.0313421 0.00164774 -0.0519122 13.8721 -22.8955 14.9644 0 0.0210792
1436 27 0.001 0.032811 -0.00126388 -0.0523372 18.6805 10.6445 16.6798 0 0.0422754
1437 27 0.001 0.0367063 -0.00234675 -0.0494155 -9.99571 28.0831 -7.1678 0 0.052267
1438 27 0.001 0.0370811 0.00128586 -0.047333 17.535 -14.5349 -23.3442 0 0.0263812
1439 27 0.001 0.0372114 0.000277412 -0.0498309 -7.94337 -7.58231 -0.154171 0 0.014375
1440 27 0.001 0.0397951 -0.000715693 -0.0485357 3.14668 15.6967 -1.21248 0 0.017314
1441 27 0.001 0.0391494 0.000705131 -0.0511982 -5.48274 -2.06166 32.0026 0 0.0165613
1442 27 0.001 0.0397804 3.64399e-05 -0.0483824 -14.5177 -12.8613 -19.2644 0 0.0123123
1443 27 0.001 0.0418336 -0.000220652 -0.0497703 -10.2118 8.0663 -27.9595 0 0.0421991
1444 27 0.001 0.0417366 0.00106641 -0.05496 -0.440575 -18.4531 90.6846 0 0.143662
1445 27 0.001 0.0408149 -0.00039598 -0.0468312 24.9987 10.7122 -81.6068 0 0.142853
1446 27 0.001 0.0436531 9.4341e-05 -0.0512808 -22.3042 -8.13484 40.386 0 0.0369566
1447 27 0.001 0.0448205 0.000365639 -0.0513026 13.8884 1.22377 11.6608 0 0.0249106
1448 27 0.001 0.0446898 -0.000265543 -0.0468249 6.40883 8.85153 -75.6902 0 0.112123
1449 27 0.001 0.0468062 0.000578221 -0.0541096 -34.1659 -11.2372 72.5155 0 0.111813
1450 27 0.001 0.0448581 -0.00022193 -0.0501311 13.5263 7.95452 -20.0882 0 0.0255909
1451 27 0.001 0.0457693 -3.13662e-05 -0.0486866 9.71103 1.54159 -4.97682 0 0.00644825
1452 27 0.001 0.0482871 0.000653591 -0.0489639 -3.95092 1.62469 -25.9535 0 0.0299601
11 11 0.001 0.0496091 0.00129819 -0.0532262 -7.36632 -6.07666 61.3876 0 0.0597215
1223 26 0.001 0.0482355 0.00187207 -0.0482467 54.9345 -28.9973 7.89209 0 0.0351206
14 13 0.001 -0.0516307 0.00119943 -0.0497279 17.4646 20.4727 20.7776 0 0.0208821
224 14 0.001 -0.0305817 0.00168254 -0.0492196 -5.07133 11.6978 21.735 0 0.0102198
474 17 0.001 -0.0107337 0.00160461 -0.049156 -5.14516 14.6807 20.4081 0 0.00956639
724 20 0.001 0.00954948 0.00141482 -0.0489755 -35.1642 -2.69287 -1.5252 0 0.00362704
974 23 0.001 0.0295495 0.00141482 -0.0489755 -35.1642 -2.69287 -1.5252 0 0.00362704
1224 26 0.001 0.0487442 0.00165358 -0.0490638 -43.851 25.4915 -23.4847 0 0.0177001
17 13 0.001 -0.0521482 0.00248143 -0.0494418 28.5991 -11.0357 37.8206 0 0.0218125
15 13 0.001 -0.0493097 0.00164368 -0.0464162 -14.6269 9.23267 -45.8369 0 0.0396065
16 13 0.001 -0.0494131 0.00232011 -0.0505812 -18.4943 -5.67849 14.5916 0 0.0285765
226 14 0.001 -0.029648 0.0023511 -0.0505043 -21.5521 -7.10712 13.7837 0 0.0267701
227 14 0.001 -0.0322844 0.00249541 -0.0491658 32.1412 -15.4464 36.0633 0 0.0187214
225 14 0.001 -0.0299159 0.00143828 -0.0465357 -14.7253 14.376 -33.4699 0 0.0253967
477 17 0.001 -0.0122823 0.00248058 -0.0491415 32.8295 -14.7235 35.435 0 0.0191281
475 17 0.001 -0.00979576 0.00143006 -0.0465221 -12.1182 12.7203 -33.9419 0 0.0260649
476 17 0.001 -0.00957407 0.00239177 -0.0505228 -21.8549 -7.46399 14.7431 0 0.0279059
727 20 0.001 0.00746952 0.00312054 -0.0495677 -13.0973 -4.532 21.5092 0 0.0271622
725 20 0.001 0.0101849 0.000448779 -0.0469517 -10.2064 6.12632 -19.347 0 0.00986871
726 20 0.001 0.00939687 0.00193084 -0.0491367 -1.33611 -21.3642 -0.593922 0 0.00973496
976 23 0.001 0.0293969 0.00193084 -0.0491367 -1.33611 -21.3642 -0.593922 0 0.00973496
977 23 0.001 0.0274695 0.00312054 -0.0495677 -13.0973 -4.532 21.5092 0 0.0271622
975 23 0.001 0.0301849 0.000448779 -0.0469517 -10.2064 6.12632 -19.347 0 0.00986871
1227 26 0.001 0.0476839 0.00259863 -0.0491617 28.8185 -19.5437 37.8431 0 0.0166185
1225 26 0.001 0.0502614 0.000450153 -0.0455954 -15.0174 18.5433 -48.5177 0 0.0494971
1226 26 0.001 0.0499965 0.00211506 -0.0502949 -16.9274 -7.68385 16.794 0 0.0371326
19 13 0.001 -0.0558354 0.00191328 -0.0462686 0.792782 -32.0587 13.1916 0 0.0145644
20 13 0.001 -0.0565594 -0.00124936 -0.0476214 13.3482 27.0534 21.7408 0 0.0366002
18 13 0.001 -0.0539311 0.00230573 -0.0462733 -17.2266 16.2107 -33.3197 0 0.0158436
230 14 0.001 -0.0365654 -0.00120588 -0.0475762 13.9941 26.2886 20.6374 0 0.0364452
228 14 0.001 -0.0340413 0.00219963 -0.0463487 -19.4669 21.0077 -31.9779 0 0.0128016
229 14 0.001 -0.035962 0.0019136 -0.04631 1.08904 -32.5673 13.8213 0 0.013625
480 17 0.001 -0.0165632 -0.00120829 -0.0475801 14.0011 26.3567 20.6829 0 0.0364931
478 17 0.001 -0.0140391 0.0021953 -0.0463542 -19.5922 20.005 -32.1189 0 0.0125605
479 17 0.001 -0.0159616 0.00192134 -0.0463077 0.896195 -32.1758 13.7978 0 0.0137345
729 20 0.001 0.00552449 0.00269622 -0.0472726 26.2417 -11.7166 8.66434 0 0.0226362
730 20 0.001 0.00428205 -0.00126319 -0.0473318 14.895 33.7966 12.7169 0 0.0353153
728 20 0.001 0.00628748 0.00307794 -0.0452865 -15.3279 -3.62909 -13.139 0 0.0264481
980 23 0.001 0.024282 -0.00126319 -0.0473318 14.895 33.7966 12.7169 0 0.0353153
978 23 0.001 0.0262875 0.00307794 -0.0452865 -15.3279 -3.62909 -13.139 0 0.0264481
979 23 0.001 0.0255245 0.00269622 -0.0472726 26.2417 -11.7166 8.66434 0 0.0226362
1230 26 0.001 0.0434241 -0.00117182 -0.0475379 14.0847 25.5153 19.709 0 0.0358616
1228 26 0.001 0.0459747 0.00222434 -0.0462836 -19.8464 26.6672 -30.205 0 0.0132957
1229 26 0.001 0.0440291 0.00184176 -0.0463779 2.96261 -34.8951 14.2351 0 0.0125277
23 13 0.001 -0.0555985 -0.00154051 -0.0462807 9.32605 19.7636 30.443 0 0.0337532
233 14 0.001 -0.035584 -0.00153443 -0.0463095 9.02037 19.9484 31.1962 0 0.0348209
483 17 0.001 -0.0155856 -0.00153461 -0.046308 9.05053 19.9569 31.1645 0 0.0348061
733 20 0.001 0.00373467 -0.00247657 -0.0452119 15.2144 10.3548 16.7378 0 0.0213019
983 23 0.001 0.0237347 -0.00247657 -0.0452119 15.2144 10.3548 16.7378 0 0.0213019
1233 26 0.001 0.0444391 -0.00153186 -0.0463262 8.67417 19.815 31.4625 0 0.0348115
21 13 0.001 -0.0543126 2.48132e-05 -0.0439888 -18.1441 0.893829 -23.6008 0 0.0287356
22 13 0.001 -0.0560621 0.00187031 -0.0440363 15.2845 -26.0547 -17.8707 0 0.0241995
231 14 0.001 -0.0341953 -8.89839e-06 -0.0439264 -20.2354 2.1206 -24.3729 0 0.0305122
232 14 0.001 -0.0361028 0.00189476 -0.0440487 16.4726 -27.0041 -17.3724 0 0.0255812
481 17 0.001 -0.0142005 -7.63009e-06 -0.0439321 -20.1338 2.09225 -24.307 0 0.0304168
482 17 0.001 -0.0161022 0.00189508 -0.0440461 16.4234 -26.9804 -17.4292 0 0.0255559
731 20 0.001 0.00529655 0.00205455 -0.0458418 -1.36255 -29.5251 -9.18796 0 0.0343383
732 20 0.001 0.00350963 -0.000735395 -0.043476 8.93687 6.37746 -24.9075 0 0.0232822
981 23 0.001 0.0252966 0.00205455 -0.0458418 -1.36255 -29.5251 -9.18796 0 0.0343383
982 23 0.001 0.0235096 -0.000735395 -0.043476 8.93687 6.37746 -24.9075 0 0.0232822
1231 26 0.001 0.0458619 -1.67853e-05 -0.043859 -21.309 2.13091 -25.0273 0 0.0314971
1232 26 0.001 0.043903 0.00188835 -0.0440858 16.9609 -27.1056 -16.6863 0 0.0256821
25 13 0.001 -0.0543564 0.000588179 -0.0430976 15.0912 -21.8259 -10.256 0 0.0114232
26 13 0.001 -0.0545179 -0.00213237 -0.0439075 24.9354 16.1337 -0.941124 0 0.00981102
235 14 0.001 -0.0343714 0.000596582 -0.0431065 15.5262 -21.946 -9.90978 0 0.0115081
236 14 0.001 -0.0345062 -0.00214109 -0.0439116 24.8473 16.1965 -0.419584 0 0.00994488
485 17 0.001 -0.0143707 0.000596143 -0.0431069 15.5286 -21.9492 -9.90615 0 0.0115043
486 17 0.001 -0.014507 -0.0021407 -0.0439114 24.8486 16.1982 -0.457979 0 0.00993718
735 20 0.001 0.00581547 0.00045121 -0.0431043 12.3862 -23.8479 -9.73147 0 0.0115853
736 20 0.001 0.00524167 -0.00212026 -0.0438898 20.9361 17.0406 -1.73378 0 0.00955385
985 23 0.001 0.0258155 0.00045121 -0.0431043 12.3862 -23.8479 -9.73147 0 0.0115853
986 23 0.001 0.0252417 -0.00212026 -0.0438898 20.9361 17.0406 -1.73378 0 0.00955385
1235 26 0.001 0.0456233 0.000600241 -0.043096 15.3027 -21.814 -10.1313 0 0.011532
1236 26 0.001 0.0455031 -0.00214446 -0.0439131 24.8553 16.1431 0.0246944 0 0.0100203
24 13 0.001 -0.0531856 -0.00157606 -0.0435041 -20.991 9.05372 -11.5741 0 0.0189477
234 14 0.001 -0.0331774 -0.00156383 -0.0434437 -21.1201 9.16403 -12.9473 0 0.019618
484 17 0.001 -0.0131764 -0.00156415 -0.0434474 -21.1266 9.15968 -12.8643 0 0.0195964
734 20 0.001 0.0073483 -0.0013336 -0.0442747 -29.0531 9.06531 -4.73957 0 0.0222858
984 23 0.001 0.0273483 -0.0013336 -0.0442747 -29.0531 9.06531 -4.73957 0 0.0222858
1234 26 0.001 0.0468048 -0.00156245 -0.0434037 -20.9621 9.20642 -13.8781 0 0.0197655
27 13 0.001 -0.0538982 -2.98202e-05 -0.0437882 -27.7731 -10.8788 18.8933 0 0.0121819
28 13 0.001 -0.0529674 -0.00112233 -0.0409938 24.9755 19.6684 -53.7415 0 0.00980537
29 13 0.001 -0.0517821 -0.00193341 -0.0405386 9.74868 -32.0893 4.48805 0 0.00114288
30 13 0.001 -0.0525362 -0.00152737 -0.0417933 -30.3177 20.647 18.9542 0 0.00279941
237 14 0.001 -0.0338965 -2.88138e-05 -0.0437863 -28.0387 -11.0122 18.868 0 0.0122008
238 14 0.001 -0.0329678 -0.00112219 -0.0409934 24.8595 19.6392 -53.5899 0 0.00979232
239 14 0.001 -0.0317819 -0.00193353 -0.0405386 9.81034 -32.0829 4.34952 0 0.00114404
240 14 0.001 -0.0325363 -0.0015273 -0.0417932 -30.3029 20.6583 18.9614 0 0.00279994
487 17 0.001 -0.0138967 -2.88569e-05 -0.0437855 -28.0549 -11.0014 18.8396 0 0.012194
488 17 0.001 -0.0129677 -0.00112218 -0.0409934 24.8758 19.6439 -53.5941 0 0.00978648
489 17 0.001 -0.0117819 -0.00193353 -0.0405386 9.80485 -32.085 4.35782 0 0.00114397
490 17 0.001 -0.0125363 -0.00152731 -0.0417932 -30.3032 20.6577 18.9607 0 0.00279994
737 20 0.001 0.00603291 4.17029e-06 -0.0436574 -26.0335 -11.5102 19.108 0 0.0119735
738 20 0.001 0.00704416 -0.00110117 -0.0409811 27.8222 20.2529 -55.0634 0 0.00917415
739 20 0.001 0.00821025 -0.0019421 -0.0405415 8.73817 -32.3087 6.16593 0 0.00113586
740 20 0.001 0.00746464 -0.00153071 -0.0417995 -30.274 20.353 18.4477 0 0.00279363
987 23 0.001 0.0260329 4.1703e-06 -0.0436574 -26.0335 -11.5102 19.108 0 0.0119735
988 23 0.001 0.0270442 -0.00110117 -0.0409811 27.8222 20.2529 -55.0634 0 0.00917415
989 23 0.001 0.0282102 -0.0019421 -0.0405415 8.73818 -32.3087 6.16593 0 0.00113586
990 23 0.001 0.0274646 -0.00153071 -0.0417995 -30.274 20.3529 18.4477 0 0.00279363
1237 26 0.001 0.0461055 -2.83059e-05 -0.0438009 -27.6315 -11.1564 19.3974 0 0.0123118
1238 26 0.001 0.0470318 -0.00112256 -0.0409936 24.6296 19.5686 -53.5817 0 0.00989907
1239 26 0.001 0.0482184 -0.00193336 -0.0405386 9.88122 -32.0465 4.26374 0 0.00114476
1240 26 0.001 0.0474638 -0.0015272 -0.0417931 -30.3057 20.6623 18.97 0 0.00279956
31 13 0.001 -0.0507494 -0.00246998 -0.0420376 11.1993 37.1087 -10.2766 0 0.00235339
241 14 0.001 -0.0307495 -0.00247 -0.0420375 11.1975 37.1054 -10.2697 0 0.00235382
491 17 0.001 -0.0107494 -0.00247 -0.0420375 11.1977 37.106 -10.2698 0 0.00235384
741 20 0.001 0.00925269 -0.00246881 -0.0420412 11.3842 37.5201 -10.1158 0 0.00234752
991 23 0.001 0.0292527 -0.00246881 -0.0420412 11.3841 37.5201 -10.1158 0 0.00234752
1241 26 0.001 0.0492505 -0.00247002 -0.0420375 11.1959 37.0985 -10.2723 0 0.00235344
32 13 0.001 -0.0501378 -0.00256551 -0.041689 -22.713 -13.6905 37.9367 0 0.0210125
33 13 0.001 -0.0509283 0.000947399 -0.039469 10.3827 -12.3362 -18.8172 0 0.0245748
242 14 0.001 -0.0301379 -0.00256558 -0.041689 -22.7117 -13.6897 37.9348 0 0.0210125
243 14 0.001 -0.0309283 0.000947378 -0.039469 10.3813 -12.3365 -18.8168 0 0.0245752
492 17 0.001 -0.0101379 -0.00256558 -0.041689 -22.7118 -13.6899 37.9348 0 0.0210125
493 17 0.001 -0.0109283 0.000947378 -0.039469 10.3812 -12.3364 -18.8168 0 0.0245752
742 20 0.001 0.00986362 -0.00256279 -0.0416904 -22.7552 -13.8442 37.9225 0 0.0210107
743 20 0.001 0.00907137 0.000948297 -0.0394682 10.4305 -12.3333 -18.8209 0 0.0245585
992 23 0.001 0.0298636 -0.00256279 -0.0416904 -22.7551 -13.8441 37.9225 0 0.0210107
993 23 0.001 0.0290714 0.000948298 -0.0394682 10.4306 -12.3333 -18.821 0 0.0245585
1242 26 0.001 0.0498621 -0.00256563 -0.041689 -22.7129 -13.6896 37.9376 0 0.0210126
1243 26 0.001 0.0490718 0.000947363 -0.039469 10.3807 -12.3363 -18.8171 0 0.0245755
34 13 0.001 -0.0512692 0.00259712 -0.0411009 -16.1725 -25.6933 13.6742 0 0.0120875
244 14 0.001 -0.0312691 0.00259716 -0.0411009 -16.1745 -25.6921 13.6745 0 0.0120868
494 17 0.001 -0.0112691 0.00259716 -0.0411009 -16.1748 -25.692 13.6745 0 0.0120867
744 20 0.001 0.00872958 0.00259535 -0.0410987 -16.0986 -25.7386 13.6601 0 0.0121107
994 23 0.001 0.0287296 0.00259535 -0.0410987 -16.0982 -25.7388 13.6602 0 0.0121108
1244 26 0.001 0.0487309 0.00259719 -0.041101 -16.1754 -25.6915 13.6748 0 0.0120865
36 13 0.001 -0.0508894 0.000633652 -0.0362558 -16.753 -5.66409 -17.9283 0 0.0217345
35 13 0.001 -0.0510072 -0.000275663 -0.0401476 11.7682 22.7906 15.8847 0 0.0263942
245 14 0.001 -0.0310073 -0.000275509 -0.0401477 11.7719 22.7884 15.8847 0 0.0263931
246 14 0.001 -0.0308893 0.000633644 -0.0362558 -16.7541 -5.66449 -17.9271 0 0.021734
496 17 0.001 -0.0108893 0.000633651 -0.0362558 -16.7545 -5.66496 -17.9263 0 0.0217338
495 17 0.001 -0.0110073 -0.0002755 -0.0401477 11.7725 22.7883 15.8846 0 0.0263929
746 20 0.001 0.00910965 0.000634132 -0.0362549 -16.717 -5.65277 -17.9595 0 0.0217517
745 20 0.001 0.00899718 -0.000281812 -0.0401453 11.6342 22.8795 15.8792 0 0.0264311
995 23 0.001 0.0289972 -0.000281829 -0.0401453 11.6335 22.8797 15.8793 0 0.0264313
996 23 0.001 0.0291096 0.000634125 -0.0362549 -16.7166 -5.65228 -17.9602 0 0.0217518
1246 26 0.001 0.0491107 0.000633631 -0.0362558 -16.7544 -5.66445 -17.927 0 0.0217338
1245 26 0.001 0.0489926 -0.000275416 -0.0401477 11.7736 22.787 15.8849 0 0.0263927
38 13 0.001 -0.0534344 0.00406272 -0.0398375 8.64314 -25.7111 45.5459 0 0.049575
39 13 0.001 -0.051728 0.00273957 -0.0351313 -12.1214 0.586593 -44.3982 0 0.0408679
37 13 0.001 -0.0525438 0.00223388 -0.0367303 9.70737 20.7224 -16.0574 0 0.0185044
249 14 0.001 -0.0317281 0.00273965 -0.0351313 -12.1174 0.579412 -44.3992 0 0.0408671
247 14 0.001 -0.0325438 0.00223379 -0.0367303 9.70651 20.7237 -16.0588 0 0.0185046
248 14 0.001 -0.0334344 0.0040627 -0.0398375 8.64265 -25.7092 45.5463 0 0.0495747
499 17 0.001 -0.0117282 0.00273973 -0.0351313 -12.114 0.570537 -44.3997 0 0.0408672
498 17 0.001 -0.0134344 0.00406268 -0.0398375 8.64131 -25.708 45.5467 0 0.0495741
497 17 0.001 -0.0125438 0.00223377 -0.0367303 9.70642 20.7238 -16.0595 0 0.0185045
748 20 0.001 0.00656491 0.00406311 -0.0398376 8.65162 -25.6903 45.5356 0 0.0495435
749 20 0.001 0.00827273 0.00274046 -0.0351321 -12.1347 0.572654 -44.4052 0 0.0408636
747 20 0.001 0.00745356 0.00223721 -0.036731 9.73548 20.6663 -16.0197 0 0.0184971
999 23 0.001 0.0282729 0.0027404 -0.0351322 -12.1372 0.579705 -44.4049 0 0.0408633
997 23 0.001 0.0274536 0.00223723 -0.036731 9.73552 20.6661 -16.0191 0 0.0184972
998 23 0.001 0.0265649 0.00406313 -0.0398376 8.65299 -25.6908 45.5353 0 0.0495437
1249 26 0.001 0.048272 0.00273954 -0.0351313 -12.1206 0.586546 -44.398 0 0.0408681
1248 26 0.001 0.0465657 0.00406271 -0.0398375 8.64278 -25.7118 45.5463 0 0.0495762
1247 26 0.001 0.0474563 0.00223374 -0.0367303 9.70617 20.7245 -16.059 0 0.0185047
42 13 0.001 -0.0566081 0.00140801 -0.0361843 18.467 -20.2568 3.50768 0 0.0430203
252 14 0.001 -0.0366071 0.00140894 -0.0361846 18.4222 -20.2669 3.52706 0 0.043009
502 17 0.001 -0.0166067 0.00140961 -0.0361848 18.4043 -20.2927 3.53172 0 0.0430056
752 20 0.001 0.00339233 0.00140879 -0.036184 18.4293 -20.255 3.51773 0 0.0430163
1002 23 0.001 0.0233923 0.00140835 -0.0361839 18.4376 -20.2318 3.51714 0 0.0430168
1252 26 0.001 0.043392 0.00140804 -0.0361843 18.4662 -20.2581 3.50821 0 0.0430198
40 13 0.001 -0.0531944 0.00226421 -0.0373847 -15.7677 -9.56805 2.70407 0 0.0305306
41 13 0.001 -0.0569769 0.00115574 -0.0395533 26.6489 16.3754 26.1356 0 0.0360314
251 14 0.001 -0.0369776 0.00115588 -0.0395531 26.6683 16.3828 26.1289 0 0.036034
250 14 0.001 -0.0331945 0.00226385 -0.0373847 -15.7763 -9.55791 2.70673 0 0.0305357
501 17 0.001 -0.0169779 0.00115601 -0.0395529 26.6761 16.3785 26.1229 0 0.0360318
500 17 0.001 -0.0131944 0.00226345 -0.0373848 -15.7814 -9.54569 2.70986 0 0.0305368
750 20 0.001 0.00680483 0.0022629 -0.0373844 -15.8097 -9.5593 2.73603 0 0.0305293
751 20 0.001 0.00302257 0.00115522 -0.0395533 26.6679 16.375 26.1265 0 0.0360335
1001 23 0.001 0.0230227 0.00115513 -0.0395535 26.6656 16.3812 26.1306 0 0.0360363
1000 23 0.001 0.0268047 0.00226321 -0.0373843 -15.8072 -9.56892 2.73367 0 0.0305296
1251 26 0.001 0.0430231 0.00115577 -0.0395533 26.6491 16.3756 26.1355 0 0.0360314
1250 26 0.001 0.0468056 0.00226424 -0.0373847 -15.7666 -9.56759 2.70302 0 0.0305309
44 13 0.001 -0.0558235 0.00110823 -0.0365517 12.2034 -16.4437 36.1444 0 0.0507405
45 13 0.001 -0.0561932 -0.00294551 -0.035555 6.30559 31.012 25.6821 0 0.0526799
254 14 0.001 -0.03582 0.00110925 -0.036551 12.0934 -16.4258 36.0875 0 0.050593
255 14 0.001 -0.0362087 -0.00293415 -0.0355571 6.40563 30.8268 25.6281 0 0.0523531
504 17 0.001 -0.0158208 0.00110778 -0.0365534 12.1152 -16.3839 36.1188 0 0.0506112
505 17 0.001 -0.0162072 -0.00293329 -0.0355549 6.41148 30.8077 25.6009 0 0.052323
754 20 0.001 0.00417964 0.00110898 -0.0365525 12.1028 -16.4233 36.1088 0 0.050615
755 20 0.001 0.00379195 -0.0029335 -0.0355559 6.41311 30.8179 25.6116 0 0.0523399
1004 23 0.001 0.0241812 0.00111088 -0.0365493 12.064 -16.4676 36.0588 0 0.0505637
1005 23 0.001 0.0237876 -0.00293267 -0.035559 6.40166 30.8063 25.6377 0 0.0523173
1254 26 0.001 0.0441765 0.0011082 -0.0365517 12.2036 -16.4424 36.1445 0 0.0507401
1255 26 0.001 0.0438068 -0.0029455 -0.035555 6.30569 31.0116 25.6819 0 0.0526792
43 13 0.001 -0.0539385 0.000773387 -0.0320397 -28.9695 7.92126 -52.8316 0 0.0618169
253 14 0.001 -0.0339393 0.00077361 -0.0320397 -28.9338 7.94795 -52.8265 0 0.0617737
503 17 0.001 -0.0139392 0.000773287 -0.0320399 -28.9337 7.94896 -52.8408 0 0.0618086
753 20 0.001 0.00606121 0.000773635 -0.0320397 -28.9453 7.94562 -52.834 0 0.0618
1003 23 0.001 0.026061 0.000774048 -0.0320395 -28.9369 7.95045 -52.8142 0 0.0617461
1253 26 0.001 0.0460615 0.000773376 -0.0320397 -28.9691 7.9214 -52.8318 0 0.0618169
46 13 0.001 -0.0555959 -0.00090148 -0.0310038 12.1401 -16.882 -28.2374 0 0.0363917
47 13 0.001 -0.054091 -0.000953229 -0.0328913 -7.76467 -14.5163 -17.5378 0 0.0340779
48 13 0.001 -0.0532856 -0.00465168 -0.0359668 -7.57888 28.5048 43.6479 0 0.0546343
49 13 0.001 -0.053906 -0.00352877 -0.0316413 7.65741 3.4482 -20.1181 0 0.0321244
256 14 0.001 -0.0356063 -0.000911934 -0.0310116 12.8944 -16.7063 -27.8235 0 0.0362671
257 14 0.001 -0.0340941 -0.000949502 -0.0329136 -9.53319 -13.8897 -18.204 0 0.0330474
258 14 0.001 -0.033387 -0.00462109 -0.0359291 -3.42552 26.7323 40.5853 0 0.0484578
259 14 0.001 -0.0336191 -0.00356549 -0.0319452 4.81106 6.38042 -17.2339 0 0.0273705
506 17 0.001 -0.0156041 -0.000911048 -0.0310104 12.8733 -16.7042 -27.8186 0 0.0362358
507 17 0.001 -0.0140973 -0.000951257 -0.0329126 -9.46548 -13.8818 -18.2034 0 0.033054
508 17 0.001 -0.0133824 -0.00461958 -0.0359329 -3.71875 26.8157 40.6731 0 0.0486426
509 17 0.001 -0.0136257 -0.00356927 -0.0319349 4.3351 6.27087 -16.2841 0 0.0279515
756 20 0.001 0.0043949 -0.000911493 -0.031011 12.8859 -16.7023 -27.8238 0 0.0362496
757 20 0.001 0.00590405 -0.000950219 -0.0329136 -9.51423 -13.8825 -18.1974 0 0.0330403
758 20 0.001 0.00661409 -0.00462088 -0.0359297 -3.48388 26.744 40.612 0 0.0485033
759 20 0.001 0.006379 -0.0035659 -0.0319421 4.80501 6.32286 -17.1716 0 0.0274343
1006 23 0.001 0.0243893 -0.000914933 -0.0310137 13.0443 -16.6654 -27.7392 0 0.0362634
1007 23 0.001 0.0259088 -0.000947729 -0.0329165 -9.90511 -13.8129 -18.3506 0 0.0329131
1008 23 0.001 0.0265974 -0.00461674 -0.0359221 -2.56886 26.3701 40.087 0 0.0475357
1009 23 0.001 0.0264325 -0.00356804 -0.0319969 4.10211 7.58941 -17.2783 0 0.0266684
1256 26 0.001 0.0444041 -0.000901478 -0.0310038 12.14 -16.8819 -28.2375 0 0.0363915
1257 26 0.001 0.045909 -0.000953235 -0.0328913 -7.76452 -14.5163 -17.5377 0 0.0340778
1258 26 0.001 0.0467144 -0.00465167 -0.0359668 -7.57923 28.5048 43.6481 0 0.0546346
1259 26 0.001 0.0460939 -0.00352877 -0.0316413 7.65764 3.44794 -20.1184 0 0.0321247
50 13 0.001 -0.0525575 -0.00125317 -0.0303954 17.8561 -14.126 -18.5881 0 0.0359239
51 13 0.001 -0.0493508 -0.00243426 -0.03373 -28.8302 7.33188 41.9676 0 0.0511288
52 13 0.001 -0.0514463 -0.0030141 -0.0299408 -7.09933 12.8788 -16.7995 0 0.0249814
260 14 0.001 -0.0326817 -0.00130348 -0.0302766 17.6933 -12.9993 -16.653 0 0.0308104
261 14 0.001 -0.0299954 -0.00275159 -0.0334375 -4.58191 10.091 24.5195 0 0.0265157
262 14 0.001 -0.0305244 -0.00220631 -0.0312601 -27.0093 11.2825 -5.84871 0 0.0104631
510 17 0.001 -0.0126528 -0.00128162 -0.030227 19.4206 -14.7352 -17.4436 0 0.0328857
511 17 0.001 -0.00989413 -0.0026696 -0.0335198 -18.6856 10.1133 25.769 0 0.0295871
512 17 0.001 -0.010736 -0.00244515 -0.0311196 -6.42989 7.25936 -5.18996 0 0.0115918
760 20 0.001 0.00732109 -0.00130169 -0.0302747 17.8008 -13.0481 -16.7445 0 0.0309521
761 20 0.001 0.0100138 -0.00274372 -0.0334456 -6.84791 9.28075 24.5495 0 0.026695
762 20 0.001 0.00946428 -0.00222779 -0.0312546 -24.1034 11.1506 -4.84631 0 0.0110124
1010 23 0.001 0.0272862 -0.00132098 -0.0302521 18.2871 -13.5908 -15.537 0 0.0305726
1011 23 0.001 0.0299576 -0.00280478 -0.0333784 0.151297 37.9125 12.0471 0 0.0255465
1012 23 0.001 0.02954 -0.0020533 -0.0313853 -34.892 -37.5425 13.9403 0 0.0118274
1260 26 0.001 0.0474425 -0.00125316 -0.0303955 17.856 -14.1258 -18.5877 0 0.0359235
1261 26 0.001 0.0506492 -0.00243426 -0.03373 -28.8302 7.33192 41.9673 0 0.0511285
1262 26 0.001 0.0485537 -0.0030141 -0.0299408 -7.09916 12.8786 -16.7995 0 0.0249814
53 13 0.001 -0.051335 -0.00101551 -0.0303989 16.0681 4.22835 -13.1058 0 0.0120787
54 13 0.001 -0.0489481 0.000801591 -0.0315234 -18.2988 8.33524 16.5228 0 0.0188974
263 14 0.001 -0.0312953 -0.00129331 -0.0286662 13.0239 15.8692 -13.661 0 0.0251822
264 14 0.001 -0.0294291 0.000608757 -0.0316701 -10.2594 6.8716 16.2289 0 0.0233046
513 17 0.001 -0.0112643 -0.00119437 -0.0286519 12.5708 21.3773 -17.4528 0 0.0330796
514 17 0.001 -0.00931992 0.00120893 -0.0321063 -17.7456 -18.4245 38.6893 0 0.0453235
763 20 0.001 0.00867298 -0.00126814 -0.0286114 14.2363 15.9911 -16.9606 0 0.0294059
764 20 0.001 0.0106711 0.000805037 -0.0318219 -11.5916 2.99941 24.7257 0 0.028194
1013 23 0.001 0.0286715 -0.00133468 -0.0284831 17.2043 36.9617 -24.8061 0 0.0324874