ITEM: TIMESTEP
0
ITEM: NUMBER OF ATOMS
210
ITEM: BOX BOUNDS ff ff ff
-1.4999999999999999e-02 1.4999999999999999e-02
-6.0000000000000001e-03 6.0000000000000001e-03
-5.5000000000000000e-02 5.5000000000000000e-02
ITEM: ATOMS id type radius x y z fx fy fz c_bendingE c_stretchingE
1 1 0.001 -0.005 0 -0.05 0 0 3.33067e-15 0 7.22224e-34
5 5 0.001 -0.004 0 -0.05 0 0 0 0 0
9 6 0.001 -0.005 0 -0.049 0 0 0 0 1.44445e-33
6 5 0.001 -0.003 0 -0.05 1.97884e-15 0 0 0 1.80556e-34
7 5 0.001 -0.002 0 -0.05 -3.64418e-15 0 0 0 3.61112e-34
8 5 0.001 -0.001 0 -0.05 1.66533e-15 0 0 0 1.80556e-34
2 2 0.001 0 0 -0.05 0 0 3.33067e-15 0 7.22224e-34
108 7 0.001 0 0 -0.049 0 0 0 0 1.44445e-33
10 6 0.001 -0.005 0 -0.048 0 0 0 0 1.44445e-33
109 7 0.001 0 0 -0.048 0 0 0 0 1.44445e-33
11 6 0.001 -0.005 0 -0.047 0 0 0 0 1.44445e-33
12 6 0.001 -0.005 0 -0.046 0 0 0 0 1.44445e-33
110 7 0.001 0 0 -0.047 0 0 0 0 1.44445e-33
111 7 0.001 0 0 -0.046 0 0 0 0 1.44445e-33
13 6 0.001 -0.005 0 -0.045 0 0 -2.66454e-14 0 3.61112e-32
112 7 0.001 0 0 -0.045 0 0 -2.66454e-14 0 3.61112e-32
14 6 0.001 -0.005 0 -0.044 0 0 2.66454e-14 0 3.61112e-32
15 6 0.001 -0.005 0 -0.043 0 0 0 0 1.44445e-33
113 7 0.001 0 0 -0.044 0 0 2.66454e-14 0 3.61112e-32
114 7 0.001 0 0 -0.043 0 0 0 0 1.44445e-33
16 6 0.001 -0.005 0 -0.042 0 0 0 0 1.44445e-33
115 7 0.001 0 0 -0.042 0 0 0 0 1.44445e-33
17 6 0.001 -0.005 0 -0.041 0 0 0 0 1.44445e-33
18 6 0.001 -0.005 0 -0.04 0 0 0 0 1.44445e-33
116 7 0.001 0 0 -0.041 0 0 0 0 1.44445e-33
117 7 0.001 0 0 -0.04 0 0 0 0 1.44445e-33
19 6 0.001 -0.005 0 -0.039 0 0 -2.66454e-14 0 3.61112e-32
118 7 0.001 0 0 -0.039 0 0 -2.66454e-14 0 3.61112e-32
20 6 0.001 -0.005 0 -0.038 0 0 2.66454e-14 0 3.61112e-32
21 6 0.001 -0.005 0 -0.037 0 0 0 0 1.44445e-33
119 7 0.001 0 0 -0.038 0 0 2.66454e-14 0 3.61112e-32
120 7 0.001 0 0 -0.037 0 0 0 0 1.44445e-33
22 6 0.001 -0.005 0 -0.036 0 0 0 0 1.44445e-33
121 7 0.001 0 0 -0.036 0 0 0 0 1.44445e-33
23 6 0.001 -0.005 0 -0.035 0 0 0 0 1.44445e-33
24 6 0.001 -0.005 0 -0.034 0 0 0 0 1.44445e-33
122 7 0.001 0 0 -0.035 0 0 0 0 1.44445e-33
123 7 0.001 0 0 -0.034 0 0 0 0 1.44445e-33
25 6 0.001 -0.005 0 -0.033 0 0 0 0 1.44445e-33
124 7 0.001 0 0 -0.033 0 0 0 0 1.44445e-33
26 6 0.001 -0.005 0 -0.032 0 0 0 0 1.44445e-33
27 6 0.001 -0.005 0 -0.031 0 0 0 0 1.44445e-33
125 7 0.001 0 0 -0.032 0 0 0 0 1.44445e-33
126 7 0.001 0 0 -0.031 0 0 0 0 1.44445e-33
28 6 0.001 -0.005 0 -0.03 0 0 -1.26957e-14 0 7.22224e-33
127 7 0.001 0 0 -0.03 0 0 -1.26957e-14 0 7.22224e-33
29 6 0.001 -0.005 0 -0.029 0 0 1.26957e-14 0 7.22224e-33
30 6 0.001 -0.005 0 -0.028 0 0 0 0 1.44445e-33
128 7 0.001 0 0 -0.029 0 0 1.26957e-14 0 7.22224e-33
129 7 0.001 0 0 -0.028 0 0 0 0 1.44445e-33
31 6 0.001 -0.005 0 -0.027 0 0 -1.26957e-14 0 7.22224e-33
130 7 0.001 0 0 -0.027 0 0 -1.26957e-14 0 7.22224e-33
32 6 0.001 -0.005 0 -0.026 0 0 1.26957e-14 0 7.22224e-33
33 6 0.001 -0.005 0 -0.025 0 0 0 0 1.44445e-33
131 7 0.001 0 0 -0.026 0 0 1.26957e-14 0 7.22224e-33
132 7 0.001 0 0 -0.025 0 0 0 0 1.44445e-33
34 6 0.001 -0.005 0 -0.024 0 0 0 0 1.44445e-33
133 7 0.001 0 0 -0.024 0 0 0 0 1.44445e-33
35 6 0.001 -0.005 0 -0.023 0 0 0 0 1.44445e-33
36 6 0.001 -0.005 0 -0.022 0 0 -2.66454e-14 0 3.61112e-32
134 7 0.001 0 0 -0.023 0 0 0 0 1.44445e-33
135 7 0.001 0 0 -0.022 0 0 -2.66454e-14 0 3.61112e-32
37 6 0.001 -0.005 0 -0.021 0 0 2.66454e-14 0 3.61112e-32
136 7 0.001 0 0 -0.021 0 0 2.66454e-14 0 3.61112e-32
38 6 0.001 -0.005 0 -0.02 0 0 0 0 1.44445e-33
39 6 0.001 -0.005 0 -0.019 0 0 0 0 1.44445e-33
137 7 0.001 0 0 -0.02 0 0 0 0 1.44445e-33
138 7 0.001 0 0 -0.019 0 0 0 0 1.44445e-33
40 6 0.001 -0.005 0 -0.018 0 0 0 0 1.44445e-33
139 7 0.001 0 0 -0.018 0 0 0 0 1.44445e-33
41 6 0.001 -0.005 0 -0.017 0 0 0 0 1.44445e-33
42 6 0.001 -0.005 0 -0.016 0 0 0 0 1.44445e-33
140 7 0.001 0 0 -0.017 0 0 0 0 1.44445e-33
141 7 0.001 0 0 -0.016 0 0 0 0 1.44445e-33
43 6 0.001 -0.005 0 -0.015 0 0 -2.66454e-14 0 3.61112e-32
142 7 0.001 0 0 -0.015 0 0 -2.66454e-14 0 3.61112e-32
44 6 0.001 -0.005 0 -0.014 0 0 2.66454e-14 0 3.61112e-32
45 6 0.001 -0.005 0 -0.013 0 0 2.66454e-14 0 5.92223e-32
143 7 0.001 0 0 -0.014 0 0 2.66454e-14 0 3.61112e-32
144 7 0.001 0 0 -0.013 0 0 2.66454e-14 0 5.92223e-32
46 6 0.001 -0.005 0 -0.012 0 0 -2.66454e-14 0 5.92223e-32
145 7 0.001 0 0 -0.012 0 0 -2.66454e-14 0 5.92223e-32
47 6 0.001 -0.005 0 -0.011 0 0 0 0 1.44445e-33
48 6 0.001 -0.005 0 -0.01 0 0 0 0 1.44445e-33
146 7 0.001 0 0 -0.011 0 0 0 0 1.44445e-33
147 7 0.001 0 0 -0.01 0 0 0 0 1.44445e-33
49 6 0.001 -0.005 0 -0.009 0 0 -2.66454e-14 0 3.61112e-32
148 7 0.001 0 0 -0.009 0 0 -2.66454e-14 0 3.61112e-32
50 6 0.001 -0.005 0 -0.008 0 0 2.66454e-14 0 3.61112e-32
51 6 0.001 -0.005 0 -0.007 0 0 0 0 1.44445e-33
149 7 0.001 0 0 -0.008 0 0 2.66454e-14 0 3.61112e-32
150 7 0.001 0 0 -0.007 0 0 0 0 1.44445e-33
52 6 0.001 -0.005 0 -0.006 0 0 0 0 1.44445e-33
151 7 0.001 0 0 -0.006 0 0 0 0 1.44445e-33
53 6 0.001 -0.005 0 -0.005 0 0 0 0 1.44445e-33
54 6 0.001 -0.005 0 -0.004 0 0 0 0 1.44445e-33
152 7 0.001 0 0 -0.005 0 0 0 0 1.44445e-33
153 7 0.001 0 0 -0.004 0 0 0 0 1.44445e-33
55 6 0.001 -0.005 0 -0.003 0 0 -2.66454e-14 0 3.61112e-32
154 7 0.001 0 0 -0.003 0 0 -2.66454e-14 0 3.61112e-32
56 6 0.001 -0.005 0 -0.002 0 0 2.66454e-14 0 3.61112e-32
57 6 0.001 -0.005 0 -0.001 0 0 0 0 1.44445e-33
155 7 0.001 0 0 -0.002 0 0 2.66454e-14 0 3.61112e-32
156 7 0.001 0 0 -0.001 0 0 0 0 1.44445e-33
58 6 0.001 -0.005 0 0 2.0944e-14 0 0 0 1.44445e-33
157 7 0.001 0 0 0 2.0944e-14 0 0 0 1.44445e-33
59 6 0.001 -0.005 0 0.001 0 0 0 0 1.44445e-33
60 6 0.001 -0.005 0 0.002 0 0 0 0 1.44445e-33
158 7 0.001 0 0 0.001 0 0 0 0 1.44445e-33
159 7 0.001 0 0 0.002 0 0 0 0 1.44445e-33
61 6 0.001 -0.005 0 0.003 0 0 0 0 1.44445e-33
160 7 0.001 0 0 0.003 0 0 0 0 1.44445e-33
62 6 0.001 -0.005 0 0.004 0 0 0 0 1.44445e-33
63 6 0.001 -0.005 0 0.005 0 0 0 0 1.44445e-33
161 7 0.001 0 0 0.004 0 0 0 0 1.44445e-33
162 7 0.001 0 0 0.005 0 0 0 0 1.44445e-33
64 6 0.001 -0.005 0 0.006 0 0 3.1351e-16 0 1.44445e-33
163 7 0.001 0 0 0.006 0 0 3.1351e-16 0 1.44445e-33
65 6 0.001 -0.005 0 0.007 0 0 -5.29772e-14 0 1.63223e-31
66 6 0.001 -0.005 0 0.008 0 0 5.29772e-14 0 1.63223e-31
164 7 0.001 0 0 0.007 0 0 -5.29772e-14 0 1.63223e-31
165 7 0.001 0 0 0.008 0 0 5.29772e-14 0 1.63223e-31
67 6 0.001 -0.005 0 0.009 0 0 -3.1351e-16 0 1.44445e-33
166 7 0.001 0 0 0.009 0 0 -3.1351e-16 0 1.44445e-33
68 6 0.001 -0.005 0 0.01 0 0 0 0 1.44445e-33
69 6 0.001 -0.005 0 0.011 0 0 0 0 1.44445e-33
167 7 0.001 0 0 0.01 0 0 0 0 1.44445e-33
168 7 0.001 0 0 0.011 0 0 0 0 1.44445e-33
70 6 0.001 -0.005 0 0.012 0 0 0 0 1.44445e-33
169 7 0.001 0 0 0.012 0 0 0 0 1.44445e-33
71 6 0.001 -0.005 0 0.013 0 0 0 0 1.44445e-33
72 6 0.001 -0.005 0 0.014 0 0 0 0 1.44445e-33
170 7 0.001 0 0 0.013 0 0 0 0 1.44445e-33
171 7 0.001 0 0 0.014 0 0 0 0 1.44445e-33
73 6 0.001 -0.005 0 0.015 0 0 0 0 1.44445e-33
172 7 0.001 0 0 0.015 0 0 0 0 1.44445e-33
74 6 0.001 -0.005 0 0.016 0 0 0 0 1.44445e-33
75 6 0.001 -0.005 0 0.017 0 0 0 0 1.44445e-33
173 7 0.001 0 0 0.016 0 0 0 0 1.44445e-33
174 7 0.001 0 0 0.017 0 0 0 0 1.44445e-33
76 6 0.001 -0.005 0 0.018 0 0 0 0 1.44445e-33
175 7 0.001 0 0 0.018 0 0 0 0 1.44445e-33
77 6 0.001 -0.005 0 0.019 0 0 3.1351e-16 0 1.44445e-33
78 6 0.001 -0.005 0 0.02 0 0 -5.29772e-14 0 1.63223e-31
176 7 0.001 0 0 0.019 0 0 3.1351e-16 0 1.44445e-33
177 7 0.001 0 0 0.02 0 0 -5.29772e-14 0 1.63223e-31
79 6 0.001 -0.005 0 0.021 0 0 5.29772e-14 0 1.63223e-31
178 7 0.001 0 0 0.021 0 0 5.29772e-14 0 1.63223e-31
80 6 0.001 -0.005 0 0.022 0 0 -3.1351e-16 0 1.44445e-33
81 6 0.001 -0.005 0 0.023 0 0 3.1351e-16 0 1.44445e-33
179 7 0.001 0 0 0.022 0 0 -3.1351e-16 0 1.44445e-33
180 7 0.001 0 0 0.023 0 0 3.1351e-16 0 1.44445e-33
82 6 0.001 -0.005 0 0.024 0 0 5.36042e-14 0 2.09445e-31
181 7 0.001 0 0 0.024 0 0 5.36042e-14 0 2.09445e-31
83 6 0.001 -0.005 0 0.025 0 0 -5.36042e-14 0 2.09445e-31
84 6 0.001 -0.005 0 0.026 0 0 -3.1351e-16 0 1.44445e-33
182 7 0.001 0 0 0.025 0 0 -5.36042e-14 0 2.09445e-31
183 7 0.001 0 0 0.026 0 0 -3.1351e-16 0 1.44445e-33
85 6 0.001 -0.005 0 0.027 0 0 0 0 1.44445e-33
184 7 0.001 0 0 0.027 0 0 0 0 1.44445e-33
86 6 0.001 -0.005 0 0.028 0 0 0 0 1.44445e-33
87 6 0.001 -0.005 0 0.029 0 0 0 0 1.44445e-33
185 7 0.001 0 0 0.028 0 0 0 0 1.44445e-33
186 7 0.001 0 0 0.029 0 0 0 0 1.44445e-33
88 6 0.001 -0.005 0 0.03 0 0 0 0 1.44445e-33
187 7 0.001 0 0 0.03 0 0 0 0 1.44445e-33
89 6 0.001 -0.005 0 0.031 0 0 0 0 1.44445e-33
90 6 0.001 -0.005 0 0.032 0 0 3.1351e-16 0 1.44445e-33
188 7 0.001 0 0 0.031 0 0 0 0 1.44445e-33
189 7 0.001 0 0 0.032 0 0 3.1351e-16 0 1.44445e-33
91 6 0.001 -0.005 0 0.033 0 0 -5.29772e-14 0 1.63223e-31
190 7 0.001 0 0 0.033 0 0 -5.29772e-14 0 1.63223e-31
92 6 0.001 -0.005 0 0.034 0 0 5.29772e-14 0 1.63223e-31
93 6 0.001 -0.005 0 0.035 0 0 -3.1351e-16 0 1.44445e-33
191 7 0.001 0 0 0.034 0 0 5.29772e-14 0 1.63223e-31
192 7 0.001 0 0 0.035 0 0 -3.1351e-16 0 1.44445e-33
94 6 0.001 -0.005 0 0.036 0 0 0 0 1.44445e-33
193 7 0.001 0 0 0.036 0 0 0 0 1.44445e-33
95 6 0.001 -0.005 0 0.037 0 0 0 0 1.44445e-33
96 6 0.001 -0.005 0 0.038 0 0 0 0 1.44445e-33
194 7 0.001 0 0 0.037 0 0 0 0 1.44445e-33
195 7 0.001 0 0 0.038 0 0 0 0 1.44445e-33
97 6 0.001 -0.005 0 0.039 0 0 0 0 1.44445e-33
196 7 0.001 0 0 0.039 0 0 0 0 1.44445e-33
98 6 0.001 -0.005 0 0.04 0 0 0 0 1.44445e-33
99 6 0.001 -0.005 0 0.041 0 0 0 0 1.44445e-33
197 7 0.001 0 0 0.04 0 0 0 0 1.44445e-33
198 7 0.001 0 0 0.041 0 0 0 0 1.44445e-33
100 6 0.001 -0.005 0 0.042 0 0 0 0 1.44445e-33
199 7 0.001 0 0 0.042 0 0 0 0 1.44445e-33
101 6 0.001 -0.005 0 0.043 0 0 0 0 1.44445e-33
102 6 0.001 -0.005 0 0.044 0 0 3.1351e-16 0 1.44445e-33
200 7 0.001 0 0 0.043 0 0 0 0 1.44445e-33
201 7 0.001 0 0 0.044 0 0 3.1351e-16 0 1.44445e-33
103 6 0.001 -0.005 0 0.045 0 0 -5.29772e-14 0 1.63223e-31
202 7 0.001 0 0 0.045 0 0 -5.29772e-14 0 1.63223e-31
104 6 0.001 -0.005 0 0.046 0 0 5.29772e-14 0 1.63223e-31
105 6 0.001 -0.005 0 0.047 0 0 -3.1351e-16 0 1.44445e-33
203 7 0.001 0 0 0.046 0 0 5.29772e-14 0 1.63223e-31
204 7 0.001 0 0 0.047 0 0 -3.1351e-16 0 1.44445e-33
106 6 0.001 -0.005 0 0.048 0 0 0 0 1.44445e-33
205 7 0.001 0 0 0.048 0 0 0 0 1.44445e-33
3 3 0.001 -0.005 0 0.05 0 0 -3.33067e-15 0 7.22224e-34
107 6 0.001 -0.005 0 0.049 0 0 0 0 1.44445e-33
207 8 0.001 -0.004 0 0.05 0 0 0 0 0
208 8 0.001 -0.003 0 0.05 1.97884e-15 0 0 0 1.80556e-34
209 8 0.001 -0.002 0 0.05 -3.64418e-15 0 0 0 3.61112e-34
210 8 0.001 -0.001 0 0.05 1.66533e-15 0 0 0 1.80556e-34
4 4 0.001 0 0 0.05 0 0 -3.33067e-15 0 7.22224e-34
206 7 0.001 0 0 0.049 0 0 0 0 1.44445e-33
