ITEM: TIMESTEP
4
ITEM: NUMBER OF ATOMS
1472
ITEM: BOX BOUNDS ff ff ff
-6.0000000000000005e-02 6.0000000000000005e-02
-6.0000000000000001e-03 6.0000000000000001e-03
-5.5000000000000000e-02 5.5000000000000000e-02
ITEM: ATOMS id type radius x y z fx fy fz c_bendingE c_stretchingE
1 1 0.001 -0.0501661 2.49087e-05 -0.0500175 8.8317 -10.7081 16.8089 0 4.27945e-05
13 13 0.001 -0.0500852 0.000863863 -0.0494855 -26.8681 16.1353 -52.3791 0 6.7442e-06
433 15 0.001 -0.0490497 3.59785e-08 -0.0499952 -1.35419 2.05648 -6.25821 0 4.30987e-05
434 15 0.001 -0.0481002 1.03607e-06 -0.0500105 0.099644 -2.34399 7.56529 0 3.97111e-06
435 15 0.001 -0.0471436 8.26545e-08 -0.0499995 0.00710503 0.364932 -1.67744 0 3.52077e-06
436 15 0.001 -0.046189 -1.26346e-06 -0.0499914 -0.0723032 0.844495 -4.21442 0 4.14754e-06
437 15 0.001 -0.0452397 4.55227e-07 -0.0500041 0.0617707 -0.806401 6.209 0 4.21898e-06
438 15 0.001 -0.0442859 6.80118e-08 -0.0499999 0.0107615 0.449768 -4.80716 0 3.85187e-06
439 15 0.001 -0.0433325 0 -0.05 -0.0168503 -0.0160601 1.93956 0 4.07866e-06
440 15 0.001 -0.0423813 0 -0.05 0.0148386 -0.0578544 -0.310037 0 4.10268e-06
441 15 0.001 -0.0414283 0 -0.05 0.0373185 0 0 0 4.00451e-06
442 15 0.001 -0.040476 0 -0.05 -0.0491405 0 0 0 4.13734e-06
443 15 0.001 -0.0395244 0 -0.05 0.00713068 0 0 0 4.11901e-06
444 15 0.001 -0.0385719 0 -0.05 0.0267037 0 0 0 3.962e-06
445 15 0.001 -0.0376186 0 -0.05 0.0168999 0.243421 -0.878103 0 3.93973e-06
446 15 0.001 -0.0366658 0 -0.05 -0.065734 -1.23426 4.84064 0 4.19432e-06
447 15 0.001 -0.0357153 -4.55558e-07 -0.0499985 -0.0657628 3.06219 -13.0155 0 4.09349e-06
448 15 0.001 -0.0347614 2.05527e-06 -0.0500084 -0.333901 -5.08143 22.5934 0 3.88803e-06
449 15 0.001 -0.0338091 -4.15503e-06 -0.0499799 -0.177558 6.46583 -28.1892 0 3.67824e-06
450 15 0.001 -0.0328533 4.10556e-06 -0.0500192 0.209139 -6.27369 26.9284 0 4.48147e-06
451 15 0.001 -0.0319087 -2.41292e-06 -0.0499953 0.345438 3.39119 -17.771 0 5.02335e-06
223 14 0.001 -0.0300858 0.000863682 -0.0494848 -26.6666 16.0967 -52.2647 0 6.63813e-06
452 15 0.001 -0.0309585 1.66835e-06 -0.0499995 -0.871795 -0.103932 6.03184 0 4.10638e-05
3 3 0.001 -0.0301226 2.18573e-05 -0.0500163 10.0327 -11.045 16.9872 0 6.13096e-05
683 18 0.001 -0.0290488 2.55782e-07 -0.0499947 -1.0307 1.9256 -6.80125 0 2.28704e-05
684 18 0.001 -0.0280999 1.05745e-06 -0.0500116 0.116543 -1.9328 7.90377 0 3.99443e-06
685 18 0.001 -0.0271428 1.71572e-07 -0.0499995 -0.0199144 -0.154717 -1.58663 0 3.74749e-06
686 18 0.001 -0.0261912 -1.57101e-06 -0.0499905 -0.0249197 1.2129 -4.62723 0 4.06547e-06
687 18 0.001 -0.0252383 5.92254e-07 -0.0500045 0.0338852 -1.05139 6.7896 0 3.92639e-06
688 18 0.001 -0.0242851 6.89507e-08 -0.0499999 0.0037471 0.604349 -5.26372 0 4.05902e-06
689 18 0.001 -0.0233335 0 -0.05 0.00810405 -0.0559642 2.12099 0 4.11614e-06
690 18 0.001 -0.022381 0 -0.05 0.0278643 -0.0596934 -0.338295 0 3.96027e-06
691 18 0.001 -0.0214277 0 -0.05 -0.0399574 0 0 0 4.09947e-06
692 18 0.001 -0.0204767 0 -0.05 -0.0260309 0 0 0 4.1058e-06
693 18 0.001 -0.0195234 0 -0.05 0.042645 0 0 0 4.16916e-06
694 18 0.001 -0.0185731 0 -0.05 0.0416464 0 0 0 3.97634e-06
695 18 0.001 -0.0176174 0 -0.05 -0.0232611 0.244005 -0.878608 0 3.99265e-06
696 18 0.001 -0.0166673 0 -0.05 -0.024648 -1.23191 4.82023 0 4.19071e-06
697 18 0.001 -0.0157141 -4.56417e-07 -0.0499985 -0.100129 3.06312 -12.9892 0 4.00342e-06
698 18 0.001 -0.014762 2.05125e-06 -0.0500083 -0.320192 -5.07759 22.5188 0 4.0705e-06
699 18 0.001 -0.01381 -4.15458e-06 -0.04998 -0.193269 6.4518 -28.0323 0 3.90896e-06
700 18 0.001 -0.0128567 4.08555e-06 -0.0500191 0.335516 -6.24314 26.5593 0 3.54056e-06
701 18 0.001 -0.0119 -2.4001e-06 -0.0499954 0.132398 3.4182 -17.4816 0 5.48444e-06
702 18 0.001 -0.0109628 1.68759e-06 -0.0499995 -0.750555 -0.185206 5.99988 0 4.13706e-05
5 5 0.001 -0.0101246 2.18043e-05 -0.0500162 9.97176 -11.013 16.9784 0 5.88789e-05
473 17 0.001 -0.0100858 0.000863701 -0.0494848 -26.6808 16.0843 -52.2521 0 6.64658e-06
933 21 0.001 -0.00905372 2.51713e-07 -0.0499947 -0.97007 1.91797 -6.75151 0 2.13014e-05
934 21 0.001 -0.00810021 1.06249e-06 -0.0500116 0.119882 -1.90896 7.83514 0 3.26645e-06
935 21 0.001 -0.00713804 1.73904e-07 -0.0499995 -0.0870515 -0.189386 -1.55117 0 3.76859e-06
936 21 0.001 -0.00618978 -1.57522e-06 -0.0499905 -0.010383 1.23386 -4.65015 0 4.52005e-06
937 21 0.001 -0.00523831 5.9291e-07 -0.0500045 0.0404248 -1.05673 6.81327 0 4.11347e-06
938 21 0.001 -0.00428577 6.91588e-08 -0.0499999 0.0169404 0.60708 -5.27497 0 4.0265e-06
939 21 0.001 -0.00333323 0 -0.05 -0.00702934 -0.0560818 2.12193 0 4.1084e-06
940 21 0.001 -0.0023816 0 -0.05 -0.00487081 -0.0598781 -0.338689 0 4.00395e-06
941 21 0.001 -0.00142782 0 -0.05 0.0327211 0 0 0 3.93524e-06
942 21 0.001 -0.000475432 0 -0.05 -0.0126244 0 0 0 4.20039e-06
943 21 0.001 0.000475354 0 -0.05 -0.0104396 0 0 0 4.21437e-06
944 21 0.001 0.00142759 0 -0.05 0.0340533 0 0 0 3.92788e-06
945 21 0.001 0.00238162 0 -0.05 -0.0152389 -7.56403e-05 0.00878655 0 3.94038e-06
946 21 0.001 0.00333372 0 -0.05 -0.0150175 0.000176255 -0.0253172 0 4.05156e-06
947 21 0.001 0.00428643 -3.124e-10 -0.05 -0.0151842 5.35071e-05 0.0339503 0 4.17167e-06
948 21 0.001 0.00523722 7.87941e-10 -0.0500001 0.0169349 -0.00094996 -0.0784393 0 4.15244e-06
949 21 0.001 0.00619016 -8.86108e-10 -0.05 0.000273812 0.00170054 0.20181 0 3.95473e-06
950 21 0.001 0.00714314 7.60911e-10 -0.0499997 -0.00862942 -0.00102309 -0.335203 0 4.04678e-06
951 21 0.001 0.00809503 4.62502e-10 -0.0500004 0.00645372 -0.000530673 0.38302 0 4.06993e-06
7 7 0.001 0.01 0 -0.05 7.93446 -7.60823 15.0296 0 7.34551e-06
723 20 0.001 0.00990875 0.000866627 -0.0494924 -23.0193 13.4589 -44.6562 0 7.62474e-06
952 21 0.001 0.00904774 -1.72917e-09 -0.0499998 -0.00348963 0.00112888 -0.272433 0 4.03752e-06
1183 24 0.001 0.0109523 7.49012e-10 -0.05 -0.000146435 5.46013e-05 -0.00350344 0 4.07317e-06
1184 24 0.001 0.0119046 6.80052e-10 -0.0500001 0.00665596 -0.000175959 -0.0323735 0 4.00128e-06
1185 24 0.001 0.0128577 -6.31612e-10 -0.0500001 -0.00598365 0.000567518 0.0800738 0 3.99358e-06
1186 24 0.001 0.01381 1.08472e-10 -0.0499998 -0.0106729 -0.000539922 -0.0970079 0 4.18277e-06
1187 24 0.001 0.014761 -2.51024e-10 -0.0500001 0.020673 0.000104738 0.0916172 0 4.0738e-06
1188 24 0.001 0.0157147 1.01165e-10 -0.05 -0.0117003 0.000148628 -0.0463229 0 3.96976e-06
1189 24 0.001 0.0166668 0 -0.05 0.0161468 -0.000154794 -0.00458116 0 4.14531e-06
1190 24 0.001 0.0176184 0 -0.05 0.0170345 5.28218e-05 0.00851016 0 4.00387e-06
1191 24 0.001 0.0185722 0 -0.05 -0.0832544 0 0 0 4.03022e-06
1192 24 0.001 0.0195235 0 -0.05 0.0352828 0 0 0 4.09375e-06
1193 24 0.001 0.0204766 0 -0.05 0.0233097 0 0 0 4.17696e-06
1194 24 0.001 0.021427 0 -0.05 0.034807 0 0 0 4.0065e-06
1195 24 0.001 0.0223821 0 -0.05 -0.0553199 -7.5769e-05 0.00882651 0 3.9901e-06
1196 24 0.001 0.0233328 0 -0.05 0.0234971 0.000176214 -0.025406 0 4.11237e-06
1197 24 0.001 0.0242864 -3.12003e-10 -0.05 -0.0132934 5.42054e-05 0.034039 0 3.99232e-06
1198 24 0.001 0.0252383 7.88952e-10 -0.0500001 -0.00370935 -0.000956884 -0.0786685 0 4.18172e-06
1199 24 0.001 0.0261897 -8.91381e-10 -0.05 0.0167521 0.00171681 0.202059 0 4.03736e-06
1200 24 0.001 0.0271433 7.76188e-10 -0.0499997 -0.0170564 -0.00104507 -0.335503 0 4.03939e-06
1201 24 0.001 0.0280947 4.40752e-10 -0.0500004 0.0136863 -0.000507373 0.383301 0 4.07479e-06
9 9 0.001 0.03 0 -0.05 7.93465 -7.60823 15.0297 0 7.36583e-06
973 23 0.001 0.0299088 0.000866627 -0.0494924 -23.0193 13.4589 -44.6562 0 7.62474e-06
1202 24 0.001 0.0290479 -1.71737e-09 -0.0499998 -0.00798705 0.00111297 -0.272539 0 4.01047e-06
1433 27 0.001 0.0309522 7.48019e-10 -0.05 0.00320825 5.40456e-05 -0.0035748 0 4.05373e-06
1434 27 0.001 0.0319048 6.73036e-10 -0.0500001 0.000293626 -0.000176016 -0.0322321 0 4.01456e-06
1435 27 0.001 0.0328574 -6.33973e-10 -0.0500001 -0.00847514 0.00056741 0.0797549 0 4.10737e-06
1436 27 0.001 0.033809 1.12808e-10 -0.0499998 0.0110592 -0.000538933 -0.09642 0 4.07876e-06
1437 27 0.001 0.0347619 -2.47671e-10 -0.0500001 0.0037777 0.000104195 0.0910128 0 3.9134e-06
1438 27 0.001 0.0357154 9.92096e-11 -0.05 -0.0216178 0.000148149 -0.0459478 0 4.11846e-06
1439 27 0.001 0.0366661 0 -0.05 0.0351659 -0.000153943 -0.00474083 0 4.19154e-06
1440 27 0.001 0.0376187 0 -0.05 -0.00898559 5.23158e-05 0.0085293 0 3.89777e-06
1441 27 0.001 0.0385727 0 -0.05 -0.0543093 0 0 0 4.14703e-06
1442 27 0.001 0.0395226 0 -0.05 0.0329447 0 0 0 4.1427e-06
1443 27 0.001 0.0404767 0 -0.05 0.0253169 0 0 0 3.96829e-06
1444 27 0.001 0.0414284 0 -0.05 -0.0287205 0 0 0 4.10008e-06
1445 27 0.001 0.0423809 0 -0.05 0.00962785 0.206136 -0.777814 0 4.06872e-06
1446 27 0.001 0.043333 0 -0.05 -0.0013237 -1.02351 4.26525 0 4.06119e-06
1447 27 0.001 0.0442856 -3.94941e-07 -0.0499986 -0.0738172 2.48701 -11.4715 0 4.03889e-06
1448 27 0.001 0.0452379 1.69875e-06 -0.0500074 -0.242361 -4.02744 19.867 0 4.00421e-06
1449 27 0.001 0.0461906 -3.24086e-06 -0.0499824 -0.156345 5.01568 -24.7665 0 3.92387e-06
1450 27 0.001 0.0471432 3.06841e-06 -0.0500168 0.270254 -4.48892 23.6614 0 3.5884e-06
1451 27 0.001 0.0481003 -1.78205e-06 -0.0499959 0.067525 1.91509 -15.8526 0 5.41332e-06
1452 27 0.001 0.0490378 1.22115e-06 -0.0499997 -0.74423 0.337398 5.602 0 4.03889e-05
11 11 0.001 0.0498777 2.49047e-05 -0.0500193 9.20238 -10.6066 15.2077 0 3.84638e-05
1223 26 0.001 0.0499136 0.000863568 -0.0494848 -26.4814 16.3533 -52.3972 0 6.49537e-06
14 13 0.001 -0.050538 0.0017029 -0.049128 58.175 -30.4108 84.4583 0 1.35505e-05
224 14 0.001 -0.0305381 0.00170272 -0.0491277 56.3433 -30.1743 82.8612 0 1.3374e-05
474 17 0.001 -0.0105381 0.00170272 -0.0491277 56.4302 -30.1718 82.9188 0 1.33761e-05
724 20 0.001 0.00946531 0.00169875 -0.0491145 48.6778 -27.5182 73.2383 0 1.11494e-05
974 23 0.001 0.0294653 0.00169875 -0.0491145 48.6778 -27.5182 73.2383 0 1.11494e-05
1224 26 0.001 0.0494622 0.00170257 -0.0491273 56.1662 -30.4347 83.081 0 1.32993e-05
17 13 0.001 -0.0525624 0.00301465 -0.0472719 -47.2696 17.3057 -80.7957 0 0.000378126
15 13 0.001 -0.0510343 0.00226949 -0.0484144 -51.5034 6.06338 -123.866 0 6.09443e-05
16 13 0.001 -0.0520179 0.00283773 -0.0484102 64.7971 4.5586 106.373 0 0.00022966
226 14 0.001 -0.0320175 0.00283764 -0.0484097 65.0167 4.54327 106.644 0 0.000228899
227 14 0.001 -0.0325625 0.00301476 -0.0472721 -47.3981 17.3036 -80.9222 0 0.000377696
225 14 0.001 -0.0310343 0.00226977 -0.0484151 -50.4096 5.73548 -123.023 0 6.0544e-05
477 17 0.001 -0.0125625 0.00301476 -0.0472721 -47.4024 17.3057 -80.9326 0 0.000377649
475 17 0.001 -0.0110343 0.00226976 -0.0484151 -50.464 5.74501 -123.07 0 6.05359e-05
476 17 0.001 -0.0120175 0.00283764 -0.0484097 65.0214 4.54023 106.651 0 0.000228866
727 20 0.001 0.0074323 0.00301566 -0.0472865 -52.0848 18.0103 -90.0903 0 0.00033905
725 20 0.001 0.00895784 0.00227217 -0.0484273 -48.0198 3.75415 -124.883 0 4.91706e-05
726 20 0.001 0.00799059 0.00283526 -0.0483954 71.6613 3.08713 115.079 0 0.000197586
976 23 0.001 0.0279906 0.00283526 -0.0483954 71.6613 3.08713 115.079 0 0.000197586
977 23 0.001 0.0274323 0.00301566 -0.0472865 -52.0848 18.0103 -90.0903 0 0.00033905
975 23 0.001 0.0289578 0.00227217 -0.0484273 -48.0198 3.75415 -124.883 0 4.91706e-05
1227 26 0.001 0.0474376 0.00301474 -0.0472718 -47.3122 17.2651 -80.7437 0 0.000378469
1225 26 0.001 0.0489659 0.00226997 -0.0484152 -50.355 5.80903 -123.071 0 6.06557e-05
1226 26 0.001 0.0479823 0.00283767 -0.04841 64.9242 4.60696 106.522 0 0.000229491
19 13 0.001 -0.0543641 0.00264174 -0.0464377 -83.5196 -14.1099 -144.167 0 0.000112613
20 13 0.001 -0.0552374 0.00202229 -0.0463411 62.2689 36.5488 178.625 0 2.80316e-05
18 13 0.001 -0.0538357 0.00290636 -0.0474699 58.8423 20.8235 91.8483 0 0.000292432
230 14 0.001 -0.0352374 0.00202229 -0.0463411 62.266 36.545 178.614 0 2.80438e-05
228 14 0.001 -0.0338358 0.00290633 -0.0474701 58.8129 20.8407 91.8445 0 0.000292573
229 14 0.001 -0.0343641 0.00264174 -0.0464376 -83.4852 -14.1016 -144.121 0 0.000112726
480 17 0.001 -0.0152374 0.00202229 -0.0463411 62.2659 36.5456 178.614 0 2.80431e-05
478 17 0.001 -0.0138358 0.00290633 -0.0474701 58.8157 20.8414 91.854 0 0.000292544
479 17 0.001 -0.0143641 0.00264174 -0.0464376 -83.4885 -14.1033 -144.125 0 0.000112718
729 20 0.001 0.00563422 0.00264195 -0.046441 -85.8864 -15.3904 -146.824 0 0.000106967
730 20 0.001 0.00476305 0.00202223 -0.0463406 62.1307 36.9727 178.91 0 2.7532e-05
728 20 0.001 0.00616976 0.00290604 -0.0474625 60.9853 21.8124 99.406 0 0.000270462
980 23 0.001 0.024763 0.00202223 -0.0463406 62.1307 36.9727 178.91 0 2.7532e-05
978 23 0.001 0.0261698 0.00290604 -0.0474625 60.9853 21.8124 99.406 0 0.000270462
979 23 0.001 0.0256342 0.00264195 -0.046441 -85.8864 -15.3904 -146.824 0 0.000106967
1230 26 0.001 0.0447626 0.00202229 -0.0463411 62.2685 36.5373 178.608 0 2.80527e-05
1228 26 0.001 0.0461641 0.00290634 -0.0474702 58.7746 20.8304 91.7001 0 0.00029299
1229 26 0.001 0.0456359 0.00264174 -0.0464375 -83.441 -14.0787 -144.073 0 0.00011283
23 13 0.001 -0.055972 -0.000399422 -0.0447843 -4.9645 -12.3138 -22.5365 0 6.57295e-06
233 14 0.001 -0.035972 -0.000399422 -0.0447843 -4.96501 -12.3141 -22.537 0 6.57295e-06
483 17 0.001 -0.015972 -0.000399422 -0.0447843 -4.96498 -12.314 -22.5369 0 6.57295e-06
733 20 0.001 0.00402805 -0.000399422 -0.0447843 -4.94299 -12.3028 -22.5161 0 6.57295e-06
983 23 0.001 0.024028 -0.000399422 -0.0447843 -4.94299 -12.3028 -22.5161 0 6.57295e-06
1233 26 0.001 0.044028 -0.000399422 -0.0447843 -4.96538 -12.3142 -22.5373 0 6.57295e-06
21 13 0.001 -0.0556664 0.00135766 -0.0456802 -61.0691 -66.5111 -130.861 0 1.05976e-05
22 13 0.001 -0.0559636 0.000482729 -0.0452743 23.8072 29.4874 73.5751 0 6.72789e-06
231 14 0.001 -0.0356664 0.00135766 -0.0456802 -61.0771 -66.5162 -130.872 0 1.05986e-05
232 14 0.001 -0.0359636 0.000482729 -0.0452743 23.8102 29.4892 73.5809 0 6.7279e-06
481 17 0.001 -0.0156664 0.00135766 -0.0456802 -61.0766 -66.5159 -130.871 0 1.05985e-05
482 17 0.001 -0.0159636 0.000482729 -0.0452743 23.8101 29.4891 73.5806 0 6.7279e-06
731 20 0.001 0.00433356 0.00135763 -0.0456802 -60.6678 -66.3271 -130.407 0 1.05543e-05
732 20 0.001 0.00403645 0.000482729 -0.0452743 23.6812 29.4118 73.332 0 6.72733e-06
981 23 0.001 0.0243336 0.00135763 -0.0456802 -60.6678 -66.3271 -130.407 0 1.05543e-05
982 23 0.001 0.0240364 0.000482729 -0.0452743 23.6812 29.4118 73.332 0 6.72733e-06
1231 26 0.001 0.0443336 0.00135766 -0.0456802 -61.0842 -66.5193 -130.879 0 1.05994e-05
1232 26 0.001 0.0440364 0.000482729 -0.0452743 23.8125 29.4905 73.5852 0 6.72791e-06
25 13 0.001 -0.0552358 -0.00199911 -0.0438389 0.160608 -0.534274 -1.00218 0 6.46119e-06
26 13 0.001 -0.0545509 -0.00256712 -0.0433649 -0.0277594 0.078111 0.127455 0 6.45891e-06
235 14 0.001 -0.0352358 -0.00199911 -0.0438389 0.160608 -0.534274 -1.00218 0 6.46119e-06
236 14 0.001 -0.0345509 -0.00256712 -0.0433649 -0.0277594 0.078111 0.127455 0 6.45891e-06
485 17 0.001 -0.0152358 -0.00199911 -0.0438389 0.160608 -0.534274 -1.00218 0 6.46119e-06
486 17 0.001 -0.0145509 -0.00256712 -0.0433649 -0.0277594 0.078111 0.127455 0 6.45891e-06
735 20 0.001 0.00476419 -0.00199911 -0.0438389 0.160608 -0.534274 -1.00218 0 6.46119e-06
736 20 0.001 0.00544913 -0.00256712 -0.0433649 -0.0277594 0.078111 0.127455 0 6.45891e-06
985 23 0.001 0.0247642 -0.00199911 -0.0438389 0.160608 -0.534274 -1.00218 0 6.46119e-06
986 23 0.001 0.0254491 -0.00256712 -0.0433649 -0.0277594 0.078111 0.127455 0 6.45891e-06
1235 26 0.001 0.0447642 -0.00199911 -0.0438389 0.160608 -0.534274 -1.00218 0 6.46119e-06
1236 26 0.001 0.0454491 -0.00256712 -0.0433649 -0.0277594 0.078111 0.127455 0 6.45891e-06
24 13 0.001 -0.055724 -0.00125528 -0.044313 -0.524159 3.0736 5.78657 0 6.44411e-06
234 14 0.001 -0.035724 -0.00125528 -0.044313 -0.524167 3.07361 5.7866 0 6.44411e-06
484 17 0.001 -0.015724 -0.00125528 -0.044313 -0.524167 3.07361 5.7866 0 6.44411e-06
734 20 0.001 0.00427603 -0.00125528 -0.044313 -0.523781 3.07285 5.78502 0 6.44411e-06
984 23 0.001 0.024276 -0.00125528 -0.044313 -0.523781 3.07285 5.78502 0 6.44411e-06
1234 26 0.001 0.044276 -0.00125528 -0.044313 -0.524174 3.07362 5.78663 0 6.44411e-06
27 13 0.001 -0.0537294 -0.00290917 -0.042891 0.00895538 0.0155227 -0.00987272 0 6.45904e-06
28 13 0.001 -0.0528438 -0.00299515 -0.0424171 -0.00123466 0.0201373 0.000374423 0 6.45904e-06
29 13 0.001 -0.0519719 -0.00281749 -0.0419431 -0.00687549 0.0188418 -1.097e-10 0 6.45904e-06
30 13 0.001 -0.0511905 -0.00239184 -0.0414692 -0.0121011 0.0159953 -4.06915e-10 0 6.45904e-06
237 14 0.001 -0.0337294 -0.00290917 -0.042891 0.00895538 0.0155227 -0.00987272 0 6.45904e-06
238 14 0.001 -0.0328438 -0.00299515 -0.0424171 -0.00123466 0.0201373 0.000374423 0 6.45904e-06
239 14 0.001 -0.0319719 -0.00281749 -0.0419431 -0.00687549 0.0188418 -1.52793e-10 0 6.45904e-06
240 14 0.001 -0.0311905 -0.00239184 -0.0414692 -0.0121011 0.0159953 -1.84829e-10 0 6.45904e-06
487 17 0.001 -0.0137294 -0.00290917 -0.042891 0.00895538 0.0155227 -0.00987272 0 6.45904e-06
488 17 0.001 -0.0128438 -0.00299515 -0.0424171 -0.00123466 0.0201373 0.000374422 0 6.45904e-06
489 17 0.001 -0.0119719 -0.00281749 -0.0419431 -0.00687549 0.0188418 1.41732e-09 0 6.45904e-06
490 17 0.001 -0.0111905 -0.00239184 -0.0414692 -0.0121011 0.0159953 -1.81267e-09 0 6.45904e-06
737 20 0.001 0.00627057 -0.00290917 -0.042891 0.00895538 0.0155227 -0.00987272 0 6.45904e-06
738 20 0.001 0.00715622 -0.00299515 -0.0424171 -0.00123466 0.0201373 0.000374421 0 6.45904e-06
739 20 0.001 0.00802812 -0.00281749 -0.0419431 -0.00687549 0.0188418 1.95245e-09 0 6.45904e-06
740 20 0.001 0.00880953 -0.00239184 -0.0414692 -0.0121011 0.0159953 -2.14756e-09 0 6.45904e-06
987 23 0.001 0.0262706 -0.00290917 -0.042891 0.00895538 0.0155227 -0.00987272 0 6.45904e-06
988 23 0.001 0.0271562 -0.00299515 -0.0424171 -0.00123466 0.0201373 0.000374422 0 6.45904e-06
989 23 0.001 0.0280281 -0.00281749 -0.0419431 -0.00687549 0.0188418 1.54077e-09 0 6.45904e-06
990 23 0.001 0.0288095 -0.00239184 -0.0414692 -0.0121011 0.0159953 -2.30021e-09 0 6.45904e-06
1237 26 0.001 0.0462706 -0.00290917 -0.042891 0.00895538 0.0155227 -0.00987272 0 6.45904e-06
1238 26 0.001 0.0471562 -0.00299515 -0.0424171 -0.00123466 0.0201373 0.000374423 0 6.45904e-06
1239 26 0.001 0.0480281 -0.00281749 -0.0419431 -0.00687549 0.0188418 -1.097e-10 0 6.45904e-06
1240 26 0.001 0.0488095 -0.00239184 -0.0414692 -0.0121011 0.0159953 -4.06915e-10 0 6.45904e-06
31 13 0.001 -0.0505683 -0.00175566 -0.0409953 -0.0162615 0.0117409 9.96805e-10 0 6.45904e-06
241 14 0.001 -0.0305683 -0.00175566 -0.0409953 -0.0162615 0.0117409 7.53811e-10 0 6.45904e-06
491 17 0.001 -0.0105683 -0.00175566 -0.0409953 -0.0162615 0.0117409 2.04708e-09 0 6.45904e-06
741 20 0.001 0.00943166 -0.00175566 -0.0409953 -0.0162615 0.0117409 2.21921e-09 0 6.45904e-06
991 23 0.001 0.0294317 -0.00175566 -0.0409953 -0.0162615 0.0117409 2.8577e-09 0 6.45904e-06
1241 26 0.001 0.0494317 -0.00175566 -0.0409953 -0.0162615 0.0117409 9.96805e-10 0 6.45904e-06
32 13 0.001 -0.0501602 -0.000964948 -0.0405213 -0.0189906 0.00645301 -1.6099e-09 0 6.45904e-06
33 13 0.001 -0.0500021 -8.92979e-05 -0.0400474 -0.0200481 0.000597171 2.16734e-09 0 6.45904e-06
242 14 0.001 -0.0301602 -0.000964948 -0.0405213 -0.0189906 0.00645301 -1.43824e-09 0 6.45904e-06
243 14 0.001 -0.0300021 -8.92979e-05 -0.0400474 -0.0200481 0.000597171 2.068e-09 0 6.45904e-06
492 17 0.001 -0.0101602 -0.000964948 -0.0405213 -0.0189906 0.00645301 -2.0916e-09 0 6.45904e-06
493 17 0.001 -0.0100021 -8.92979e-05 -0.0400474 -0.0200481 0.000597171 1.93028e-09 0 6.45904e-06
742 20 0.001 0.00983975 -0.000964948 -0.0405213 -0.0189906 0.00645301 -2.16038e-09 0 6.45904e-06
743 20 0.001 0.00999789 -8.92979e-05 -0.0400474 -0.0200481 0.000597171 1.95104e-09 0 6.45904e-06
992 23 0.001 0.0298398 -0.000964948 -0.0405213 -0.0189906 0.00645301 -3.12444e-09 0 6.45904e-06
993 23 0.001 0.0299979 -8.92979e-05 -0.0400474 -0.0200481 0.000597171 3.06677e-09 0 6.45904e-06
1242 26 0.001 0.0498398 -0.000964948 -0.0405213 -0.0189906 0.00645301 -1.6099e-09 0 6.45904e-06
1243 26 0.001 0.0499979 -8.92979e-05 -0.0400474 -0.0200481 0.000597171 2.16734e-09 0 6.45904e-06
34 13 0.001 -0.0501078 0.000794213 -0.0395735 -0.019341 -0.00531123 -2.57054e-09 0 6.45904e-06
244 14 0.001 -0.0301078 0.000794213 -0.0395735 -0.019341 -0.00531123 -2.46242e-09 0 6.45904e-06
494 17 0.001 -0.0101078 0.000794213 -0.0395735 -0.019341 -0.00531123 -1.56255e-09 0 6.45904e-06
744 20 0.001 0.00989215 0.000794213 -0.0395735 -0.019341 -0.00531123 -1.57085e-09 0 6.45904e-06
994 23 0.001 0.0298922 0.000794213 -0.0395735 -0.019341 -0.00531123 -2.70361e-09 0 6.45904e-06
1244 26 0.001 0.0498922 0.000794213 -0.0395735 -0.019341 -0.00531123 -2.57054e-09 0 6.45904e-06
36 13 0.001 -0.0510513 0.0022799 -0.0386256 -0.0130317 -0.0152466 -2.55899e-09 0 6.45904e-06
35 13 0.001 -0.0504682 0.00160782 -0.0390995 -0.0169315 -0.0107521 2.72339e-09 0 6.45904e-06
245 14 0.001 -0.0304682 0.00160782 -0.0390995 -0.0169315 -0.0107521 2.48238e-09 0 6.45904e-06
246 14 0.001 -0.0310513 0.0022799 -0.0386256 -0.0130317 -0.0152466 -2.07784e-09 0 6.45904e-06
496 17 0.001 -0.0110513 0.0022799 -0.0386256 -0.0130317 -0.0152466 -3.19317e-10 0 6.45904e-06
495 17 0.001 -0.0104682 0.00160782 -0.0390995 -0.0169315 -0.0107521 1.00928e-09 0 6.45904e-06
746 20 0.001 0.00894869 0.0022799 -0.0386256 -0.0130317 -0.0152466 -3.52922e-10 0 6.45904e-06
745 20 0.001 0.00953185 0.00160782 -0.0390995 -0.0169315 -0.0107521 1.02349e-09 0 6.45904e-06
995 23 0.001 0.0295318 0.00160782 -0.0390995 -0.0169315 -0.0107521 2.09184e-09 0 6.45904e-06
996 23 0.001 0.0289487 0.0022799 -0.0386256 -0.0130317 -0.0152466 -1.31167e-09 0 6.45904e-06
1246 26 0.001 0.0489487 0.0022799 -0.0386256 -0.0130317 -0.0152466 -2.55899e-09 0 6.45904e-06
1245 26 0.001 0.0495318 0.00160782 -0.0390995 -0.0169315 -0.0107521 2.72339e-09 0 6.45904e-06
38 13 0.001 -0.0526658 0.00298054 -0.0376777 -0.00223508 -0.0199321 -1.2983e-09 0 6.45904e-06
39 13 0.001 -0.053555 0.00294743 -0.0372038 0.00371137 -0.0197107 3.74277e-10 0 6.45904e-06
37 13 0.001 -0.051806 0.0027513 -0.0381517 -0.00798478 -0.0183991 2.06518e-09 0 6.45904e-06
249 14 0.001 -0.033555 0.00294743 -0.0372038 0.00371137 -0.0197107 -6.5502e-10 0 6.45904e-06
247 14 0.001 -0.031806 0.0027513 -0.0381517 -0.00798478 -0.0183991 1.31101e-09 0 6.45904e-06
248 14 0.001 -0.0326658 0.00298054 -0.0376777 -0.00223508 -0.0199321 -3.3669e-10 0 6.45904e-06
499 17 0.001 -0.013555 0.00294743 -0.0372038 0.00371137 -0.0197107 -1.76502e-09 0 6.45904e-06
498 17 0.001 -0.0126658 0.00298054 -0.0376777 -0.00223507 -0.0199321 1.15394e-09 0 6.45904e-06
497 17 0.001 -0.011806 0.0027513 -0.0381517 -0.00798479 -0.0183991 -4.31636e-10 0 6.45904e-06
748 20 0.001 0.00733422 0.00298054 -0.0376777 -0.00223508 -0.0199321 1.04383e-09 0 6.45904e-06
749 20 0.001 0.00644502 0.00294743 -0.0372038 0.00371137 -0.0197107 -1.61409e-09 0 6.45904e-06
747 20 0.001 0.008194 0.0027513 -0.0381517 -0.00798479 -0.0183991 -3.64481e-10 0 6.45904e-06
999 23 0.001 0.026445 0.00294743 -0.0372038 0.00371137 -0.0197107 -1.09656e-09 0 6.45904e-06
997 23 0.001 0.028194 0.0027513 -0.0381517 -0.00798479 -0.0183991 4.56931e-10 0 6.45904e-06
998 23 0.001 0.0273342 0.00298054 -0.0376777 -0.00223508 -0.0199321 3.75295e-10 0 6.45904e-06
1249 26 0.001 0.046445 0.00294743 -0.0372038 0.00371137 -0.0197107 3.74277e-10 0 6.45904e-06
1248 26 0.001 0.0473342 0.00298054 -0.0376777 -0.00223508 -0.0199321 -1.2983e-09 0 6.45904e-06
1247 26 0.001 0.048194 0.0027513 -0.0381517 -0.00798478 -0.0183991 2.06518e-09 0 6.45904e-06
42 13 0.001 -0.0556444 0.00141505 -0.035782 0.0176843 -0.00946304 2.03021e-09 0 6.45904e-06
252 14 0.001 -0.0356444 0.00141505 -0.035782 0.0176843 -0.00946304 2.45568e-09 0 6.45904e-06
502 17 0.001 -0.0156444 0.00141505 -0.035782 0.0176843 -0.00946304 2.56621e-09 0 6.45904e-06
752 20 0.001 0.00435558 0.00141505 -0.035782 0.0176843 -0.00946304 2.42093e-09 0 6.45904e-06
1002 23 0.001 0.0243556 0.00141505 -0.035782 0.0176843 -0.00946304 2.13805e-09 0 6.45904e-06
1252 26 0.001 0.0443556 0.00141505 -0.035782 0.0176843 -0.00946304 2.03021e-09 0 6.45904e-06
40 13 0.001 -0.0543953 0.00265488 -0.0367299 0.00933113 -0.0177543 5.64422e-10 0 6.45904e-06
41 13 0.001 -0.0551129 0.00212865 -0.0362559 0.0141296 -0.0142352 -1.39157e-09 0 6.45904e-06
251 14 0.001 -0.0351129 0.00212865 -0.0362559 0.0141296 -0.0142352 -2.10993e-09 0 6.45904e-06
250 14 0.001 -0.0343953 0.00265488 -0.0367299 0.00933113 -0.0177543 1.50217e-09 0 6.45904e-06
501 17 0.001 -0.0151129 0.00212865 -0.0362559 0.0141296 -0.0142352 -2.47213e-09 0 6.45904e-06
500 17 0.001 -0.0143953 0.00265488 -0.0367299 0.00933113 -0.0177543 2.21011e-09 0 6.45904e-06
750 20 0.001 0.00560467 0.00265488 -0.0367299 0.00933113 -0.0177543 2.0337e-09 0 6.45904e-06
751 20 0.001 0.00488714 0.00212865 -0.0362559 0.0141296 -0.0142352 -2.29621e-09 0 6.45904e-06
1001 23 0.001 0.0248871 0.00212865 -0.0362559 0.0141296 -0.0142352 -1.98344e-09 0 6.45904e-06
1000 23 0.001 0.0256047 0.00265488 -0.0367299 0.00933113 -0.0177543 1.64147e-09 0 6.45904e-06
1251 26 0.001 0.0448871 0.00212865 -0.0362559 0.0141296 -0.0142352 -1.39157e-09 0 6.45904e-06
1250 26 0.001 0.0456047 0.00265488 -0.0367299 0.00933113 -0.0177543 5.64422e-10 0 6.45904e-06
44 13 0.001 -0.0559829 -0.000312023 -0.0348341 0.0199482 0.00208663 2.72495e-09 0 6.45904e-06
45 13 0.001 -0.0557601 -0.00117349 -0.0343602 0.018458 0.00784759 -2.87154e-09 0 6.45904e-06
254 14 0.001 -0.0359829 -0.000312023 -0.0348341 0.0199482 0.00208663 2.50393e-09 0 6.45904e-06
255 14 0.001 -0.0357601 -0.00117349 -0.0343602 0.018458 0.00784759 -2.32023e-09 0 6.45904e-06
504 17 0.001 -0.0159829 -0.000312023 -0.0348341 0.0199482 0.00208663 2.38642e-09 0 6.45904e-06
505 17 0.001 -0.0157601 -0.00117349 -0.0343602 0.018458 0.00784759 -2.18301e-09 0 6.45904e-06
754 20 0.001 0.00401706 -0.000312023 -0.0348341 0.0199482 0.00208663 2.35842e-09 0 6.45904e-06
755 20 0.001 0.00423988 -0.00117349 -0.0343602 0.018458 0.00784759 -2.2077e-09 0 6.45904e-06
1004 23 0.001 0.0240171 -0.000312023 -0.0348341 0.0199482 0.00208663 2.06074e-09 0 6.45904e-06
1005 23 0.001 0.0242399 -0.00117349 -0.0343602 0.018458 0.00784759 -1.91731e-09 0 6.45904e-06
1254 26 0.001 0.0440171 -0.000312023 -0.0348341 0.0199482 0.00208663 2.72495e-09 0 6.45904e-06
1255 26 0.001 0.0442399 -0.00117349 -0.0343602 0.018458 0.00784759 -2.87154e-09 0 6.45904e-06
43 13 0.001 -0.0559432 0.000576904 -0.0353081 0.0196825 -0.003858 -2.46369e-09 0 6.45904e-06
253 14 0.001 -0.0359432 0.000576904 -0.0353081 0.0196825 -0.003858 -2.56884e-09 0 6.45904e-06
503 17 0.001 -0.0159432 0.000576904 -0.0353081 0.0196825 -0.003858 -2.52535e-09 0 6.45904e-06
753 20 0.001 0.00405679 0.000576904 -0.0353081 0.0196825 -0.003858 -2.43463e-09 0 6.45904e-06
1003 23 0.001 0.0240568 0.000576904 -0.0353081 0.0196825 -0.003858 -2.14771e-09 0 6.45904e-06
1253 26 0.001 0.0440568 0.000576904 -0.0353081 0.0196825 -0.003858 -2.46369e-09 0 6.45904e-06
46 13 0.001 -0.0552943 -0.00193166 -0.0338863 0.0153432 0.0129178 2.95681e-09 0 6.45904e-06
47 13 0.001 -0.0546266 -0.00251981 -0.0334123 0.0108779 0.016851 -3.01001e-09 0 6.45904e-06
48 13 0.001 -0.0538157 -0.00288616 -0.0329384 0.00545506 0.0193009 3.03056e-09 0 6.45904e-06
49 13 0.001 -0.052933 -0.00299847 -0.0324645 -0.000447907 0.020052 -2.99243e-09 0 6.45904e-06
256 14 0.001 -0.0352943 -0.00193166 -0.0338863 0.0153432 0.0129178 2.07012e-09 0 6.45904e-06
257 14 0.001 -0.0346266 -0.00251981 -0.0334123 0.0108779 0.016851 -1.79744e-09 0 6.45904e-06
258 14 0.001 -0.0338157 -0.00288616 -0.0329384 0.00545506 0.0193009 1.53967e-09 0 6.45904e-06
259 14 0.001 -0.032933 -0.00299847 -0.0324645 -0.000447908 0.020052 -1.32337e-09 0 6.45904e-06
506 17 0.001 -0.0152943 -0.00193166 -0.0338863 0.0153432 0.0129178 1.94597e-09 0 6.45904e-06
507 17 0.001 -0.0146266 -0.00251981 -0.0334123 0.0108779 0.016851 -1.70564e-09 0 6.45904e-06
508 17 0.001 -0.0138157 -0.00288616 -0.0329384 0.00545506 0.0193009 1.48945e-09 0 6.45904e-06
509 17 0.001 -0.012933 -0.00299847 -0.0324645 -0.000447908 0.020052 -1.31453e-09 0 6.45904e-06
756 20 0.001 0.00470566 -0.00193166 -0.0338863 0.0153432 0.0129178 2.00072e-09 0 6.45904e-06
757 20 0.001 0.00537338 -0.00251981 -0.0334123 0.0108779 0.016851 -1.76476e-09 0 6.45904e-06
758 20 0.001 0.00618428 -0.00288616 -0.0329384 0.00545506 0.0193009 1.53269e-09 0 6.45904e-06
759 20 0.001 0.00706698 -0.00299847 -0.0324645 -0.000447908 0.020052 -1.33162e-09 0 6.45904e-06
1006 23 0.001 0.0247057 -0.00193166 -0.0338863 0.0153432 0.0129178 1.74469e-09 0 6.45904e-06
1007 23 0.001 0.0253734 -0.00251981 -0.0334123 0.0108779 0.016851 -1.56073e-09 0 6.45904e-06
1008 23 0.001 0.0261843 -0.00288616 -0.0329384 0.00545506 0.0193009 1.3805e-09 0 6.45904e-06
1009 23 0.001 0.027067 -0.00299847 -0.0324645 -0.000447908 0.020052 -1.21923e-09 0 6.45904e-06
1256 26 0.001 0.0447057 -0.00193166 -0.0338863 0.0153432 0.0129178 2.95681e-09 0 6.45904e-06
1257 26 0.001 0.0453734 -0.00251981 -0.0334123 0.0108779 0.016851 -3.01001e-09 0 6.45904e-06
1258 26 0.001 0.0461843 -0.00288616 -0.0329384 0.00545506 0.0193009 3.03056e-09 0 6.45904e-06
1259 26 0.001 0.047067 -0.00299847 -0.0324645 -0.000447907 0.020052 -2.99243e-09 0 6.45904e-06
50 13 0.001 -0.0520562 -0.00284686 -0.0319905 -0.00631146 0.0190381 2.85511e-09 0 6.45904e-06
51 13 0.001 -0.0512625 -0.00244466 -0.0315166 -0.0116195 0.0163485 -2.57951e-09 0 6.45904e-06
52 13 0.001 -0.0506217 -0.00182728 -0.0310427 -0.0159047 0.0122198 2.14415e-09 0 6.45904e-06
260 14 0.001 -0.0320562 -0.00284686 -0.0319905 -0.00631146 0.0190381 1.15503e-09 0 6.45904e-06
261 14 0.001 -0.0312625 -0.00244466 -0.0315166 -0.0116195 0.0163485 -1.01807e-09 0 6.45904e-06
262 14 0.001 -0.0306217 -0.00182728 -0.0310427 -0.0159047 0.0122198 8.80201e-10 0 6.45904e-06
510 17 0.001 -0.0120562 -0.00284686 -0.0319905 -0.00631146 0.0190381 1.1807e-09 0 6.45904e-06
511 17 0.001 -0.0112625 -0.00244466 -0.0315166 -0.0116195 0.0163485 -1.06872e-09 0 6.45904e-06
512 17 0.001 -0.0106217 -0.00182728 -0.0310427 -0.0159047 0.0122198 9.44838e-10 0 6.45904e-06
760 20 0.001 0.00794378 -0.00284686 -0.0319905 -0.00631146 0.0190381 1.17113e-09 0 6.45904e-06