ITEM: TIMESTEP
2
ITEM: NUMBER OF ATOMS
1472
ITEM: BOX BOUNDS ff ff ff
-6.0000000000000005e-02 6.0000000000000005e-02
-6.0000000000000001e-03 6.0000000000000001e-03
-5.5000000000000000e-02 5.5000000000000000e-02
ITEM: ATOMS id type radius x y z fx fy fz c_bendingE c_stretchingE
1 1 0.001 -0.0500404 7.89447e-07 -0.0499932 -0.843017 -0.514327 1.21341 0 4.1252e-06
13 13 0.001 -0.0501224 0.000881092 -0.0495253 0.601715 1.86122 -3.20312 0 5.97599e-06
433 15 0.001 -0.0490459 1.95884e-07 -0.0500005 -0.361779 -0.130569 0.663334 0 4.18876e-06
434 15 0.001 -0.0480972 -9.71925e-08 -0.0499998 0.0435442 0.210121 -1.20032 0 4.25882e-06
435 15 0.001 -0.047143 0 -0.05 -0.0193061 -0.089509 0.561122 0 3.84113e-06
436 15 0.001 -0.0461899 0 -0.05 0.0293817 -0.0049515 0.0125253 0 4.09753e-06
437 15 0.001 -0.0452387 0 -0.05 -0.0192377 0 0 0 4.10944e-06
438 15 0.001 -0.0442857 0 -0.05 -0.00285033 0 0 0 3.98335e-06
439 15 0.001 -0.0433331 0 -0.05 0.0197311 0 0 0 4.03803e-06
440 15 0.001 -0.0423808 0 -0.05 -0.0697496 0 0 0 4.10976e-06
441 15 0.001 -0.041429 0 -0.05 0.0978995 0 0 0 4.03959e-06
442 15 0.001 -0.0404758 0 -0.05 -0.0760659 0 0 0 4.03959e-06
443 15 0.001 -0.039524 0 -0.05 -0.017547 0 0 0 4.10976e-06
444 15 0.001 -0.0385716 0 -0.05 0.0239172 0 0 0 4.03803e-06
445 15 0.001 -0.037619 0 -0.05 0.0464709 0 0 0 3.98334e-06
446 15 0.001 -0.0366661 0 -0.05 -0.0570661 0 0 0 4.10407e-06
447 15 0.001 -0.0357148 0 -0.05 -0.00906833 0 0 0 4.11186e-06
448 15 0.001 -0.0347619 0 -0.05 0.0535931 0 0 0 3.98581e-06
449 15 0.001 -0.0338092 0 -0.05 -0.0173395 0.0213352 -0.0544851 0 3.93967e-06
450 15 0.001 -0.0328558 0 -0.05 -0.0183152 -0.166806 0.796721 0 4.22118e-06
451 15 0.001 -0.0319062 -9.31504e-08 -0.0499998 0.0291271 0.284404 -1.45855 0 4.22367e-06
223 14 0.001 -0.0301224 0.000881015 -0.0495252 0.563763 1.80702 -3.12316 0 6.02547e-06
452 15 0.001 -0.0309528 1.90843e-07 -0.0500005 -0.267872 -0.155075 0.74526 0 9.03292e-06
3 3 0.001 -0.0300334 5.44781e-07 -0.0499925 -0.439205 -0.487548 1.16726 0 1.08097e-05
683 18 0.001 -0.0290461 1.96527e-07 -0.0500005 -0.301348 -0.150418 0.711508 0 3.68212e-06
684 18 0.001 -0.028097 -9.7291e-08 -0.0499998 0.0407104 0.249554 -1.30512 0 4.2021e-06
685 18 0.001 -0.0271427 0 -0.05 -0.0190486 -0.109211 0.614905 0 3.94577e-06
686 18 0.001 -0.0261909 0 -0.05 0.00819676 -0.00495847 0.0125433 0 4.06284e-06
687 18 0.001 -0.025238 0 -0.05 -0.0238343 0 0 0 3.9931e-06
688 18 0.001 -0.0242854 0 -0.05 -0.00587326 0 0 0 4.08144e-06
689 18 0.001 -0.0233335 0 -0.05 0.00484787 0 0 0 4.09281e-06
690 18 0.001 -0.0223811 0 -0.05 0.0258133 0 0 0 3.99404e-06
691 18 0.001 -0.0214281 0 -0.05 -0.0345455 0 0 0 4.09361e-06
692 18 0.001 -0.0204767 0 -0.05 0.0563516 0 0 0 4.09361e-06
693 18 0.001 -0.0195237 0 -0.05 0.015369 0 0 0 4.02189e-06
694 18 0.001 -0.0185715 0 -0.05 -0.0821274 0 0 0 4.03649e-06
695 18 0.001 -0.0176187 0 -0.05 0.0351015 0 0 0 4.07506e-06
696 18 0.001 -0.016667 0 -0.05 0.0529538 0 0 0 4.06606e-06
697 18 0.001 -0.0157141 0 -0.05 -0.071418 0 0 0 4.02766e-06
698 18 0.001 -0.0147619 0 -0.05 0.000823347 0 0 0 4.08492e-06
699 18 0.001 -0.0138096 0 -0.05 0.0120014 0.0214454 -0.0547655 0 4.05475e-06
700 18 0.001 -0.0128571 0 -0.05 0.0251949 -0.166629 0.793719 0 3.88702e-06
701 18 0.001 -0.0119029 -9.31449e-08 -0.0499998 -0.0464945 0.285198 -1.45929 0 4.28146e-06
702 18 0.001 -0.0109545 1.90888e-07 -0.0500005 -0.21607 -0.156158 0.749557 0 9.16608e-06
5 5 0.001 -0.0100336 5.38931e-07 -0.0499925 -0.465023 -0.487014 1.16625 0 1.03963e-05
473 17 0.001 -0.0101224 0.00088102 -0.0495252 0.56571 1.80597 -3.12033 0 6.02395e-06
933 21 0.001 -0.00904787 1.96487e-07 -0.0500005 -0.276488 -0.150695 0.711621 0 3.45522e-06
934 21 0.001 -0.00809716 -9.72975e-08 -0.0499998 0.0433085 0.25013 -1.30602 0 3.90287e-06
935 21 0.001 -0.007141 0 -0.05 -0.0311666 -0.109505 0.615398 0 3.89935e-06
936 21 0.001 -0.00619026 0 -0.05 -0.00179291 -0.00496339 0.0125554 0 4.24297e-06
937 21 0.001 -0.0052383 0 -0.05 0.0494517 0 0 0 4.0663e-06
938 21 0.001 -0.00428561 0 -0.05 -0.0259124 0 0 0 4.04681e-06
939 21 0.001 -0.00333344 0 -0.05 0.00169951 0 0 0 4.07361e-06
940 21 0.001 -0.00238105 0 -0.05 -0.0404097 0 0 0 4.01865e-06
941 21 0.001 -0.00142826 0 -0.05 -0.00504725 0 0 0 4.03905e-06
942 21 0.001 -0.0004761 0 -0.05 0.0641949 0 0 0 4.10985e-06
943 21 0.001 0.000475894 0 -0.05 0.00369728 0 0 0 4.08251e-06
944 21 0.001 0.00142836 0 -0.05 -0.0636209 0 0 0 4.02025e-06
945 21 0.001 0.00238106 0 -0.05 0.04188 0 0 0 4.0194e-06
946 21 0.001 0.00333353 0 -0.05 -0.00138951 0 0 0 4.05445e-06
947 21 0.001 0.00428583 0 -0.05 0.0215604 0 0 0 4.07304e-06
948 21 0.001 0.0052381 0 -0.05 -0.0854612 0 0 0 4.07582e-06
949 21 0.001 0.00619036 0 -0.05 0.0236933 -3.33912e-05 0.00762238 0 4.05475e-06
950 21 0.001 0.00714287 0 -0.05 0.0184638 0.000100923 -0.0164332 0 4.05108e-06
951 21 0.001 0.00809517 1.12094e-20 -0.05 0.00121359 -6.82673e-05 0.00589867 0 4.0547e-06
7 7 0.001 0.01 0 -0.05 -1.01868 -0.117421 0.50455 0 7.28521e-06
723 20 0.001 0.00987629 0.000882522 -0.0495287 0.842764 0.623578 -0.889888 0 6.87682e-06
952 21 0.001 0.00904764 -2.24174e-20 -0.0500001 -0.000780433 -3.26605e-05 0.00701048 0 4.04983e-06
1183 24 0.001 0.0109523 5.45542e-12 -0.0500001 -9.92879e-05 3.07451e-05 0.0242303 0 4.06444e-06
1184 24 0.001 0.0119047 -2.72769e-12 -0.0499999 0.00239778 6.70127e-05 -0.0198521 0 4.0388e-06
1185 24 0.001 0.0128573 0 -0.05 0.0172085 -5.33793e-05 -0.0116368 0 4.03719e-06
1186 24 0.001 0.0138096 0 -0.05 0.0188624 -1.15394e-06 0.0125958 0 4.09598e-06
1187 24 0.001 0.0147616 0 -0.05 0.00958657 0 0 0 4.04837e-06
1188 24 0.001 0.0157145 0 -0.05 -0.00541105 0 0 0 4.02766e-06
1189 24 0.001 0.0166667 0 -0.05 -0.021268 0 0 0 4.08194e-06
1190 24 0.001 0.0176189 0 -0.05 -0.0161536 0 0 0 4.0128e-06
1191 24 0.001 0.0185719 0 -0.05 -0.0345449 0 0 0 4.09361e-06
1192 24 0.001 0.0195233 0 -0.05 0.056351 0 0 0 4.09361e-06
1193 24 0.001 0.0204763 0 -0.05 0.015369 0 0 0 4.02189e-06
1194 24 0.001 0.0214285 0 -0.05 -0.0821274 0 0 0 4.03649e-06
1195 24 0.001 0.0223813 0 -0.05 0.0351015 0 0 0 4.07506e-06
1196 24 0.001 0.023333 0 -0.05 0.0311468 0 0 0 4.06606e-06
1197 24 0.001 0.0242859 0 -0.05 -0.0277856 0 0 0 4.02766e-06
1198 24 0.001 0.0252381 0 -0.05 0.0200087 0 0 0 4.09419e-06
1199 24 0.001 0.0261903 0 -0.05 0.00512851 -3.29148e-05 0.00762278 0 4.03683e-06
1200 24 0.001 0.0271431 0 -0.05 -0.0267758 9.99144e-05 -0.0164422 0 4.05546e-06
1201 24 0.001 0.028095 2.72759e-12 -0.05 0.00582906 -6.79e-05 0.00591268 0 4.06594e-06
9 9 0.001 0.03 0 -0.05 -1.01854 -0.117421 0.504554 0 7.29894e-06
973 23 0.001 0.0298763 0.000882522 -0.0495287 0.842764 0.623578 -0.889888 0 6.87682e-06
1202 24 0.001 0.0290477 -5.45519e-12 -0.0500001 -0.00328982 -3.22423e-05 0.0070028 0 4.03714e-06
1433 27 0.001 0.0309523 2.24158e-20 -0.0500001 0.00179988 3.18601e-05 0.0242211 0 4.05534e-06
1434 27 0.001 0.0319048 -1.12072e-20 -0.0499999 0.00118716 6.61029e-05 -0.0198439 0 4.02198e-06
1435 27 0.001 0.0328574 0 -0.05 -0.0277754 -5.39201e-05 -0.011648 0 4.10295e-06
1436 27 0.001 0.033809 0 -0.05 0.0718612 -5.71737e-07 0.0126057 0 4.07181e-06
1437 27 0.001 0.034762 0 -0.05 -0.0204111 0 0 0 3.95712e-06
1438 27 0.001 0.0357149 0 -0.05 -0.0345199 0 0 0 4.11212e-06
1439 27 0.001 0.0366662 0 -0.05 0.034527 0 0 0 4.11204e-06
1440 27 0.001 0.037619 0 -0.05 -0.0436173 0 0 0 3.96756e-06
1441 27 0.001 0.0385719 0 -0.05 0.0527968 0 0 0 4.11186e-06
1442 27 0.001 0.0395232 0 -0.05 -0.0294552 0 0 0 4.09514e-06
1443 27 0.001 0.0404763 0 -0.05 0.0374948 0 0 0 4.00209e-06
1444 27 0.001 0.0414286 0 -0.05 0.00130966 0 0 0 4.05532e-06
1445 27 0.001 0.042381 0 -0.05 -0.0450467 0 0 0 4.05636e-06
1446 27 0.001 0.0433333 0 -0.05 0.000820673 0 0 0 4.06295e-06
1447 27 0.001 0.0442857 0 -0.05 -0.0455091 0 0 0 4.07466e-06
1448 27 0.001 0.0452379 0 -0.05 0.0596517 0 0 0 4.04743e-06
1449 27 0.001 0.0461906 0 -0.05 -0.0149719 0.0214012 -0.0546531 0 4.03582e-06
1450 27 0.001 0.0471429 0 -0.05 0.016806 -0.132774 0.707085 0 3.89038e-06
1451 27 0.001 0.0480973 -9.3059e-08 -0.0499998 -0.0495967 0.21751 -1.29075 0 4.28674e-06
1452 27 0.001 0.0490455 1.90396e-07 -0.0500005 -0.176188 -0.122409 0.672911 0 8.20081e-06
11 11 0.001 0.0499713 9.66931e-07 -0.0499936 -0.565283 -0.515328 1.22032 0 8.19256e-06
1223 26 0.001 0.0498776 0.000880958 -0.0495251 0.515677 1.83337 -3.19216 0 6.08059e-06
14 13 0.001 -0.050515 0.00168172 -0.0490483 2.53193 -2.68523 7.09107 0 6.65011e-06
224 14 0.001 -0.030515 0.00168178 -0.0490484 2.54064 -2.61669 6.98783 0 6.64994e-06
474 17 0.001 -0.010515 0.00168178 -0.0490484 2.53919 -2.61569 6.98494 0 6.64995e-06
724 20 0.001 0.00948615 0.00168007 -0.0490446 1.94791 -1.2763 4.29784 0 6.64924e-06
974 23 0.001 0.0294861 0.00168007 -0.0490446 1.94791 -1.2763 4.29784 0 6.64924e-06
1224 26 0.001 0.0494849 0.00168183 -0.0490485 2.57146 -2.64074 7.05298 0 6.64984e-06
17 13 0.001 -0.0527465 0.00298614 -0.0476141 -10.8644 1.66954 -20.117 0 6.81065e-06
15 13 0.001 -0.0511231 0.00232986 -0.0485763 -6.98064 1.88278 -13.2704 0 6.29785e-06
16 13 0.001 -0.0518923 0.00279715 -0.0481207 10.8294 -1.6824 19.2209 0 6.91675e-06
226 14 0.001 -0.0318923 0.00279715 -0.0481207 10.839 -1.68943 19.2434 0 6.91668e-06
227 14 0.001 -0.0327465 0.00298614 -0.0476141 -10.869 1.67194 -20.126 0 6.81065e-06
225 14 0.001 -0.0311231 0.00232985 -0.0485763 -6.9804 1.86257 -13.2418 0 6.29848e-06
477 17 0.001 -0.0127465 0.00298614 -0.0476141 -10.8687 1.6718 -20.1254 0 6.81065e-06
475 17 0.001 -0.0111231 0.00232985 -0.0485763 -6.97967 1.86181 -13.2399 0 6.29845e-06
476 17 0.001 -0.0118923 0.00279715 -0.0481207 10.8384 -1.68902 19.2421 0 6.91669e-06
727 20 0.001 0.0072535 0.00298614 -0.0476141 -10.6711 1.58246 -19.7517 0 6.81065e-06
725 20 0.001 0.00887652 0.00233048 -0.0485777 -6.3965 1.13188 -11.4804 0 6.31053e-06
726 20 0.001 0.0081077 0.00279715 -0.0481207 10.4404 -1.42847 18.3319 0 6.92511e-06
976 23 0.001 0.0281077 0.00279715 -0.0481207 10.4404 -1.42847 18.3319 0 6.92511e-06
977 23 0.001 0.0272535 0.00298614 -0.0476141 -10.6711 1.58246 -19.7517 0 6.81065e-06
975 23 0.001 0.0288765 0.00233048 -0.0485777 -6.3965 1.13188 -11.4804 0 6.31053e-06
1227 26 0.001 0.0472535 0.00298614 -0.0476141 -10.8725 1.67372 -20.1325 0 6.81065e-06
1225 26 0.001 0.0488769 0.00232984 -0.0485762 -6.9905 1.87656 -13.2737 0 6.29894e-06
1226 26 0.001 0.0481077 0.00279715 -0.0481207 10.8461 -1.69463 19.26 0 6.91664e-06
19 13 0.001 -0.0544737 0.00261266 -0.0466819 -3.11989 -0.696743 -5.85583 0 6.53196e-06
20 13 0.001 -0.0551757 0.0020652 -0.0462085 0.806367 0.375798 1.60959 0 6.49377e-06
18 13 0.001 -0.053645 0.00293079 -0.0471608 7.25921 -0.180975 13.9294 0 6.48729e-06
230 14 0.001 -0.0351757 0.0020652 -0.0462085 0.806367 0.375798 1.60959 0 6.49377e-06
228 14 0.001 -0.033645 0.00293079 -0.0471608 7.25977 -0.180989 13.9305 0 6.48729e-06
229 14 0.001 -0.0344737 0.00261266 -0.0466819 -3.11989 -0.696743 -5.85583 0 6.53196e-06
480 17 0.001 -0.0151757 0.0020652 -0.0462085 0.806367 0.375798 1.60959 0 6.49377e-06
478 17 0.001 -0.013645 0.00293079 -0.0471608 7.25974 -0.180988 13.9305 0 6.48729e-06
479 17 0.001 -0.0144737 0.00261266 -0.0466819 -3.11989 -0.696743 -5.85583 0 6.53196e-06
729 20 0.001 0.00552627 0.00261266 -0.0466819 -3.11989 -0.696743 -5.85583 0 6.53196e-06
730 20 0.001 0.00482428 0.0020652 -0.0462085 0.806367 0.375798 1.60959 0 6.49377e-06
728 20 0.001 0.006355 0.00293079 -0.0471608 7.23376 -0.180037 13.8791 0 6.48729e-06
980 23 0.001 0.0248243 0.0020652 -0.0462085 0.806367 0.375798 1.60959 0 6.49377e-06
978 23 0.001 0.026355 0.00293079 -0.0471608 7.23376 -0.180037 13.8791 0 6.48729e-06
979 23 0.001 0.0255263 0.00261266 -0.0466819 -3.11989 -0.696743 -5.85583 0 6.53196e-06
1230 26 0.001 0.0448243 0.0020652 -0.0462085 0.806367 0.375798 1.60959 0 6.49377e-06
1228 26 0.001 0.046355 0.00293079 -0.0471608 7.26019 -0.180999 13.9314 0 6.48729e-06
1229 26 0.001 0.0455263 0.00261266 -0.0466819 -3.11989 -0.696743 -5.85583 0 6.53196e-06
23 13 0.001 -0.0559729 -0.000400777 -0.0447867 0.0202117 0.00272472 -9.46348e-12 0 6.49939e-06
233 14 0.001 -0.0359729 -0.000400777 -0.0447867 0.0202117 0.00272472 1.41229e-11 0 6.49939e-06
483 17 0.001 -0.0159729 -0.000400777 -0.0447867 0.0202117 0.00272472 -2.36084e-11 0 6.49939e-06
733 20 0.001 0.00402709 -0.000400777 -0.0447867 0.0202117 0.00272472 -2.42852e-11 0 6.49939e-06
983 23 0.001 0.0240271 -0.000400777 -0.0447867 0.0202117 0.00272472 -1.18128e-11 0 6.49939e-06
1233 26 0.001 0.0440271 -0.000400777 -0.0447867 0.0202117 0.00272472 -9.46348e-12 0 6.49939e-06
21 13 0.001 -0.0556859 0.00133595 -0.0457346 -0.0930166 -0.0875807 -0.239111 0 6.49939e-06
22 13 0.001 -0.0559597 0.000489114 -0.0452607 0.0267406 0.00409301 0.0170786 0 6.49939e-06
231 14 0.001 -0.0356859 0.00133595 -0.0457346 -0.0930166 -0.0875807 -0.239111 0 6.49939e-06
232 14 0.001 -0.0359597 0.000489114 -0.0452607 0.0267406 0.00409301 0.0170786 0 6.49939e-06
481 17 0.001 -0.0156859 0.00133595 -0.0457346 -0.0930166 -0.0875807 -0.239111 0 6.49939e-06
482 17 0.001 -0.0159597 0.000489114 -0.0452607 0.0267406 0.00409301 0.0170786 0 6.49939e-06
731 20 0.001 0.0043141 0.00133595 -0.0457346 -0.0930166 -0.0875807 -0.239111 0 6.49939e-06
732 20 0.001 0.00404034 0.000489114 -0.0452607 0.0267406 0.00409301 0.0170786 0 6.49939e-06
981 23 0.001 0.0243141 0.00133595 -0.0457346 -0.0930166 -0.0875807 -0.239111 0 6.49939e-06
982 23 0.001 0.0240403 0.000489114 -0.0452607 0.0267406 0.00409301 0.0170786 0 6.49939e-06
1231 26 0.001 0.0443141 0.00133595 -0.0457346 -0.0930166 -0.0875807 -0.239111 0 6.49939e-06
1232 26 0.001 0.0440403 0.000489114 -0.0452607 0.0267406 0.00409301 0.0170786 0 6.49939e-06
25 13 0.001 -0.0552362 -0.0019995 -0.0438389 0.0152034 0.0135938 -2.25674e-11 0 6.49939e-06
26 13 0.001 -0.0545512 -0.00256762 -0.0433649 0.0105458 0.0174562 2.04727e-11 0 6.49939e-06
235 14 0.001 -0.0352362 -0.0019995 -0.0438389 0.0152034 0.0135938 1.413e-11 0 6.49939e-06
236 14 0.001 -0.0345512 -0.00256762 -0.0433649 0.0105458 0.0174562 -3.66209e-12 0 6.49939e-06
485 17 0.001 -0.0152362 -0.0019995 -0.0438389 0.0152034 0.0135938 -1.87484e-11 0 6.49939e-06
486 17 0.001 -0.0145512 -0.00256762 -0.0433649 0.0105458 0.0174562 8.55972e-12 0 6.49939e-06
735 20 0.001 0.00476375 -0.0019995 -0.0438389 0.0152034 0.0135938 -4.60692e-14 0 6.49939e-06
736 20 0.001 0.00544882 -0.00256762 -0.0433649 0.0105458 0.0174562 -1.29107e-11 0 6.49939e-06
985 23 0.001 0.0247638 -0.0019995 -0.0438389 0.0152034 0.0135938 -2.55503e-11 0 6.49939e-06
986 23 0.001 0.0254488 -0.00256762 -0.0433649 0.0105458 0.0174562 2.33617e-11 0 6.49939e-06
1235 26 0.001 0.0447638 -0.0019995 -0.0438389 0.0152034 0.0135938 -2.25674e-11 0 6.49939e-06
1236 26 0.001 0.0454488 -0.00256762 -0.0433649 0.0105458 0.0174562 2.04727e-11 0 6.49939e-06
24 13 0.001 -0.0557245 -0.00125539 -0.0443128 0.0185227 0.0085349 1.94667e-11 0 6.49939e-06
234 14 0.001 -0.0357245 -0.00125539 -0.0443128 0.0185227 0.0085349 -1.89389e-11 0 6.49939e-06
484 17 0.001 -0.0157245 -0.00125539 -0.0443128 0.0185227 0.0085349 2.37127e-11 0 6.49939e-06
734 20 0.001 0.00427551 -0.00125539 -0.0443128 0.0185227 0.0085349 1.28918e-11 0 6.49939e-06
984 23 0.001 0.0242755 -0.00125539 -0.0443128 0.0185227 0.0085349 2.09298e-11 0 6.49939e-06
1234 26 0.001 0.0442755 -0.00125539 -0.0443128 0.0185227 0.0085349 1.94667e-11 0 6.49939e-06
27 13 0.001 -0.0537296 -0.00290973 -0.042891 0.00496006 0.0197821 -1.64938e-11 0 6.49939e-06
28 13 0.001 -0.0528437 -0.00299573 -0.0424171 -0.00106231 0.0203668 1.23135e-11 0 6.49939e-06
29 13 0.001 -0.0519717 -0.00281804 -0.0419431 -0.00699117 0.0191588 -6.64854e-12 0 6.49939e-06
30 13 0.001 -0.0511901 -0.00239231 -0.0414692 -0.0123047 0.0162644 -2.44239e-12 0 6.49939e-06
237 14 0.001 -0.0337296 -0.00290973 -0.042891 0.00496006 0.0197821 -6.67405e-12 0 6.49939e-06
238 14 0.001 -0.0328437 -0.00299573 -0.0424171 -0.00106231 0.0203668 1.37435e-11 0 6.49939e-06
239 14 0.001 -0.0319717 -0.00281804 -0.0419431 -0.00699117 0.0191588 -1.50099e-11 0 6.49939e-06
240 14 0.001 -0.0311901 -0.00239231 -0.0414692 -0.0123047 0.0162644 8.13359e-12 0 6.49939e-06
487 17 0.001 -0.0137296 -0.00290973 -0.042891 0.00496006 0.0197821 5.37136e-12 0 6.49939e-06
488 17 0.001 -0.0128437 -0.00299573 -0.0424171 -0.00106231 0.0203668 -1.9469e-11 0 6.49939e-06
489 17 0.001 -0.0119717 -0.00281804 -0.0419431 -0.00699117 0.0191588 3.01229e-11 0 6.49939e-06
490 17 0.001 -0.0111901 -0.00239231 -0.0414692 -0.0123047 0.0162644 -3.63905e-11 0 6.49939e-06
737 20 0.001 0.00627043 -0.00290973 -0.042891 0.00496006 0.0197821 2.45625e-11 0 6.49939e-06
738 20 0.001 0.00715625 -0.00299573 -0.0424171 -0.00106231 0.0203668 -3.25705e-11 0 6.49939e-06
739 20 0.001 0.00802832 -0.00281804 -0.0419431 -0.00699117 0.0191588 3.63364e-11 0 6.49939e-06
740 20 0.001 0.00880988 -0.00239231 -0.0414692 -0.0123047 0.0162644 -3.81458e-11 0 6.49939e-06
987 23 0.001 0.0262704 -0.00290973 -0.042891 0.00496006 0.0197821 -1.21894e-11 0 6.49939e-06
988 23 0.001 0.0271563 -0.00299573 -0.0424171 -0.00106231 0.0203668 -7.43174e-12 0 6.49939e-06
989 23 0.001 0.0280283 -0.00281804 -0.0419431 -0.00699117 0.0191588 3.03378e-11 0 6.49939e-06
990 23 0.001 0.0288099 -0.00239231 -0.0414692 -0.0123047 0.0162644 -4.90946e-11 0 6.49939e-06
1237 26 0.001 0.0462704 -0.00290973 -0.042891 0.00496006 0.0197821 -1.64938e-11 0 6.49939e-06
1238 26 0.001 0.0471563 -0.00299573 -0.0424171 -0.00106231 0.0203668 1.23135e-11 0 6.49939e-06
1239 26 0.001 0.0480283 -0.00281804 -0.0419431 -0.00699117 0.0191588 -6.64854e-12 0 6.49939e-06
1240 26 0.001 0.0488099 -0.00239231 -0.0414692 -0.0123047 0.0162644 -2.44239e-12 0 6.49939e-06
31 13 0.001 -0.0505679 -0.00175601 -0.0409953 -0.0165351 0.0119384 1.49281e-11 0 6.49939e-06
241 14 0.001 -0.0305679 -0.00175601 -0.0409953 -0.0165351 0.0119384 6.37509e-12 0 6.49939e-06
491 17 0.001 -0.0105679 -0.00175601 -0.0409953 -0.0165351 0.0119384 3.97681e-11 0 6.49939e-06
741 20 0.001 0.00943213 -0.00175601 -0.0409953 -0.0165351 0.0119384 3.9979e-11 0 6.49939e-06
991 23 0.001 0.0294321 -0.00175601 -0.0409953 -0.0165351 0.0119384 5.96074e-11 0 6.49939e-06
1241 26 0.001 0.0494321 -0.00175601 -0.0409953 -0.0165351 0.0119384 1.49281e-11 0 6.49939e-06
32 13 0.001 -0.0501597 -0.000965137 -0.0405213 -0.0193101 0.00656158 -2.87533e-11 0 6.49939e-06
33 13 0.001 -0.0500015 -8.93154e-05 -0.0400474 -0.0203854 0.00060722 4.13793e-11 0 6.49939e-06
242 14 0.001 -0.0301597 -0.000965137 -0.0405213 -0.0193101 0.00656158 -2.52084e-11 0 6.49939e-06
243 14 0.001 -0.0300015 -8.93154e-05 -0.0400474 -0.0203854 0.00060722 4.39154e-11 0 6.49939e-06
492 17 0.001 -0.0101597 -0.000965137 -0.0405213 -0.0193101 0.00656158 -4.1288e-11 0 6.49939e-06
493 17 0.001 -0.0100015 -8.93154e-05 -0.0400474 -0.0203854 0.00060722 3.99078e-11 0 6.49939e-06
742 20 0.001 0.00984031 -0.000965137 -0.0405213 -0.0193101 0.00656158 -4.1284e-11 0 6.49939e-06
743 20 0.001 0.00999847 -8.93154e-05 -0.0400474 -0.0203854 0.00060722 3.99078e-11 0 6.49939e-06
992 23 0.001 0.0298403 -0.000965137 -0.0405213 -0.0193101 0.00656158 -6.29951e-11 0 6.49939e-06
993 23 0.001 0.0299985 -8.93154e-05 -0.0400474 -0.0203854 0.00060722 6.14688e-11 0 6.49939e-06
1242 26 0.001 0.0498403 -0.000965137 -0.0405213 -0.0193101 0.00656158 -2.87533e-11 0 6.49939e-06
1243 26 0.001 0.0499985 -8.93154e-05 -0.0400474 -0.0203854 0.00060722 4.13793e-11 0 6.49939e-06
34 13 0.001 -0.0501073 0.000794367 -0.0395735 -0.0196664 -0.00540059 -5.11837e-11 0 6.49939e-06
244 14 0.001 -0.0301073 0.000794367 -0.0395735 -0.0196664 -0.00540059 -5.76231e-11 0 6.49939e-06
494 17 0.001 -0.0101073 0.000794367 -0.0395735 -0.0196664 -0.00540059 -3.39895e-11 0 6.49939e-06
744 20 0.001 0.00989272 0.000794367 -0.0395735 -0.0196664 -0.00540059 -3.39895e-11 0 6.49939e-06
994 23 0.001 0.0298927 0.000794367 -0.0395735 -0.0196664 -0.00540059 -5.50276e-11 0 6.49939e-06
1244 26 0.001 0.0498927 0.000794367 -0.0395735 -0.0196664 -0.00540059 -5.11837e-11 0 6.49939e-06
36 13 0.001 -0.0510509 0.00228034 -0.0386256 -0.0132509 -0.0155032 -5.65094e-11 0 6.49939e-06
35 13 0.001 -0.0504677 0.00160813 -0.0390995 -0.0172164 -0.010933 5.69471e-11 0 6.49939e-06
245 14 0.001 -0.0304677 0.00160813 -0.0390995 -0.0172164 -0.010933 6.13254e-11 0 6.49939e-06
246 14 0.001 -0.0310509 0.00228034 -0.0386256 -0.0132509 -0.0155032 -5.15816e-11 0 6.49939e-06
496 17 0.001 -0.0110509 0.00228034 -0.0386256 -0.0132509 -0.0155032 -8.11665e-12 0 6.49939e-06
495 17 0.001 -0.0104677 0.00160813 -0.0390995 -0.0172164 -0.010933 2.30736e-11 0 6.49939e-06
746 20 0.001 0.00894907 0.00228034 -0.0386256 -0.0132509 -0.0155032 -8.17145e-12 0 6.49939e-06
745 20 0.001 0.00953234 0.00160813 -0.0390995 -0.0172164 -0.010933 2.30852e-11 0 6.49939e-06
995 23 0.001 0.0295323 0.00160813 -0.0390995 -0.0172164 -0.010933 4.27057e-11 0 6.49939e-06
996 23 0.001 0.0289491 0.00228034 -0.0386256 -0.0132509 -0.0155032 -2.52972e-11 0 6.49939e-06
1246 26 0.001 0.0489491 0.00228034 -0.0386256 -0.0132509 -0.0155032 -5.65094e-11 0 6.49939e-06
1245 26 0.001 0.0495323 0.00160813 -0.0390995 -0.0172164 -0.010933 5.69471e-11 0 6.49939e-06
38 13 0.001 -0.0526657 0.00298112 -0.0376777 -0.00227268 -0.0202675 -2.91642e-11 0 6.49939e-06
39 13 0.001 -0.0535551 0.002948 -0.0372038 0.00377381 -0.0200423 5.2659e-12 0 6.49939e-06
37 13 0.001 -0.0518058 0.00275184 -0.0381517 -0.00811913 -0.0187087 4.73968e-11 0 6.49939e-06
249 14 0.001 -0.0335551 0.002948 -0.0372038 0.00377381 -0.0200423 -2.11226e-11 0 6.49939e-06
247 14 0.001 -0.0318058 0.00275184 -0.0381517 -0.00811913 -0.0187087 2.99464e-11 0 6.49939e-06
248 14 0.001 -0.0326657 0.00298112 -0.0376777 -0.00227268 -0.0202675 -3.15473e-12 0 6.49939e-06
499 17 0.001 -0.0135551 0.002948 -0.0372038 0.00377381 -0.0200423 -3.65019e-11 0 6.49939e-06
498 17 0.001 -0.0126657 0.00298112 -0.0376777 -0.00227268 -0.0202675 2.4393e-11 0 6.49939e-06
497 17 0.001 -0.0118058 0.00275184 -0.0381517 -0.00811913 -0.0187087 -8.68651e-12 0 6.49939e-06
748 20 0.001 0.00733429 0.00298112 -0.0376777 -0.00227268 -0.0202675 2.29763e-11 0 6.49939e-06
749 20 0.001 0.00644491 0.002948 -0.0372038 0.00377381 -0.0200423 -3.33751e-11 0 6.49939e-06
747 20 0.001 0.00819423 0.00275184 -0.0381517 -0.00811913 -0.0187087 -8.33274e-12 0 6.49939e-06
999 23 0.001 0.0264449 0.002948 -0.0372038 0.00377381 -0.0200423 -2.55195e-11 0 6.49939e-06
997 23 0.001 0.0281942 0.00275184 -0.0381517 -0.00811913 -0.0187087 5.9667e-12 0 6.49939e-06
998 23 0.001 0.0273343 0.00298112 -0.0376777 -0.00227268 -0.0202675 1.16189e-11 0 6.49939e-06
1249 26 0.001 0.0464449 0.002948 -0.0372038 0.00377381 -0.0200423 5.2659e-12 0 6.49939e-06
1248 26 0.001 0.0473343 0.00298112 -0.0376777 -0.00227268 -0.0202675 -2.91638e-11 0 6.49939e-06
1247 26 0.001 0.0481942 0.00275184 -0.0381517 -0.00811913 -0.0187087 4.73968e-11 0 6.49939e-06
42 13 0.001 -0.0556449 0.00141533 -0.035782 0.0179819 -0.00962226 4.41947e-11 0 6.49939e-06
252 14 0.001 -0.0356449 0.00141533 -0.035782 0.0179819 -0.00962226 4.80303e-11 0 6.49939e-06
502 17 0.001 -0.0156449 0.00141533 -0.035782 0.0179819 -0.00962226 4.78954e-11 0 6.49939e-06
752 20 0.001 0.00435507 0.00141533 -0.035782 0.0179819 -0.00962226 4.40826e-11 0 6.49939e-06
1002 23 0.001 0.0243551 0.00141533 -0.035782 0.0179819 -0.00962226 4.2554e-11 0 6.49939e-06
1252 26 0.001 0.0443551 0.00141533 -0.035782 0.0179819 -0.00962226 4.41945e-11 0 6.49939e-06
40 13 0.001 -0.0543956 0.0026554 -0.0367299 0.00948813 -0.018053 1.80778e-11 0 6.49939e-06
41 13 0.001 -0.0551133 0.00212906 -0.0362559 0.0143673 -0.0144747 -3.52797e-11 0 6.49939e-06
251 14 0.001 -0.0351133 0.00212906 -0.0362559 0.0143673 -0.0144747 -4.61068e-11 0 6.49939e-06
250 14 0.001 -0.0343956 0.0026554 -0.0367299 0.00948813 -0.018053 3.79014e-11 0 6.49939e-06
501 17 0.001 -0.0151133 0.00212906 -0.0362559 0.0143673 -0.0144747 -4.75296e-11 0 6.49939e-06
500 17 0.001 -0.0143956 0.0026554 -0.0367299 0.00948813 -0.018053 4.40297e-11 0 6.49939e-06
750 20 0.001 0.0056044 0.0026554 -0.0367299 0.00948813 -0.018053 3.97974e-11 0 6.49939e-06
751 20 0.001 0.00488673 0.00212906 -0.0362559 0.0143673 -0.0144747 -4.33413e-11 0 6.49939e-06
1001 23 0.001 0.0248867 0.00212906 -0.0362559 0.0143673 -0.0144747 -4.18744e-11 0 6.49939e-06
1000 23 0.001 0.0256044 0.0026554 -0.0367299 0.00948813 -0.018053 3.57275e-11 0 6.49939e-06
1251 26 0.001 0.0448867 0.00212906 -0.0362559 0.0143673 -0.0144747 -3.52799e-11 0 6.49939e-06
1250 26 0.001 0.0456044 0.0026554 -0.0367299 0.00948813 -0.018053 1.80788e-11 0 6.49939e-06
44 13 0.001 -0.0559835 -0.000312084 -0.0348341 0.0202838 0.00212174 4.5416e-11 0 6.49939e-06
45 13 0.001 -0.0557607 -0.00117372 -0.0343602 0.0187686 0.00797963 -4.60312e-11 0 6.49939e-06
254 14 0.001 -0.0359835 -0.000312084 -0.0348341 0.0202838 0.00212174 4.34674e-11 0 6.49939e-06
255 14 0.001 -0.0357607 -0.00117372 -0.0343602 0.0187686 0.00797963 -3.97003e-11 0 6.49939e-06
504 17 0.001 -0.0159835 -0.000312084 -0.0348341 0.0202838 0.00212174 4.05312e-11 0 6.49939e-06
505 17 0.001 -0.0157607 -0.00117372 -0.0343602 0.0187686 0.00797963 -3.59405e-11 0 6.49939e-06
754 20 0.001 0.00401647 -0.000312084 -0.0348341 0.0202838 0.00212174 4.04177e-11 0 6.49939e-06
755 20 0.001 0.00423934 -0.00117372 -0.0343602 0.0187686 0.00797963 -3.82461e-11 0 6.49939e-06
1004 23 0.001 0.0240165 -0.000312084 -0.0348341 0.0202838 0.00212174 3.3699e-11 0 6.49939e-06
1005 23 0.001 0.0242393 -0.00117372 -0.0343602 0.0187686 0.00797963 -3.15185e-11 0 6.49939e-06
1254 26 0.001 0.0440165 -0.000312084 -0.0348341 0.0202838 0.00212174 4.5416e-11 0 6.49939e-06
1255 26 0.001 0.0442393 -0.00117372 -0.0343602 0.0187686 0.00797963 -4.60312e-11 0 6.49939e-06
43 13 0.001 -0.0559438 0.000577017 -0.0353081 0.0200136 -0.00392291 -4.62884e-11 0 6.49939e-06
253 14 0.001 -0.0359438 0.000577017 -0.0353081 0.0200136 -0.00392291 -4.65961e-11 0 6.49939e-06
503 17 0.001 -0.0159438 0.000577017 -0.0353081 0.0200136 -0.00392291 -4.53102e-11 0 6.49939e-06
753 20 0.001 0.00405621 0.000577017 -0.0353081 0.0200136 -0.00392291 -4.25818e-11 0 6.49939e-06
1003 23 0.001 0.0240562 0.000577017 -0.0353081 0.0200136 -0.00392291 -3.84731e-11 0 6.49939e-06
1253 26 0.001 0.0440562 0.000577017 -0.0353081 0.0200136 -0.00392291 -4.62884e-11 0 6.49939e-06
46 13 0.001 -0.0552948 -0.00193204 -0.0338863 0.0156014 0.0131351 4.94292e-11 0 6.49939e-06
47 13 0.001 -0.0546269 -0.0025203 -0.0334123 0.0110609 0.0171345 -5.25622e-11 0 6.49939e-06
48 13 0.001 -0.0538159 -0.00288672 -0.0329384 0.00554685 0.0196257 5.29084e-11 0 6.49939e-06
49 13 0.001 -0.052933 -0.00299906 -0.0324645 -0.000455444 0.0203894 -5.16378e-11 0 6.49939e-06
256 14 0.001 -0.0352948 -0.00193204 -0.0338863 0.0156014 0.0131351 3.58184e-11 0 6.49939e-06
257 14 0.001 -0.0346269 -0.0025203 -0.0334123 0.0110609 0.0171345 -3.12892e-11 0 6.49939e-06
258 14 0.001 -0.0338159 -0.00288672 -0.0329384 0.00554685 0.0196257 2.5473e-11 0 6.49939e-06
259 14 0.001 -0.032933 -0.00299906 -0.0324645 -0.000455444 0.0203894 -1.93149e-11 0 6.49939e-06
506 17 0.001 -0.0152948 -0.00193204 -0.0338863 0.0156014 0.0131351 3.29078e-11 0 6.49939e-06
507 17 0.001 -0.0146269 -0.0025203 -0.0334123 0.0110609 0.0171345 -2.98128e-11 0 6.49939e-06
508 17 0.001 -0.0138159 -0.00288672 -0.0329384 0.00554685 0.0196257 2.48021e-11 0 6.49939e-06
509 17 0.001 -0.012933 -0.00299906 -0.0324645 -0.000455444 0.0203894 -1.91663e-11 0 6.49939e-06
756 20 0.001 0.00470521 -0.00193204 -0.0338863 0.0156014 0.0131351 3.54123e-11 0 6.49939e-06
757 20 0.001 0.00537306 -0.0025203 -0.0334123 0.0110609 0.0171345 -3.10378e-11 0 6.49939e-06
758 20 0.001 0.00618412 -0.00288672 -0.0329384 0.00554685 0.0196257 2.49563e-11 0 6.49939e-06
759 20 0.001 0.00706699 -0.00299906 -0.0324645 -0.000455444 0.0203894 -1.88385e-11 0 6.49939e-06
1006 23 0.001 0.0247052 -0.00193204 -0.0338863 0.0156014 0.0131351 3.09483e-11 0 6.49939e-06
1007 23 0.001 0.0253731 -0.0025203 -0.0334123 0.0110609 0.0171345 -2.88074e-11 0 6.49939e-06
1008 23 0.001 0.0261841 -0.00288672 -0.0329384 0.00554685 0.0196257 2.38219e-11 0 6.49939e-06
1009 23 0.001 0.027067 -0.00299906 -0.0324645 -0.000455444 0.0203894 -1.81116e-11 0 6.49939e-06
1256 26 0.001 0.0447052 -0.00193204 -0.0338863 0.0156014 0.0131351 4.94292e-11 0 6.49939e-06
1257 26 0.001 0.0453731 -0.0025203 -0.0334123 0.0110609 0.0171345 -5.25622e-11 0 6.49939e-06
1258 26 0.001 0.0461841 -0.00288672 -0.0329384 0.00554685 0.0196257 5.29084e-11 0 6.49939e-06
1259 26 0.001 0.047067 -0.00299906 -0.0324645 -0.000455444 0.0203894 -5.16378e-11 0 6.49939e-06
50 13 0.001 -0.052056 -0.00284741 -0.0319905 -0.00641765 0.0193584 5.06306e-11 0 6.49939e-06
51 13 0.001 -0.0512621 -0.00244514 -0.0315166 -0.011815 0.0166235 -4.91392e-11 0 6.49939e-06
52 13 0.001 -0.0506212 -0.00182764 -0.0310427 -0.0161723 0.0124254 4.4099e-11 0 6.49939e-06
260 14 0.001 -0.032056 -0.00284741 -0.0319905 -0.00641765 0.0193584 1.52862e-11 0 6.49939e-06
261 14 0.001 -0.0312621 -0.00244514 -0.0315166 -0.011815 0.0166235 -1.49395e-11 0 6.49939e-06
262 14 0.001 -0.0306212 -0.00182764 -0.0310427 -0.0161723 0.0124254 1.68663e-11 0 6.49939e-06
510 17 0.001 -0.012056 -0.00284741 -0.0319905 -0.00641765 0.0193584 1.62056e-11 0 6.49939e-06
511 17 0.001 -0.0112621 -0.00244514 -0.0315166 -0.011815 0.0166235 -1.71222e-11 0 6.49939e-06
512 17 0.001 -0.0106212 -0.00182764 -0.0310427 -0.0161723 0.0124254 1.93525e-11 0 6.49939e-06
760 20 0.001 0.00794397 -0.00284741 -0.0319905 -0.00641765 0.0193584 1.54004e-11 0 6.49939e-06
761 20 0.001 0.00873785 -0.00244514 -0.0315166 -0.011815 0.0166235 -1.55813e-11 0 6.49939e-06
762 20 0.001 0.00937877 -0.00182764 -0.0310427 -0.0161723 0.0124254 1.74425e-11 0 6.49939e-06
1010 23 0.001 0.027944 -0.00284741 -0.0319905 -0.00641765 0.0193584 1.49974e-11 0 6.49939e-06
1011 23 0.001 0.0287379 -0.00244514 -0.0315166 -0.011815 0.0166235 -1.54058e-11 0 6.49939e-06
1012 23 0.001 0.0293788 -0.00182764 -0.0310427 -0.0161723 0.0124254 1.718e-11 0 6.49939e-06
1260 26 0.001 0.047944 -0.00284741 -0.0319905 -0.00641765 0.0193584 5.06306e-11 0 6.49939e-06
1261 26 0.001 0.0487379 -0.00244514 -0.0315166 -0.011815 0.0166235 -4.91392e-11 0 6.49939e-06
1262 26 0.001 0.0493788 -0.00182764 -0.0310427 -0.0161723 0.0124254 4.4099e-11 0 6.49939e-06
53 13 0.001 -0.0501897 -0.00104928 -0.0305687 -0.0191062 0.00713361 -3.30773e-11 0 6.49939e-06