LAMMPS (29 Aug 2024 - Update 1)
  using 1 OpenMP thread(s) per MPI task
atom_style hybrid molecular sphere
WARNING: Atom style hybrid defines both, per-type and per-atom masses; both must be set, but only per-atom masses will be used (src/src/atom_vec_hybrid.cpp:132)
units si
processors	* * 1
comm_modify vel yes
comm_modify cutoff 0.01

region simulationStation block -0.0525 0.0525 -0.006 0.006 -0.015 0.015
create_box 100 simulationStation bond/types 100000 extra/bond/per/atom 100 angle/types 10000 extra/angle/per/atom 100 dihedral/types 1000 extra/dihedral/per/atom 100
Created orthogonal box = (-0.0525 -0.006 -0.015) to (0.0525 0.006 0.015)
  1 by 1 by 1 MPI processor grid
change_box	all boundary f f f
Changing box ...

pair_style hybrid/overlay granular lj/cut 0
pair_coeff  * * granular hertz/material 0 0 0 tangential linear_nohistory 0 0
pair_coeff  * * lj/cut 0 0 0

special_bonds lj/coul 0 1.0 1.0
Finding 1-2 1-3 1-4 neighbors ...
  special bond factors lj:    0        1        1       
  special bond factors coul:  0        1        1       
     0 = max # of 1-2 neighbors
     1 = max # of special neighbors
  special bonds CPU = 0.000 seconds
bond_style harmonic
angle_style cosine/shift
dihedral_style spherical

bond_coeff * 0 0
angle_coeff * 0 0
dihedral_coeff * 1 0 1 0 1 1 90 0 1 90 0
fix integration all nve/sphere
neigh_modify page 500000 one 50000


### Here we will begin to include particles ###


fix fix_walls_1 all wall/gran/region granular hertz/material 10000 0.25 0.25 tangential linear_nohistory 0 0 region simulationStation
pair_coeff * * granular hertz/material 10000 0 0.5 tangential linear_nohistory 0 0

include structure/node_1.txt
create_atoms 1 single -0.0475 0.0 0.0
Created 1 atoms
  using lattice units in orthogonal box = (-0.0525 -0.006 -0.015) to (0.0525 0.006 0.015)
  create_atoms CPU = 0.000 seconds
set type 1 diameter 0.002
Setting atom values ...
  1 settings made for diameter
set type 1 density 0.5
Setting atom values ...
  1 settings made for density

include structure/node_2.txt
create_atoms 2 single 0.0475 0.0 0.0
Created 1 atoms
  using lattice units in orthogonal box = (-0.0525 -0.006 -0.015) to (0.0525 0.006 0.015)
  create_atoms CPU = 0.002 seconds
set type 2 diameter 0.002
Setting atom values ...
  1 settings made for diameter
set type 2 density 0.5
Setting atom values ...
  1 settings made for density

include structure/element_3.txt
create_atoms 3 single -0.04686666666666667 0.0 0.0
Created 1 atoms
  using lattice units in orthogonal box = (-0.0525 -0.006 -0.015) to (0.0525 0.006 0.015)
  create_atoms CPU = 0.000 seconds
create_atoms 3 single -0.046233333333333335 0.0 0.0
Created 1 atoms
  using lattice units in orthogonal box = (-0.0525 -0.006 -0.015) to (0.0525 0.006 0.015)
  create_atoms CPU = 0.000 seconds
create_atoms 3 single -0.0456 0.0 0.0
Created 1 atoms
  using lattice units in orthogonal box = (-0.0525 -0.006 -0.015) to (0.0525 0.006 0.015)
  create_atoms CPU = 0.000 seconds
create_atoms 3 single -0.04496666666666667 0.0 0.0
Created 1 atoms
  using lattice units in orthogonal box = (-0.0525 -0.006 -0.015) to (0.0525 0.006 0.015)
  create_atoms CPU = 0.000 seconds
create_atoms 3 single -0.044333333333333336 0.0 0.0
Created 1 atoms
  using lattice units in orthogonal box = (-0.0525 -0.006 -0.015) to (0.0525 0.006 0.015)
  create_atoms CPU = 0.000 seconds
create_atoms 3 single -0.0437 0.0 0.0
Created 1 atoms
  using lattice units in orthogonal box = (-0.0525 -0.006 -0.015) to (0.0525 0.006 0.015)
  create_atoms CPU = 0.000 seconds
create_atoms 3 single -0.04306666666666667 0.0 0.0
Created 1 atoms
  using lattice units in orthogonal box = (-0.0525 -0.006 -0.015) to (0.0525 0.006 0.015)
  create_atoms CPU = 0.000 seconds
create_atoms 3 single -0.04243333333333334 0.0 0.0
Created 1 atoms
  using lattice units in orthogonal box = (-0.0525 -0.006 -0.015) to (0.0525 0.006 0.015)
  create_atoms CPU = 0.000 seconds
create_atoms 3 single -0.041800000000000004 0.0 0.0
Created 1 atoms
  using lattice units in orthogonal box = (-0.0525 -0.006 -0.015) to (0.0525 0.006 0.015)
  create_atoms CPU = 0.000 seconds
create_atoms 3 single -0.04116666666666667 0.0 0.0
Created 1 atoms
  using lattice units in orthogonal box = (-0.0525 -0.006 -0.015) to (0.0525 0.006 0.015)
  create_atoms CPU = 0.000 seconds
create_atoms 3 single -0.04053333333333333 0.0 0.0
Created 1 atoms
  using lattice units in orthogonal box = (-0.0525 -0.006 -0.015) to (0.0525 0.006 0.015)
  create_atoms CPU = 0.000 seconds
create_atoms 3 single -0.0399 0.0 0.0
Created 1 atoms
  using lattice units in orthogonal box = (-0.0525 -0.006 -0.015) to (0.0525 0.006 0.015)
  create_atoms CPU = 0.000 seconds
create_atoms 3 single -0.039266666666666665 0.0 0.0
Created 1 atoms
  using lattice units in orthogonal box = (-0.0525 -0.006 -0.015) to (0.0525 0.006 0.015)
  create_atoms CPU = 0.000 seconds
create_atoms 3 single -0.03863333333333333 0.0 0.0
Created 1 atoms
  using lattice units in orthogonal box = (-0.0525 -0.006 -0.015) to (0.0525 0.006 0.015)
  create_atoms CPU = 0.000 seconds
create_atoms 3 single -0.038 0.0 0.0
Created 1 atoms
  using lattice units in orthogonal box = (-0.0525 -0.006 -0.015) to (0.0525 0.006 0.015)
  create_atoms CPU = 0.000 seconds
create_atoms 3 single -0.037366666666666666 0.0 0.0
Created 1 atoms
  using lattice units in orthogonal box = (-0.0525 -0.006 -0.015) to (0.0525 0.006 0.015)
  create_atoms CPU = 0.000 seconds
create_atoms 3 single -0.03673333333333333 0.0 0.0
Created 1 atoms
  using lattice units in orthogonal box = (-0.0525 -0.006 -0.015) to (0.0525 0.006 0.015)
  create_atoms CPU = 0.000 seconds
create_atoms 3 single -0.0361 0.0 0.0
Created 1 atoms
  using lattice units in orthogonal box = (-0.0525 -0.006 -0.015) to (0.0525 0.006 0.015)
  create_atoms CPU = 0.000 seconds
create_atoms 3 single -0.03546666666666667 0.0 0.0
Created 1 atoms
  using lattice units in orthogonal box = (-0.0525 -0.006 -0.015) to (0.0525 0.006 0.015)
  create_atoms CPU = 0.000 seconds
create_atoms 3 single -0.034833333333333334 0.0 0.0
Created 1 atoms
  using lattice units in orthogonal box = (-0.0525 -0.006 -0.015) to (0.0525 0.006 0.015)
  create_atoms CPU = 0.000 seconds
create_atoms 3 single -0.0342 0.0 0.0
Created 1 atoms
  using lattice units in orthogonal box = (-0.0525 -0.006 -0.015) to (0.0525 0.006 0.015)
  create_atoms CPU = 0.000 seconds
create_atoms 3 single -0.03356666666666667 0.0 0.0
Created 1 atoms
  using lattice units in orthogonal box = (-0.0525 -0.006 -0.015) to (0.0525 0.006 0.015)
  create_atoms CPU = 0.000 seconds
create_atoms 3 single -0.03293333333333333 0.0 0.0
Created 1 atoms
  using lattice units in orthogonal box = (-0.0525 -0.006 -0.015) to (0.0525 0.006 0.015)
  create_atoms CPU = 0.000 seconds
create_atoms 3 single -0.0323 0.0 0.0
Created 1 atoms
  using lattice units in orthogonal box = (-0.0525 -0.006 -0.015) to (0.0525 0.006 0.015)
  create_atoms CPU = 0.000 seconds
create_atoms 3 single -0.03166666666666666 0.0 0.0
Created 1 atoms
  using lattice units in orthogonal box = (-0.0525 -0.006 -0.015) to (0.0525 0.006 0.015)
  create_atoms CPU = 0.000 seconds
create_atoms 3 single -0.031033333333333333 0.0 0.0
Created 1 atoms
  using lattice units in orthogonal box = (-0.0525 -0.006 -0.015) to (0.0525 0.006 0.015)
  create_atoms CPU = 0.000 seconds
create_atoms 3 single -0.0304 0.0 0.0
Created 1 atoms
  using lattice units in orthogonal box = (-0.0525 -0.006 -0.015) to (0.0525 0.006 0.015)
  create_atoms CPU = 0.000 seconds
create_atoms 3 single -0.029766666666666667 0.0 0.0
Created 1 atoms
  using lattice units in orthogonal box = (-0.0525 -0.006 -0.015) to (0.0525 0.006 0.015)
  create_atoms CPU = 0.000 seconds
create_atoms 3 single -0.02913333333333333 0.0 0.0
Created 1 atoms
  using lattice units in orthogonal box = (-0.0525 -0.006 -0.015) to (0.0525 0.006 0.015)
  create_atoms CPU = 0.000 seconds
create_atoms 3 single -0.028499999999999998 0.0 0.0
Created 1 atoms
  using lattice units in orthogonal box = (-0.0525 -0.006 -0.015) to (0.0525 0.006 0.015)
  create_atoms CPU = 0.000 seconds
create_atoms 3 single -0.027866666666666665 0.0 0.0
Created 1 atoms
  using lattice units in orthogonal box = (-0.0525 -0.006 -0.015) to (0.0525 0.006 0.015)
  create_atoms CPU = 0.000 seconds
create_atoms 3 single -0.02723333333333333 0.0 0.0
Created 1 atoms
  using lattice units in orthogonal box = (-0.0525 -0.006 -0.015) to (0.0525 0.006 0.015)
  create_atoms CPU = 0.000 seconds
create_atoms 3 single -0.0266 0.0 0.0
Created 1 atoms
  using lattice units in orthogonal box = (-0.0525 -0.006 -0.015) to (0.0525 0.006 0.015)
  create_atoms CPU = 0.000 seconds
create_atoms 3 single -0.025966666666666666 0.0 0.0
Created 1 atoms
  using lattice units in orthogonal box = (-0.0525 -0.006 -0.015) to (0.0525 0.006 0.015)
  create_atoms CPU = 0.000 seconds
create_atoms 3 single -0.025333333333333333 0.0 0.0
Created 1 atoms
  using lattice units in orthogonal box = (-0.0525 -0.006 -0.015) to (0.0525 0.006 0.015)
  create_atoms CPU = 0.000 seconds
create_atoms 3 single -0.0247 0.0 0.0
Created 1 atoms
  using lattice units in orthogonal box = (-0.0525 -0.006 -0.015) to (0.0525 0.006 0.015)
  create_atoms CPU = 0.000 seconds
create_atoms 3 single -0.024066666666666667 0.0 0.0
Created 1 atoms
  using lattice units in orthogonal box = (-0.0525 -0.006 -0.015) to (0.0525 0.006 0.015)
  create_atoms CPU = 0.000 seconds
create_atoms 3 single -0.02343333333333333 0.0 0.0
Created 1 atoms
  using lattice units in orthogonal box = (-0.0525 -0.006 -0.015) to (0.0525 0.006 0.015)
  create_atoms CPU = 0.000 seconds
create_atoms 3 single -0.0228 0.0 0.0
Created 1 atoms
  using lattice units in orthogonal box = (-0.0525 -0.006 -0.015) to (0.0525 0.006 0.015)
  create_atoms CPU = 0.000 seconds
create_atoms 3 single -0.022166666666666668 0.0 0.0
Created 1 atoms
  using lattice units in orthogonal box = (-0.0525 -0.006 -0.015) to (0.0525 0.006 0.015)
  create_atoms CPU = 0.000 seconds
create_atoms 3 single -0.02153333333333333 0.0 0.0
Created 1 atoms
  using lattice units in orthogonal box = (-0.0525 -0.006 -0.015) to (0.0525 0.006 0.015)
  create_atoms CPU = 0.000 seconds
create_atoms 3 single -0.0209 0.0 0.0
Created 1 atoms
  using lattice units in orthogonal box = (-0.0525 -0.006 -0.015) to (0.0525 0.006 0.015)
  create_atoms CPU = 0.000 seconds
create_atoms 3 single -0.020266666666666665 0.0 0.0
Created 1 atoms
  using lattice units in orthogonal box = (-0.0525 -0.006 -0.015) to (0.0525 0.006 0.015)
  create_atoms CPU = 0.000 seconds
create_atoms 3 single -0.019633333333333332 0.0 0.0
Created 1 atoms
  using lattice units in orthogonal box = (-0.0525 -0.006 -0.015) to (0.0525 0.006 0.015)
  create_atoms CPU = 0.000 seconds
create_atoms 3 single -0.018999999999999996 0.0 0.0
Created 1 atoms
  using lattice units in orthogonal box = (-0.0525 -0.006 -0.015) to (0.0525 0.006 0.015)
  create_atoms CPU = 0.000 seconds
create_atoms 3 single -0.018366666666666663 0.0 0.0
Created 1 atoms
  using lattice units in orthogonal box = (-0.0525 -0.006 -0.015) to (0.0525 0.006 0.015)
  create_atoms CPU = 0.000 seconds
create_atoms 3 single -0.01773333333333333 0.0 0.0
Created 1 atoms
  using lattice units in orthogonal box = (-0.0525 -0.006 -0.015) to (0.0525 0.006 0.015)
  create_atoms CPU = 0.000 seconds
create_atoms 3 single -0.0171 0.0 0.0
Created 1 atoms
  using lattice units in orthogonal box = (-0.0525 -0.006 -0.015) to (0.0525 0.006 0.015)
  create_atoms CPU = 0.000 seconds
create_atoms 3 single -0.016466666666666668 0.0 0.0
Created 1 atoms
  using lattice units in orthogonal box = (-0.0525 -0.006 -0.015) to (0.0525 0.006 0.015)
  create_atoms CPU = 0.000 seconds
create_atoms 3 single -0.01583333333333333 0.0 0.0
Created 1 atoms
  using lattice units in orthogonal box = (-0.0525 -0.006 -0.015) to (0.0525 0.006 0.015)
  create_atoms CPU = 0.000 seconds
create_atoms 3 single -0.015199999999999998 0.0 0.0
Created 1 atoms
  using lattice units in orthogonal box = (-0.0525 -0.006 -0.015) to (0.0525 0.006 0.015)
  create_atoms CPU = 0.000 seconds
create_atoms 3 single -0.014566666666666665 0.0 0.0
Created 1 atoms
  using lattice units in orthogonal box = (-0.0525 -0.006 -0.015) to (0.0525 0.006 0.015)
  create_atoms CPU = 0.000 seconds
create_atoms 3 single -0.013933333333333332 0.0 0.0
Created 1 atoms
  using lattice units in orthogonal box = (-0.0525 -0.006 -0.015) to (0.0525 0.006 0.015)
  create_atoms CPU = 0.000 seconds
create_atoms 3 single -0.0133 0.0 0.0
Created 1 atoms
  using lattice units in orthogonal box = (-0.0525 -0.006 -0.015) to (0.0525 0.006 0.015)
  create_atoms CPU = 0.000 seconds
create_atoms 3 single -0.012666666666666666 0.0 0.0
Created 1 atoms
  using lattice units in orthogonal box = (-0.0525 -0.006 -0.015) to (0.0525 0.006 0.015)
  create_atoms CPU = 0.000 seconds
create_atoms 3 single -0.012033333333333333 0.0 0.0
Created 1 atoms
  using lattice units in orthogonal box = (-0.0525 -0.006 -0.015) to (0.0525 0.006 0.015)
  create_atoms CPU = 0.000 seconds
create_atoms 3 single -0.0114 0.0 0.0
Created 1 atoms
  using lattice units in orthogonal box = (-0.0525 -0.006 -0.015) to (0.0525 0.006 0.015)
  create_atoms CPU = 0.000 seconds
create_atoms 3 single -0.01076666666666666 0.0 0.0
Created 1 atoms
  using lattice units in orthogonal box = (-0.0525 -0.006 -0.015) to (0.0525 0.006 0.015)
  create_atoms CPU = 0.000 seconds
create_atoms 3 single -0.010133333333333328 0.0 0.0
Created 1 atoms
  using lattice units in orthogonal box = (-0.0525 -0.006 -0.015) to (0.0525 0.006 0.015)
  create_atoms CPU = 0.000 seconds
create_atoms 3 single -0.009499999999999995 0.0 0.0
Created 1 atoms
  using lattice units in orthogonal box = (-0.0525 -0.006 -0.015) to (0.0525 0.006 0.015)
  create_atoms CPU = 0.000 seconds
create_atoms 3 single -0.008866666666666669 0.0 0.0
Created 1 atoms
  using lattice units in orthogonal box = (-0.0525 -0.006 -0.015) to (0.0525 0.006 0.015)
  create_atoms CPU = 0.000 seconds
create_atoms 3 single -0.008233333333333329 0.0 0.0
Created 1 atoms
  using lattice units in orthogonal box = (-0.0525 -0.006 -0.015) to (0.0525 0.006 0.015)
  create_atoms CPU = 0.000 seconds
create_atoms 3 single -0.007599999999999996 0.0 0.0
Created 1 atoms
  using lattice units in orthogonal box = (-0.0525 -0.006 -0.015) to (0.0525 0.006 0.015)
  create_atoms CPU = 0.000 seconds
create_atoms 3 single -0.006966666666666663 0.0 0.0
Created 1 atoms
  using lattice units in orthogonal box = (-0.0525 -0.006 -0.015) to (0.0525 0.006 0.015)
  create_atoms CPU = 0.000 seconds
create_atoms 3 single -0.00633333333333333 0.0 0.0
Created 1 atoms
  using lattice units in orthogonal box = (-0.0525 -0.006 -0.015) to (0.0525 0.006 0.015)
  create_atoms CPU = 0.000 seconds
create_atoms 3 single -0.005699999999999997 0.0 0.0
Created 1 atoms
  using lattice units in orthogonal box = (-0.0525 -0.006 -0.015) to (0.0525 0.006 0.015)
  create_atoms CPU = 0.000 seconds
create_atoms 3 single -0.005066666666666664 0.0 0.0
Created 1 atoms
  using lattice units in orthogonal box = (-0.0525 -0.006 -0.015) to (0.0525 0.006 0.015)
  create_atoms CPU = 0.000 seconds
create_atoms 3 single -0.004433333333333331 0.0 0.0
Created 1 atoms
  using lattice units in orthogonal box = (-0.0525 -0.006 -0.015) to (0.0525 0.006 0.015)
  create_atoms CPU = 0.000 seconds
create_atoms 3 single -0.003799999999999998 0.0 0.0
Created 1 atoms
  using lattice units in orthogonal box = (-0.0525 -0.006 -0.015) to (0.0525 0.006 0.015)
  create_atoms CPU = 0.000 seconds
create_atoms 3 single -0.003166666666666665 0.0 0.0
Created 1 atoms
  using lattice units in orthogonal box = (-0.0525 -0.006 -0.015) to (0.0525 0.006 0.015)
  create_atoms CPU = 0.000 seconds
create_atoms 3 single -0.002533333333333332 0.0 0.0
Created 1 atoms
  using lattice units in orthogonal box = (-0.0525 -0.006 -0.015) to (0.0525 0.006 0.015)
  create_atoms CPU = 0.000 seconds
create_atoms 3 single -0.001899999999999999 0.0 0.0
Created 1 atoms
  using lattice units in orthogonal box = (-0.0525 -0.006 -0.015) to (0.0525 0.006 0.015)
  create_atoms CPU = 0.000 seconds
create_atoms 3 single -0.001266666666666666 0.0 0.0
Created 1 atoms
  using lattice units in orthogonal box = (-0.0525 -0.006 -0.015) to (0.0525 0.006 0.015)
  create_atoms CPU = 0.000 seconds
create_atoms 3 single -0.000633333333333333 0.0 0.0
Created 1 atoms
  using lattice units in orthogonal box = (-0.0525 -0.006 -0.015) to (0.0525 0.006 0.015)
  create_atoms CPU = 0.000 seconds
create_atoms 3 single 0.0 0.0 0.0
Created 1 atoms
  using lattice units in orthogonal box = (-0.0525 -0.006 -0.015) to (0.0525 0.006 0.015)
  create_atoms CPU = 0.000 seconds
create_atoms 3 single 0.0006333333333333399 0.0 0.0
Created 1 atoms
  using lattice units in orthogonal box = (-0.0525 -0.006 -0.015) to (0.0525 0.006 0.015)
  create_atoms CPU = 0.000 seconds
create_atoms 3 single 0.0012666666666666729 0.0 0.0
Created 1 atoms
  using lattice units in orthogonal box = (-0.0525 -0.006 -0.015) to (0.0525 0.006 0.015)
  create_atoms CPU = 0.000 seconds
create_atoms 3 single 0.001899999999999999 0.0 0.0
Created 1 atoms
  using lattice units in orthogonal box = (-0.0525 -0.006 -0.015) to (0.0525 0.006 0.015)
  create_atoms CPU = 0.000 seconds
create_atoms 3 single 0.002533333333333339 0.0 0.0
Created 1 atoms
  using lattice units in orthogonal box = (-0.0525 -0.006 -0.015) to (0.0525 0.006 0.015)
  create_atoms CPU = 0.000 seconds
create_atoms 3 single 0.003166666666666665 0.0 0.0
Created 1 atoms
  using lattice units in orthogonal box = (-0.0525 -0.006 -0.015) to (0.0525 0.006 0.015)
  create_atoms CPU = 0.000 seconds
create_atoms 3 single 0.0038000000000000048 0.0 0.0
Created 1 atoms
  using lattice units in orthogonal box = (-0.0525 -0.006 -0.015) to (0.0525 0.006 0.015)
  create_atoms CPU = 0.000 seconds
create_atoms 3 single 0.004433333333333338 0.0 0.0
Created 1 atoms
  using lattice units in orthogonal box = (-0.0525 -0.006 -0.015) to (0.0525 0.006 0.015)
  create_atoms CPU = 0.000 seconds
create_atoms 3 single 0.005066666666666671 0.0 0.0
Created 1 atoms
  using lattice units in orthogonal box = (-0.0525 -0.006 -0.015) to (0.0525 0.006 0.015)
  create_atoms CPU = 0.000 seconds
create_atoms 3 single 0.005700000000000004 0.0 0.0
Created 1 atoms
  using lattice units in orthogonal box = (-0.0525 -0.006 -0.015) to (0.0525 0.006 0.015)
  create_atoms CPU = 0.000 seconds
create_atoms 3 single 0.00633333333333333 0.0 0.0
Created 1 atoms
  using lattice units in orthogonal box = (-0.0525 -0.006 -0.015) to (0.0525 0.006 0.015)
  create_atoms CPU = 0.000 seconds
create_atoms 3 single 0.00696666666666667 0.0 0.0
Created 1 atoms
  using lattice units in orthogonal box = (-0.0525 -0.006 -0.015) to (0.0525 0.006 0.015)
  create_atoms CPU = 0.000 seconds
create_atoms 3 single 0.0076000000000000095 0.0 0.0
Created 1 atoms
  using lattice units in orthogonal box = (-0.0525 -0.006 -0.015) to (0.0525 0.006 0.015)
  create_atoms CPU = 0.000 seconds
create_atoms 3 single 0.008233333333333336 0.0 0.0
Created 1 atoms
  using lattice units in orthogonal box = (-0.0525 -0.006 -0.015) to (0.0525 0.006 0.015)
  create_atoms CPU = 0.000 seconds
create_atoms 3 single 0.008866666666666669 0.0 0.0
Created 1 atoms
  using lattice units in orthogonal box = (-0.0525 -0.006 -0.015) to (0.0525 0.006 0.015)
  create_atoms CPU = 0.000 seconds
create_atoms 3 single 0.009500000000000008 0.0 0.0
Created 1 atoms
  using lattice units in orthogonal box = (-0.0525 -0.006 -0.015) to (0.0525 0.006 0.015)
  create_atoms CPU = 0.000 seconds
create_atoms 3 single 0.010133333333333334 0.0 0.0
Created 1 atoms
  using lattice units in orthogonal box = (-0.0525 -0.006 -0.015) to (0.0525 0.006 0.015)
  create_atoms CPU = 0.000 seconds
create_atoms 3 single 0.010766666666666674 0.0 0.0
Created 1 atoms
  using lattice units in orthogonal box = (-0.0525 -0.006 -0.015) to (0.0525 0.006 0.015)
  create_atoms CPU = 0.000 seconds
create_atoms 3 single 0.0114 0.0 0.0
Created 1 atoms
  using lattice units in orthogonal box = (-0.0525 -0.006 -0.015) to (0.0525 0.006 0.015)
  create_atoms CPU = 0.000 seconds
create_atoms 3 single 0.01203333333333334 0.0 0.0
Created 1 atoms
  using lattice units in orthogonal box = (-0.0525 -0.006 -0.015) to (0.0525 0.006 0.015)
  create_atoms CPU = 0.000 seconds
create_atoms 3 single 0.012666666666666673 0.0 0.0
Created 1 atoms
  using lattice units in orthogonal box = (-0.0525 -0.006 -0.015) to (0.0525 0.006 0.015)
  create_atoms CPU = 0.000 seconds
create_atoms 3 single 0.0133 0.0 0.0
Created 1 atoms
  using lattice units in orthogonal box = (-0.0525 -0.006 -0.015) to (0.0525 0.006 0.015)
  create_atoms CPU = 0.000 seconds
create_atoms 3 single 0.01393333333333334 0.0 0.0
Created 1 atoms
  using lattice units in orthogonal box = (-0.0525 -0.006 -0.015) to (0.0525 0.006 0.015)
  create_atoms CPU = 0.000 seconds
create_atoms 3 single 0.014566666666666665 0.0 0.0
Created 1 atoms
  using lattice units in orthogonal box = (-0.0525 -0.006 -0.015) to (0.0525 0.006 0.015)
  create_atoms CPU = 0.000 seconds
create_atoms 3 single 0.015200000000000005 0.0 0.0
Created 1 atoms
  using lattice units in orthogonal box = (-0.0525 -0.006 -0.015) to (0.0525 0.006 0.015)
  create_atoms CPU = 0.000 seconds
create_atoms 3 single 0.015833333333333338 0.0 0.0
Created 1 atoms
  using lattice units in orthogonal box = (-0.0525 -0.006 -0.015) to (0.0525 0.006 0.015)
  create_atoms CPU = 0.000 seconds
create_atoms 3 single 0.01646666666666667 0.0 0.0
Created 1 atoms
  using lattice units in orthogonal box = (-0.0525 -0.006 -0.015) to (0.0525 0.006 0.015)
  create_atoms CPU = 0.000 seconds
create_atoms 3 single 0.017100000000000004 0.0 0.0
Created 1 atoms
  using lattice units in orthogonal box = (-0.0525 -0.006 -0.015) to (0.0525 0.006 0.015)
  create_atoms CPU = 0.000 seconds
create_atoms 3 single 0.017733333333333337 0.0 0.0
Created 1 atoms
  using lattice units in orthogonal box = (-0.0525 -0.006 -0.015) to (0.0525 0.006 0.015)
  create_atoms CPU = 0.000 seconds
create_atoms 3 single 0.01836666666666667 0.0 0.0
Created 1 atoms
  using lattice units in orthogonal box = (-0.0525 -0.006 -0.015) to (0.0525 0.006 0.015)
  create_atoms CPU = 0.000 seconds
create_atoms 3 single 0.019000000000000003 0.0 0.0
Created 1 atoms
  using lattice units in orthogonal box = (-0.0525 -0.006 -0.015) to (0.0525 0.006 0.015)
  create_atoms CPU = 0.000 seconds
create_atoms 3 single 0.019633333333333336 0.0 0.0
Created 1 atoms
  using lattice units in orthogonal box = (-0.0525 -0.006 -0.015) to (0.0525 0.006 0.015)
  create_atoms CPU = 0.000 seconds
create_atoms 3 single 0.02026666666666667 0.0 0.0
Created 1 atoms
  using lattice units in orthogonal box = (-0.0525 -0.006 -0.015) to (0.0525 0.006 0.015)
  create_atoms CPU = 0.000 seconds
create_atoms 3 single 0.020900000000000002 0.0 0.0
Created 1 atoms
  using lattice units in orthogonal box = (-0.0525 -0.006 -0.015) to (0.0525 0.006 0.015)
  create_atoms CPU = 0.000 seconds
create_atoms 3 single 0.021533333333333335 0.0 0.0
Created 1 atoms
  using lattice units in orthogonal box = (-0.0525 -0.006 -0.015) to (0.0525 0.006 0.015)
  create_atoms CPU = 0.000 seconds
create_atoms 3 single 0.022166666666666668 0.0 0.0
Created 1 atoms
  using lattice units in orthogonal box = (-0.0525 -0.006 -0.015) to (0.0525 0.006 0.015)
  create_atoms CPU = 0.000 seconds
create_atoms 3 single 0.022800000000000015 0.0 0.0
Created 1 atoms
  using lattice units in orthogonal box = (-0.0525 -0.006 -0.015) to (0.0525 0.006 0.015)
  create_atoms CPU = 0.000 seconds
create_atoms 3 single 0.023433333333333334 0.0 0.0
Created 1 atoms
  using lattice units in orthogonal box = (-0.0525 -0.006 -0.015) to (0.0525 0.006 0.015)
  create_atoms CPU = 0.000 seconds
create_atoms 3 single 0.02406666666666668 0.0 0.0
Created 1 atoms
  using lattice units in orthogonal box = (-0.0525 -0.006 -0.015) to (0.0525 0.006 0.015)
  create_atoms CPU = 0.000 seconds
create_atoms 3 single 0.0247 0.0 0.0
Created 1 atoms
  using lattice units in orthogonal box = (-0.0525 -0.006 -0.015) to (0.0525 0.006 0.015)
  create_atoms CPU = 0.000 seconds
create_atoms 3 single 0.025333333333333333 0.0 0.0
Created 1 atoms
  using lattice units in orthogonal box = (-0.0525 -0.006 -0.015) to (0.0525 0.006 0.015)
  create_atoms CPU = 0.000 seconds
create_atoms 3 single 0.02596666666666668 0.0 0.0
Created 1 atoms
  using lattice units in orthogonal box = (-0.0525 -0.006 -0.015) to (0.0525 0.006 0.015)
  create_atoms CPU = 0.000 seconds
create_atoms 3 single 0.0266 0.0 0.0
Created 1 atoms
  using lattice units in orthogonal box = (-0.0525 -0.006 -0.015) to (0.0525 0.006 0.015)
  create_atoms CPU = 0.000 seconds
create_atoms 3 single 0.027233333333333345 0.0 0.0
Created 1 atoms
  using lattice units in orthogonal box = (-0.0525 -0.006 -0.015) to (0.0525 0.006 0.015)
  create_atoms CPU = 0.000 seconds
create_atoms 3 single 0.027866666666666665 0.0 0.0
Created 1 atoms
  using lattice units in orthogonal box = (-0.0525 -0.006 -0.015) to (0.0525 0.006 0.015)
  create_atoms CPU = 0.000 seconds
create_atoms 3 single 0.02850000000000001 0.0 0.0
Created 1 atoms
  using lattice units in orthogonal box = (-0.0525 -0.006 -0.015) to (0.0525 0.006 0.015)
  create_atoms CPU = 0.000 seconds
create_atoms 3 single 0.029133333333333344 0.0 0.0
Created 1 atoms
  using lattice units in orthogonal box = (-0.0525 -0.006 -0.015) to (0.0525 0.006 0.015)
  create_atoms CPU = 0.000 seconds
create_atoms 3 single 0.029766666666666663 0.0 0.0
Created 1 atoms
  using lattice units in orthogonal box = (-0.0525 -0.006 -0.015) to (0.0525 0.006 0.015)
  create_atoms CPU = 0.000 seconds
create_atoms 3 single 0.03040000000000001 0.0 0.0
Created 1 atoms
  using lattice units in orthogonal box = (-0.0525 -0.006 -0.015) to (0.0525 0.006 0.015)
  create_atoms CPU = 0.000 seconds
create_atoms 3 single 0.031033333333333343 0.0 0.0
Created 1 atoms
  using lattice units in orthogonal box = (-0.0525 -0.006 -0.015) to (0.0525 0.006 0.015)
  create_atoms CPU = 0.000 seconds
create_atoms 3 single 0.031666666666666676 0.0 0.0
Created 1 atoms
  using lattice units in orthogonal box = (-0.0525 -0.006 -0.015) to (0.0525 0.006 0.015)
  create_atoms CPU = 0.000 seconds
create_atoms 3 single 0.03230000000000001 0.0 0.0
Created 1 atoms
  using lattice units in orthogonal box = (-0.0525 -0.006 -0.015) to (0.0525 0.006 0.015)
  create_atoms CPU = 0.000 seconds
create_atoms 3 single 0.03293333333333333 0.0 0.0
Created 1 atoms
  using lattice units in orthogonal box = (-0.0525 -0.006 -0.015) to (0.0525 0.006 0.015)
  create_atoms CPU = 0.000 seconds
create_atoms 3 single 0.033566666666666675 0.0 0.0
Created 1 atoms
  using lattice units in orthogonal box = (-0.0525 -0.006 -0.015) to (0.0525 0.006 0.015)
  create_atoms CPU = 0.000 seconds
create_atoms 3 single 0.03420000000000001 0.0 0.0
Created 1 atoms
  using lattice units in orthogonal box = (-0.0525 -0.006 -0.015) to (0.0525 0.006 0.015)
  create_atoms CPU = 0.000 seconds
create_atoms 3 single 0.03483333333333334 0.0 0.0
Created 1 atoms
  using lattice units in orthogonal box = (-0.0525 -0.006 -0.015) to (0.0525 0.006 0.015)
  create_atoms CPU = 0.000 seconds
create_atoms 3 single 0.035466666666666674 0.0 0.0
Created 1 atoms
  using lattice units in orthogonal box = (-0.0525 -0.006 -0.015) to (0.0525 0.006 0.015)
  create_atoms CPU = 0.000 seconds
create_atoms 3 single 0.03610000000000001 0.0 0.0
Created 1 atoms
  using lattice units in orthogonal box = (-0.0525 -0.006 -0.015) to (0.0525 0.006 0.015)
  create_atoms CPU = 0.000 seconds
create_atoms 3 single 0.03673333333333334 0.0 0.0
Created 1 atoms
  using lattice units in orthogonal box = (-0.0525 -0.006 -0.015) to (0.0525 0.006 0.015)
  create_atoms CPU = 0.000 seconds
create_atoms 3 single 0.03736666666666667 0.0 0.0
Created 1 atoms
  using lattice units in orthogonal box = (-0.0525 -0.006 -0.015) to (0.0525 0.006 0.015)
  create_atoms CPU = 0.000 seconds
create_atoms 3 single 0.038000000000000006 0.0 0.0
Created 1 atoms
  using lattice units in orthogonal box = (-0.0525 -0.006 -0.015) to (0.0525 0.006 0.015)
  create_atoms CPU = 0.000 seconds
create_atoms 3 single 0.03863333333333334 0.0 0.0
Created 1 atoms
  using lattice units in orthogonal box = (-0.0525 -0.006 -0.015) to (0.0525 0.006 0.015)
  create_atoms CPU = 0.000 seconds
create_atoms 3 single 0.03926666666666667 0.0 0.0
Created 1 atoms
  using lattice units in orthogonal box = (-0.0525 -0.006 -0.015) to (0.0525 0.006 0.015)
  create_atoms CPU = 0.000 seconds
create_atoms 3 single 0.039900000000000005 0.0 0.0
Created 1 atoms
  using lattice units in orthogonal box = (-0.0525 -0.006 -0.015) to (0.0525 0.006 0.015)
  create_atoms CPU = 0.000 seconds
create_atoms 3 single 0.04053333333333334 0.0 0.0
Created 1 atoms
  using lattice units in orthogonal box = (-0.0525 -0.006 -0.015) to (0.0525 0.006 0.015)
  create_atoms CPU = 0.000 seconds
create_atoms 3 single 0.04116666666666667 0.0 0.0
Created 1 atoms
  using lattice units in orthogonal box = (-0.0525 -0.006 -0.015) to (0.0525 0.006 0.015)
  create_atoms CPU = 0.000 seconds
create_atoms 3 single 0.041800000000000004 0.0 0.0
Created 1 atoms
  using lattice units in orthogonal box = (-0.0525 -0.006 -0.015) to (0.0525 0.006 0.015)
  create_atoms CPU = 0.000 seconds
create_atoms 3 single 0.04243333333333334 0.0 0.0
Created 1 atoms
  using lattice units in orthogonal box = (-0.0525 -0.006 -0.015) to (0.0525 0.006 0.015)
  create_atoms CPU = 0.000 seconds
create_atoms 3 single 0.04306666666666667 0.0 0.0
Created 1 atoms
  using lattice units in orthogonal box = (-0.0525 -0.006 -0.015) to (0.0525 0.006 0.015)
  create_atoms CPU = 0.000 seconds
create_atoms 3 single 0.0437 0.0 0.0
Created 1 atoms
  using lattice units in orthogonal box = (-0.0525 -0.006 -0.015) to (0.0525 0.006 0.015)
  create_atoms CPU = 0.000 seconds
create_atoms 3 single 0.044333333333333336 0.0 0.0
Created 1 atoms
  using lattice units in orthogonal box = (-0.0525 -0.006 -0.015) to (0.0525 0.006 0.015)
  create_atoms CPU = 0.000 seconds
create_atoms 3 single 0.04496666666666667 0.0 0.0
Created 1 atoms
  using lattice units in orthogonal box = (-0.0525 -0.006 -0.015) to (0.0525 0.006 0.015)
  create_atoms CPU = 0.000 seconds
create_atoms 3 single 0.045600000000000016 0.0 0.0
Created 1 atoms
  using lattice units in orthogonal box = (-0.0525 -0.006 -0.015) to (0.0525 0.006 0.015)
  create_atoms CPU = 0.000 seconds
create_atoms 3 single 0.046233333333333335 0.0 0.0
Created 1 atoms
  using lattice units in orthogonal box = (-0.0525 -0.006 -0.015) to (0.0525 0.006 0.015)
  create_atoms CPU = 0.000 seconds
create_atoms 3 single 0.04686666666666667 0.0 0.0
Created 1 atoms
  using lattice units in orthogonal box = (-0.0525 -0.006 -0.015) to (0.0525 0.006 0.015)
  create_atoms CPU = 0.000 seconds
set type 3 diameter 0.002
Setting atom values ...
  149 settings made for diameter
set type 3 density 0.5
Setting atom values ...
  149 settings made for density
pair_coeff 3 3 granular hertz/material 0 0 0.5 tangential linear_nohistory 0 0

group group_move_1 id 2
1 atoms in group group_move_1
fix fix_move_1 group_move_1 move linear NULL NULL NULL

group group_move_2 id 1
1 atoms in group group_move_2
fix fix_move_2 group_move_2 move linear 0 0 0

group group_move_3 id 3
1 atoms in group group_move_3
fix fix_move_3 group_move_3 move linear 0 0 0
bond_coeff 1 3031.5789473684213 0.0006333333333333333
include structure/bond_1.txt
create_bonds single/bond 1 3 4
Finding 1-2 1-3 1-4 neighbors ...
  special bond factors lj:    0        1        1       
  special bond factors coul:  0        1        1       
     1 = max # of 1-2 neighbors
     1 = max # of special neighbors
  special bonds CPU = 0.000 seconds
create_bonds single/bond 1 4 5
Finding 1-2 1-3 1-4 neighbors ...
  special bond factors lj:    0        1        1       
  special bond factors coul:  0        1        1       
     2 = max # of 1-2 neighbors
     2 = max # of special neighbors
  special bonds CPU = 0.000 seconds
create_bonds single/bond 1 5 6
Finding 1-2 1-3 1-4 neighbors ...
  special bond factors lj:    0        1        1       
  special bond factors coul:  0        1        1       
     2 = max # of 1-2 neighbors
     2 = max # of special neighbors
  special bonds CPU = 0.000 seconds
create_bonds single/bond 1 6 7
Finding 1-2 1-3 1-4 neighbors ...
  special bond factors lj:    0        1        1       
  special bond factors coul:  0        1        1       
     2 = max # of 1-2 neighbors
     2 = max # of special neighbors
  special bonds CPU = 0.000 seconds
create_bonds single/bond 1 7 8
Finding 1-2 1-3 1-4 neighbors ...
  special bond factors lj:    0        1        1       
  special bond factors coul:  0        1        1       
     2 = max # of 1-2 neighbors
     2 = max # of special neighbors
  special bonds CPU = 0.000 seconds
create_bonds single/bond 1 8 9
Finding 1-2 1-3 1-4 neighbors ...
  special bond factors lj:    0        1        1       
  special bond factors coul:  0        1        1       
     2 = max # of 1-2 neighbors
     2 = max # of special neighbors
  special bonds CPU = 0.000 seconds
create_bonds single/bond 1 9 10
Finding 1-2 1-3 1-4 neighbors ...
  special bond factors lj:    0        1        1       
  special bond factors coul:  0        1        1       
     2 = max # of 1-2 neighbors
     2 = max # of special neighbors
  special bonds CPU = 0.000 seconds
create_bonds single/bond 1 10 11
Finding 1-2 1-3 1-4 neighbors ...
  special bond factors lj:    0        1        1       
  special bond factors coul:  0        1        1       
     2 = max # of 1-2 neighbors
     2 = max # of special neighbors
  special bonds CPU = 0.000 seconds
create_bonds single/bond 1 11 12
Finding 1-2 1-3 1-4 neighbors ...
  special bond factors lj:    0        1        1       
  special bond factors coul:  0        1        1       
     2 = max # of 1-2 neighbors
     2 = max # of special neighbors
  special bonds CPU = 0.000 seconds
create_bonds single/bond 1 12 13
Finding 1-2 1-3 1-4 neighbors ...
  special bond factors lj:    0        1        1       
  special bond factors coul:  0        1        1       
     2 = max # of 1-2 neighbors
     2 = max # of special neighbors
  special bonds CPU = 0.000 seconds
create_bonds single/bond 1 13 14
Finding 1-2 1-3 1-4 neighbors ...
  special bond factors lj:    0        1        1       
  special bond factors coul:  0        1        1       
     2 = max # of 1-2 neighbors
     2 = max # of special neighbors
  special bonds CPU = 0.000 seconds
create_bonds single/bond 1 14 15
Finding 1-2 1-3 1-4 neighbors ...
  special bond factors lj:    0        1        1       
  special bond factors coul:  0        1        1       
     2 = max # of 1-2 neighbors
     2 = max # of special neighbors
  special bonds CPU = 0.000 seconds
create_bonds single/bond 1 15 16
Finding 1-2 1-3 1-4 neighbors ...
  special bond factors lj:    0        1        1       
  special bond factors coul:  0        1        1       
     2 = max # of 1-2 neighbors
     2 = max # of special neighbors
  special bonds CPU = 0.000 seconds
create_bonds single/bond 1 16 17
Finding 1-2 1-3 1-4 neighbors ...
  special bond factors lj:    0        1        1       
  special bond factors coul:  0        1        1       
     2 = max # of 1-2 neighbors
     2 = max # of special neighbors
  special bonds CPU = 0.000 seconds
create_bonds single/bond 1 17 18
Finding 1-2 1-3 1-4 neighbors ...
  special bond factors lj:    0        1        1       
  special bond factors coul:  0        1        1       
     2 = max # of 1-2 neighbors
     2 = max # of special neighbors
  special bonds CPU = 0.000 seconds
create_bonds single/bond 1 18 19
Finding 1-2 1-3 1-4 neighbors ...
  special bond factors lj:    0        1        1       
  special bond factors coul:  0        1        1       
     2 = max # of 1-2 neighbors
     2 = max # of special neighbors
  special bonds CPU = 0.000 seconds
create_bonds single/bond 1 19 20
Finding 1-2 1-3 1-4 neighbors ...
  special bond factors lj:    0        1        1       
  special bond factors coul:  0        1        1       
     2 = max # of 1-2 neighbors
     2 = max # of special neighbors
  special bonds CPU = 0.000 seconds
create_bonds single/bond 1 20 21
Finding 1-2 1-3 1-4 neighbors ...
  special bond factors lj:    0        1        1       
  special bond factors coul:  0        1        1       
     2 = max # of 1-2 neighbors
     2 = max # of special neighbors
  special bonds CPU = 0.000 seconds
create_bonds single/bond 1 21 22
Finding 1-2 1-3 1-4 neighbors ...
  special bond factors lj:    0        1        1       
  special bond factors coul:  0        1        1       
     2 = max # of 1-2 neighbors
     2 = max # of special neighbors
  special bonds CPU = 0.000 seconds
create_bonds single/bond 1 22 23
Finding 1-2 1-3 1-4 neighbors ...
  special bond factors lj:    0        1        1       
  special bond factors coul:  0        1        1       
     2 = max # of 1-2 neighbors
     2 = max # of special neighbors
  special bonds CPU = 0.000 seconds
create_bonds single/bond 1 23 24
Finding 1-2 1-3 1-4 neighbors ...
  special bond factors lj:    0        1        1       
  special bond factors coul:  0        1        1       
     2 = max # of 1-2 neighbors
     2 = max # of special neighbors
  special bonds CPU = 0.000 seconds
create_bonds single/bond 1 24 25
Finding 1-2 1-3 1-4 neighbors ...
  special bond factors lj:    0        1        1       
  special bond factors coul:  0        1        1       
     2 = max # of 1-2 neighbors
     2 = max # of special neighbors
  special bonds CPU = 0.000 seconds
create_bonds single/bond 1 25 26
Finding 1-2 1-3 1-4 neighbors ...
  special bond factors lj:    0        1        1       
  special bond factors coul:  0        1        1       
     2 = max # of 1-2 neighbors
     2 = max # of special neighbors
  special bonds CPU = 0.000 seconds
create_bonds single/bond 1 26 27
Finding 1-2 1-3 1-4 neighbors ...
  special bond factors lj:    0        1        1       
  special bond factors coul:  0        1        1       
     2 = max # of 1-2 neighbors
     2 = max # of special neighbors
  special bonds CPU = 0.000 seconds
create_bonds single/bond 1 27 28
Finding 1-2 1-3 1-4 neighbors ...
  special bond factors lj:    0        1        1       
  special bond factors coul:  0        1        1       
     2 = max # of 1-2 neighbors
     2 = max # of special neighbors
  special bonds CPU = 0.000 seconds
create_bonds single/bond 1 28 29
Finding 1-2 1-3 1-4 neighbors ...
  special bond factors lj:    0        1        1       
  special bond factors coul:  0        1        1       
     2 = max # of 1-2 neighbors
     2 = max # of special neighbors
  special bonds CPU = 0.000 seconds
create_bonds single/bond 1 29 30
Finding 1-2 1-3 1-4 neighbors ...
  special bond factors lj:    0        1        1       
  special bond factors coul:  0        1        1       
     2 = max # of 1-2 neighbors
     2 = max # of special neighbors
  special bonds CPU = 0.000 seconds
create_bonds single/bond 1 30 31
Finding 1-2 1-3 1-4 neighbors ...
  special bond factors lj:    0        1        1       
  special bond factors coul:  0        1        1       
     2 = max # of 1-2 neighbors
     2 = max # of special neighbors
  special bonds CPU = 0.000 seconds
create_bonds single/bond 1 31 32
Finding 1-2 1-3 1-4 neighbors ...
  special bond factors lj:    0        1        1       
  special bond factors coul:  0        1        1       
     2 = max # of 1-2 neighbors
     2 = max # of special neighbors
  special bonds CPU = 0.000 seconds
create_bonds single/bond 1 32 33
Finding 1-2 1-3 1-4 neighbors ...
  special bond factors lj:    0        1        1       
  special bond factors coul:  0        1        1       
     2 = max # of 1-2 neighbors
     2 = max # of special neighbors
  special bonds CPU = 0.000 seconds
create_bonds single/bond 1 33 34
Finding 1-2 1-3 1-4 neighbors ...
  special bond factors lj:    0        1        1       
  special bond factors coul:  0        1        1       
     2 = max # of 1-2 neighbors
     2 = max # of special neighbors
  special bonds CPU = 0.000 seconds
create_bonds single/bond 1 34 35
Finding 1-2 1-3 1-4 neighbors ...
  special bond factors lj:    0        1        1       
  special bond factors coul:  0        1        1       
     2 = max # of 1-2 neighbors
     2 = max # of special neighbors
  special bonds CPU = 0.000 seconds
create_bonds single/bond 1 35 36
Finding 1-2 1-3 1-4 neighbors ...
  special bond factors lj:    0        1        1       
  special bond factors coul:  0        1        1       
     2 = max # of 1-2 neighbors
     2 = max # of special neighbors
  special bonds CPU = 0.000 seconds
create_bonds single/bond 1 36 37
Finding 1-2 1-3 1-4 neighbors ...
  special bond factors lj:    0        1        1       
  special bond factors coul:  0        1        1       
     2 = max # of 1-2 neighbors
     2 = max # of special neighbors
  special bonds CPU = 0.000 seconds
create_bonds single/bond 1 37 38
Finding 1-2 1-3 1-4 neighbors ...
  special bond factors lj:    0        1        1       
  special bond factors coul:  0        1        1       
     2 = max # of 1-2 neighbors
     2 = max # of special neighbors
  special bonds CPU = 0.000 seconds
create_bonds single/bond 1 38 39
Finding 1-2 1-3 1-4 neighbors ...
  special bond factors lj:    0        1        1       
  special bond factors coul:  0        1        1       
     2 = max # of 1-2 neighbors
     2 = max # of special neighbors
  special bonds CPU = 0.000 seconds
create_bonds single/bond 1 39 40
Finding 1-2 1-3 1-4 neighbors ...
  special bond factors lj:    0        1        1       
  special bond factors coul:  0        1        1       
     2 = max # of 1-2 neighbors
     2 = max # of special neighbors
  special bonds CPU = 0.000 seconds
create_bonds single/bond 1 40 41
Finding 1-2 1-3 1-4 neighbors ...
  special bond factors lj:    0        1        1       
  special bond factors coul:  0        1        1       
     2 = max # of 1-2 neighbors
     2 = max # of special neighbors
  special bonds CPU = 0.000 seconds
create_bonds single/bond 1 41 42
Finding 1-2 1-3 1-4 neighbors ...
  special bond factors lj:    0        1        1       
  special bond factors coul:  0        1        1       
     2 = max # of 1-2 neighbors
     2 = max # of special neighbors
  special bonds CPU = 0.000 seconds
create_bonds single/bond 1 42 43
Finding 1-2 1-3 1-4 neighbors ...
  special bond factors lj:    0        1        1       
  special bond factors coul:  0        1        1       
     2 = max # of 1-2 neighbors
     2 = max # of special neighbors
  special bonds CPU = 0.000 seconds
create_bonds single/bond 1 43 44
Finding 1-2 1-3 1-4 neighbors ...
  special bond factors lj:    0        1        1       
  special bond factors coul:  0        1        1       
     2 = max # of 1-2 neighbors
     2 = max # of special neighbors
  special bonds CPU = 0.000 seconds
create_bonds single/bond 1 44 45
Finding 1-2 1-3 1-4 neighbors ...
  special bond factors lj:    0        1        1       
  special bond factors coul:  0        1        1       
     2 = max # of 1-2 neighbors
     2 = max # of special neighbors
  special bonds CPU = 0.000 seconds
create_bonds single/bond 1 45 46
Finding 1-2 1-3 1-4 neighbors ...
  special bond factors lj:    0        1        1       
  special bond factors coul:  0        1        1       
     2 = max # of 1-2 neighbors
     2 = max # of special neighbors
  special bonds CPU = 0.000 seconds
create_bonds single/bond 1 46 47
Finding 1-2 1-3 1-4 neighbors ...
  special bond factors lj:    0        1        1       
  special bond factors coul:  0        1        1       
     2 = max # of 1-2 neighbors
     2 = max # of special neighbors
  special bonds CPU = 0.000 seconds
create_bonds single/bond 1 47 48
Finding 1-2 1-3 1-4 neighbors ...
  special bond factors lj:    0        1        1       
  special bond factors coul:  0        1        1       
     2 = max # of 1-2 neighbors
     2 = max # of special neighbors
  special bonds CPU = 0.000 seconds
create_bonds single/bond 1 48 49
Finding 1-2 1-3 1-4 neighbors ...
  special bond factors lj:    0        1        1       
  special bond factors coul:  0        1        1       
     2 = max # of 1-2 neighbors
     2 = max # of special neighbors
  special bonds CPU = 0.000 seconds
create_bonds single/bond 1 49 50
Finding 1-2 1-3 1-4 neighbors ...
  special bond factors lj:    0        1        1       
  special bond factors coul:  0        1        1       
     2 = max # of 1-2 neighbors
     2 = max # of special neighbors
  special bonds CPU = 0.000 seconds
create_bonds single/bond 1 50 51
Finding 1-2 1-3 1-4 neighbors ...
  special bond factors lj:    0        1        1       
  special bond factors coul:  0        1        1       
     2 = max # of 1-2 neighbors
     2 = max # of special neighbors
  special bonds CPU = 0.000 seconds
create_bonds single/bond 1 51 52
Finding 1-2 1-3 1-4 neighbors ...
  special bond factors lj:    0        1        1       
  special bond factors coul:  0        1        1       
     2 = max # of 1-2 neighbors
     2 = max # of special neighbors
  special bonds CPU = 0.000 seconds
create_bonds single/bond 1 52 53
Finding 1-2 1-3 1-4 neighbors ...
  special bond factors lj:    0        1        1       
  special bond factors coul:  0        1        1       
     2 = max # of 1-2 neighbors
     2 = max # of special neighbors
  special bonds CPU = 0.000 seconds
create_bonds single/bond 1 53 54
Finding 1-2 1-3 1-4 neighbors ...
  special bond factors lj:    0        1        1       
  special bond factors coul:  0        1        1       
     2 = max # of 1-2 neighbors
     2 = max # of special neighbors
  special bonds CPU = 0.000 seconds
create_bonds single/bond 1 54 55
Finding 1-2 1-3 1-4 neighbors ...
  special bond factors lj:    0        1        1       
  special bond factors coul:  0        1        1       
     2 = max # of 1-2 neighbors
     2 = max # of special neighbors
  special bonds CPU = 0.000 seconds
create_bonds single/bond 1 55 56
Finding 1-2 1-3 1-4 neighbors ...
  special bond factors lj:    0        1        1       
  special bond factors coul:  0        1        1       
     2 = max # of 1-2 neighbors
     2 = max # of special neighbors
  special bonds CPU = 0.000 seconds
create_bonds single/bond 1 56 57
Finding 1-2 1-3 1-4 neighbors ...
  special bond factors lj:    0        1        1       
  special bond factors coul:  0        1        1       
     2 = max # of 1-2 neighbors
     2 = max # of special neighbors
  special bonds CPU = 0.000 seconds
create_bonds single/bond 1 57 58
Finding 1-2 1-3 1-4 neighbors ...
  special bond factors lj:    0        1        1       
  special bond factors coul:  0        1        1       
     2 = max # of 1-2 neighbors
     2 = max # of special neighbors
  special bonds CPU = 0.000 seconds
create_bonds single/bond 1 58 59
Finding 1-2 1-3 1-4 neighbors ...
  special bond factors lj:    0        1        1       
  special bond factors coul:  0        1        1       
     2 = max # of 1-2 neighbors
     2 = max # of special neighbors
  special bonds CPU = 0.000 seconds
create_bonds single/bond 1 59 60
Finding 1-2 1-3 1-4 neighbors ...
  special bond factors lj:    0        1        1       
  special bond factors coul:  0        1        1       
     2 = max # of 1-2 neighbors
     2 = max # of special neighbors
  special bonds CPU = 0.000 seconds
create_bonds single/bond 1 60 61
Finding 1-2 1-3 1-4 neighbors ...
  special bond factors lj:    0        1        1       
  special bond factors coul:  0        1        1       
     2 = max # of 1-2 neighbors
     2 = max # of special neighbors
  special bonds CPU = 0.000 seconds
create_bonds single/bond 1 61 62
Finding 1-2 1-3 1-4 neighbors ...
  special bond factors lj:    0        1        1       
  special bond factors coul:  0        1        1       
     2 = max # of 1-2 neighbors
     2 = max # of special neighbors
  special bonds CPU = 0.000 seconds
create_bonds single/bond 1 62 63
Finding 1-2 1-3 1-4 neighbors ...
  special bond factors lj:    0        1        1       
  special bond factors coul:  0        1        1       
     2 = max # of 1-2 neighbors
     2 = max # of special neighbors
  special bonds CPU = 0.000 seconds
create_bonds single/bond 1 63 64
Finding 1-2 1-3 1-4 neighbors ...
  special bond factors lj:    0        1        1       
  special bond factors coul:  0        1        1       
     2 = max # of 1-2 neighbors
     2 = max # of special neighbors
  special bonds CPU = 0.000 seconds
create_bonds single/bond 1 64 65
Finding 1-2 1-3 1-4 neighbors ...
  special bond factors lj:    0        1        1       
  special bond factors coul:  0        1        1       
     2 = max # of 1-2 neighbors
     2 = max # of special neighbors
  special bonds CPU = 0.000 seconds
create_bonds single/bond 1 65 66
Finding 1-2 1-3 1-4 neighbors ...
  special bond factors lj:    0        1        1       
  special bond factors coul:  0        1        1       
     2 = max # of 1-2 neighbors
     2 = max # of special neighbors
  special bonds CPU = 0.000 seconds
create_bonds single/bond 1 66 67
Finding 1-2 1-3 1-4 neighbors ...
  special bond factors lj:    0        1        1       
  special bond factors coul:  0        1        1       
     2 = max # of 1-2 neighbors
     2 = max # of special neighbors
  special bonds CPU = 0.000 seconds
create_bonds single/bond 1 67 68
Finding 1-2 1-3 1-4 neighbors ...
  special bond factors lj:    0        1        1       
  special bond factors coul:  0        1        1       
     2 = max # of 1-2 neighbors
     2 = max # of special neighbors
  special bonds CPU = 0.000 seconds
create_bonds single/bond 1 68 69
Finding 1-2 1-3 1-4 neighbors ...
  special bond factors lj:    0        1        1       
  special bond factors coul:  0        1        1       
     2 = max # of 1-2 neighbors
     2 = max # of special neighbors
  special bonds CPU = 0.000 seconds
create_bonds single/bond 1 69 70
Finding 1-2 1-3 1-4 neighbors ...
  special bond factors lj:    0        1        1       
  special bond factors coul:  0        1        1       
     2 = max # of 1-2 neighbors
     2 = max # of special neighbors
  special bonds CPU = 0.000 seconds
create_bonds single/bond 1 70 71
Finding 1-2 1-3 1-4 neighbors ...
  special bond factors lj:    0        1        1       
  special bond factors coul:  0        1        1       
     2 = max # of 1-2 neighbors
     2 = max # of special neighbors
  special bonds CPU = 0.000 seconds
create_bonds single/bond 1 71 72
Finding 1-2 1-3 1-4 neighbors ...
  special bond factors lj:    0        1        1       
  special bond factors coul:  0        1        1       
     2 = max # of 1-2 neighbors
     2 = max # of special neighbors
  special bonds CPU = 0.000 seconds
create_bonds single/bond 1 72 73
Finding 1-2 1-3 1-4 neighbors ...
  special bond factors lj:    0        1        1       
  special bond factors coul:  0        1        1       
     2 = max # of 1-2 neighbors
     2 = max # of special neighbors
  special bonds CPU = 0.000 seconds
create_bonds single/bond 1 73 74
Finding 1-2 1-3 1-4 neighbors ...
  special bond factors lj:    0        1        1       
  special bond factors coul:  0        1        1       
     2 = max # of 1-2 neighbors
     2 = max # of special neighbors
  special bonds CPU = 0.000 seconds
create_bonds single/bond 1 74 75
Finding 1-2 1-3 1-4 neighbors ...
  special bond factors lj:    0        1        1       
  special bond factors coul:  0        1        1       
     2 = max # of 1-2 neighbors
     2 = max # of special neighbors
  special bonds CPU = 0.000 seconds
create_bonds single/bond 1 75 76
Finding 1-2 1-3 1-4 neighbors ...
  special bond factors lj:    0        1        1       
  special bond factors coul:  0        1        1       
     2 = max # of 1-2 neighbors
     2 = max # of special neighbors
  special bonds CPU = 0.000 seconds
create_bonds single/bond 1 76 77
Finding 1-2 1-3 1-4 neighbors ...
  special bond factors lj:    0        1        1       
  special bond factors coul:  0        1        1       
     2 = max # of 1-2 neighbors
     2 = max # of special neighbors
  special bonds CPU = 0.000 seconds
create_bonds single/bond 1 77 78
Finding 1-2 1-3 1-4 neighbors ...
  special bond factors lj:    0        1        1       
  special bond factors coul:  0        1        1       
     2 = max # of 1-2 neighbors
     2 = max # of special neighbors
  special bonds CPU = 0.000 seconds
create_bonds single/bond 1 78 79
Finding 1-2 1-3 1-4 neighbors ...
  special bond factors lj:    0        1        1       
  special bond factors coul:  0        1        1       
     2 = max # of 1-2 neighbors
     2 = max # of special neighbors
  special bonds CPU = 0.000 seconds
create_bonds single/bond 1 79 80
Finding 1-2 1-3 1-4 neighbors ...
  special bond factors lj:    0        1        1       
  special bond factors coul:  0        1        1       
     2 = max # of 1-2 neighbors
     2 = max # of special neighbors
  special bonds CPU = 0.000 seconds
create_bonds single/bond 1 80 81
Finding 1-2 1-3 1-4 neighbors ...
  special bond factors lj:    0        1        1       
  special bond factors coul:  0        1        1       
     2 = max # of 1-2 neighbors
     2 = max # of special neighbors
  special bonds CPU = 0.000 seconds
create_bonds single/bond 1 81 82
Finding 1-2 1-3 1-4 neighbors ...
  special bond factors lj:    0        1        1       
  special bond factors coul:  0        1        1       
     2 = max # of 1-2 neighbors
     2 = max # of special neighbors
  special bonds CPU = 0.000 seconds
create_bonds single/bond 1 82 83
Finding 1-2 1-3 1-4 neighbors ...
  special bond factors lj:    0        1        1       
  special bond factors coul:  0        1        1       
     2 = max # of 1-2 neighbors
     2 = max # of special neighbors
  special bonds CPU = 0.000 seconds
create_bonds single/bond 1 83 84
Finding 1-2 1-3 1-4 neighbors ...
  special bond factors lj:    0        1        1       
  special bond factors coul:  0        1        1       
     2 = max # of 1-2 neighbors
     2 = max # of special neighbors
  special bonds CPU = 0.000 seconds
create_bonds single/bond 1 84 85
Finding 1-2 1-3 1-4 neighbors ...
  special bond factors lj:    0        1        1       
  special bond factors coul:  0        1        1       
     2 = max # of 1-2 neighbors
     2 = max # of special neighbors
  special bonds CPU = 0.000 seconds
create_bonds single/bond 1 85 86
Finding 1-2 1-3 1-4 neighbors ...
  special bond factors lj:    0        1        1       
  special bond factors coul:  0        1        1       
     2 = max # of 1-2 neighbors
     2 = max # of special neighbors
  special bonds CPU = 0.000 seconds
create_bonds single/bond 1 86 87
Finding 1-2 1-3 1-4 neighbors ...
  special bond factors lj:    0        1        1       
  special bond factors coul:  0        1        1       
     2 = max # of 1-2 neighbors
     2 = max # of special neighbors
  special bonds CPU = 0.000 seconds
create_bonds single/bond 1 87 88
Finding 1-2 1-3 1-4 neighbors ...
  special bond factors lj:    0        1        1       
  special bond factors coul:  0        1        1       
     2 = max # of 1-2 neighbors
     2 = max # of special neighbors
  special bonds CPU = 0.000 seconds
create_bonds single/bond 1 88 89
Finding 1-2 1-3 1-4 neighbors ...
  special bond factors lj:    0        1        1       
  special bond factors coul:  0        1        1       
     2 = max # of 1-2 neighbors
     2 = max # of special neighbors
  special bonds CPU = 0.000 seconds
create_bonds single/bond 1 89 90
Finding 1-2 1-3 1-4 neighbors ...
  special bond factors lj:    0        1        1       
  special bond factors coul:  0        1        1       
     2 = max # of 1-2 neighbors
     2 = max # of special neighbors
  special bonds CPU = 0.000 seconds
create_bonds single/bond 1 90 91
Finding 1-2 1-3 1-4 neighbors ...
  special bond factors lj:    0        1        1       
  special bond factors coul:  0        1        1       
     2 = max # of 1-2 neighbors
     2 = max # of special neighbors
  special bonds CPU = 0.000 seconds
create_bonds single/bond 1 91 92
Finding 1-2 1-3 1-4 neighbors ...
  special bond factors lj:    0        1        1       
  special bond factors coul:  0        1        1       
     2 = max # of 1-2 neighbors
     2 = max # of special neighbors
  special bonds CPU = 0.000 seconds
create_bonds single/bond 1 92 93
Finding 1-2 1-3 1-4 neighbors ...
  special bond factors lj:    0        1        1       
  special bond factors coul:  0        1        1       
     2 = max # of 1-2 neighbors
     2 = max # of special neighbors
  special bonds CPU = 0.000 seconds
create_bonds single/bond 1 93 94
Finding 1-2 1-3 1-4 neighbors ...
  special bond factors lj:    0        1        1       
  special bond factors coul:  0        1        1       
     2 = max # of 1-2 neighbors
     2 = max # of special neighbors
  special bonds CPU = 0.000 seconds
create_bonds single/bond 1 94 95
Finding 1-2 1-3 1-4 neighbors ...
  special bond factors lj:    0        1        1       
  special bond factors coul:  0        1        1       
     2 = max # of 1-2 neighbors
     2 = max # of special neighbors
  special bonds CPU = 0.000 seconds
create_bonds single/bond 1 95 96
Finding 1-2 1-3 1-4 neighbors ...
  special bond factors lj:    0        1        1       
  special bond factors coul:  0        1        1       
     2 = max # of 1-2 neighbors
     2 = max # of special neighbors
  special bonds CPU = 0.000 seconds
create_bonds single/bond 1 96 97
Finding 1-2 1-3 1-4 neighbors ...
  special bond factors lj:    0        1        1       
  special bond factors coul:  0        1        1       
     2 = max # of 1-2 neighbors
     2 = max # of special neighbors
  special bonds CPU = 0.000 seconds
create_bonds single/bond 1 97 98
Finding 1-2 1-3 1-4 neighbors ...
  special bond factors lj:    0        1        1       
  special bond factors coul:  0        1        1       
     2 = max # of 1-2 neighbors
     2 = max # of special neighbors
  special bonds CPU = 0.000 seconds
create_bonds single/bond 1 98 99
Finding 1-2 1-3 1-4 neighbors ...
  special bond factors lj:    0        1        1       
  special bond factors coul:  0        1        1       
     2 = max # of 1-2 neighbors
     2 = max # of special neighbors
  special bonds CPU = 0.000 seconds
create_bonds single/bond 1 99 100
Finding 1-2 1-3 1-4 neighbors ...
  special bond factors lj:    0        1        1       
  special bond factors coul:  0        1        1       
     2 = max # of 1-2 neighbors
     2 = max # of special neighbors
  special bonds CPU = 0.000 seconds
create_bonds single/bond 1 100 101
Finding 1-2 1-3 1-4 neighbors ...
  special bond factors lj:    0        1        1       
  special bond factors coul:  0        1        1       
     2 = max # of 1-2 neighbors
     2 = max # of special neighbors
  special bonds CPU = 0.000 seconds
create_bonds single/bond 1 101 102
Finding 1-2 1-3 1-4 neighbors ...
  special bond factors lj:    0        1        1       
  special bond factors coul:  0        1        1       
     2 = max # of 1-2 neighbors
     2 = max # of special neighbors
  special bonds CPU = 0.000 seconds
create_bonds single/bond 1 102 103
Finding 1-2 1-3 1-4 neighbors ...
  special bond factors lj:    0        1        1       
  special bond factors coul:  0        1        1       
     2 = max # of 1-2 neighbors
     2 = max # of special neighbors
  special bonds CPU = 0.000 seconds
create_bonds single/bond 1 103 104
Finding 1-2 1-3 1-4 neighbors ...
  special bond factors lj:    0        1        1       
  special bond factors coul:  0        1        1       
     2 = max # of 1-2 neighbors
     2 = max # of special neighbors
  special bonds CPU = 0.000 seconds
create_bonds single/bond 1 104 105
Finding 1-2 1-3 1-4 neighbors ...
  special bond factors lj:    0        1        1       
  special bond factors coul:  0        1        1       
     2 = max # of 1-2 neighbors
     2 = max # of special neighbors
  special bonds CPU = 0.000 seconds
create_bonds single/bond 1 105 106
Finding 1-2 1-3 1-4 neighbors ...
  special bond factors lj:    0        1        1       
  special bond factors coul:  0        1        1       
     2 = max # of 1-2 neighbors
     2 = max # of special neighbors
  special bonds CPU = 0.000 seconds
create_bonds single/bond 1 106 107
Finding 1-2 1-3 1-4 neighbors ...
  special bond factors lj:    0        1        1       
  special bond factors coul:  0        1        1       
     2 = max # of 1-2 neighbors
     2 = max # of special neighbors
  special bonds CPU = 0.000 seconds
create_bonds single/bond 1 107 108
Finding 1-2 1-3 1-4 neighbors ...
  special bond factors lj:    0        1        1       
  special bond factors coul:  0        1        1       
     2 = max # of 1-2 neighbors
     2 = max # of special neighbors
  special bonds CPU = 0.000 seconds
create_bonds single/bond 1 108 109
Finding 1-2 1-3 1-4 neighbors ...
  special bond factors lj:    0        1        1       
  special bond factors coul:  0        1        1       
     2 = max # of 1-2 neighbors
     2 = max # of special neighbors
  special bonds CPU = 0.000 seconds
create_bonds single/bond 1 109 110
Finding 1-2 1-3 1-4 neighbors ...
  special bond factors lj:    0        1        1       
  special bond factors coul:  0        1        1       
     2 = max # of 1-2 neighbors
     2 = max # of special neighbors
  special bonds CPU = 0.000 seconds
create_bonds single/bond 1 110 111
Finding 1-2 1-3 1-4 neighbors ...
  special bond factors lj:    0        1        1       
  special bond factors coul:  0        1        1       
     2 = max # of 1-2 neighbors
     2 = max # of special neighbors
  special bonds CPU = 0.000 seconds
create_bonds single/bond 1 111 112
Finding 1-2 1-3 1-4 neighbors ...
  special bond factors lj:    0        1        1       
  special bond factors coul:  0        1        1       
     2 = max # of 1-2 neighbors
     2 = max # of special neighbors
  special bonds CPU = 0.000 seconds
create_bonds single/bond 1 112 113
Finding 1-2 1-3 1-4 neighbors ...
  special bond factors lj:    0        1        1       
  special bond factors coul:  0        1        1       
     2 = max # of 1-2 neighbors
     2 = max # of special neighbors
  special bonds CPU = 0.000 seconds
create_bonds single/bond 1 113 114
Finding 1-2 1-3 1-4 neighbors ...
  special bond factors lj:    0        1        1       
  special bond factors coul:  0        1        1       
     2 = max # of 1-2 neighbors
     2 = max # of special neighbors
  special bonds CPU = 0.000 seconds
create_bonds single/bond 1 114 115
Finding 1-2 1-3 1-4 neighbors ...
  special bond factors lj:    0        1        1       
  special bond factors coul:  0        1        1       
     2 = max # of 1-2 neighbors
     2 = max # of special neighbors
  special bonds CPU = 0.000 seconds
create_bonds single/bond 1 115 116
Finding 1-2 1-3 1-4 neighbors ...
  special bond factors lj:    0        1        1       
  special bond factors coul:  0        1        1       
     2 = max # of 1-2 neighbors
     2 = max # of special neighbors
  special bonds CPU = 0.000 seconds
create_bonds single/bond 1 116 117
Finding 1-2 1-3 1-4 neighbors ...
  special bond factors lj:    0        1        1       
  special bond factors coul:  0        1        1       
     2 = max # of 1-2 neighbors
     2 = max # of special neighbors
  special bonds CPU = 0.000 seconds
create_bonds single/bond 1 117 118
Finding 1-2 1-3 1-4 neighbors ...
  special bond factors lj:    0        1        1       
  special bond factors coul:  0        1        1       
     2 = max # of 1-2 neighbors
     2 = max # of special neighbors
  special bonds CPU = 0.000 seconds
create_bonds single/bond 1 118 119
Finding 1-2 1-3 1-4 neighbors ...
  special bond factors lj:    0        1        1       
  special bond factors coul:  0        1        1       
     2 = max # of 1-2 neighbors
     2 = max # of special neighbors
  special bonds CPU = 0.000 seconds
create_bonds single/bond 1 119 120
Finding 1-2 1-3 1-4 neighbors ...
  special bond factors lj:    0        1        1       
  special bond factors coul:  0        1        1       
     2 = max # of 1-2 neighbors
     2 = max # of special neighbors
  special bonds CPU = 0.000 seconds
create_bonds single/bond 1 120 121
Finding 1-2 1-3 1-4 neighbors ...
  special bond factors lj:    0        1        1       
  special bond factors coul:  0        1        1       
     2 = max # of 1-2 neighbors
     2 = max # of special neighbors
  special bonds CPU = 0.000 seconds
create_bonds single/bond 1 121 122
Finding 1-2 1-3 1-4 neighbors ...
  special bond factors lj:    0        1        1       
  special bond factors coul:  0        1        1       
     2 = max # of 1-2 neighbors
     2 = max # of special neighbors
  special bonds CPU = 0.000 seconds
create_bonds single/bond 1 122 123
Finding 1-2 1-3 1-4 neighbors ...
  special bond factors lj:    0        1        1       
  special bond factors coul:  0        1        1       
     2 = max # of 1-2 neighbors
     2 = max # of special neighbors
  special bonds CPU = 0.000 seconds
create_bonds single/bond 1 123 124
Finding 1-2 1-3 1-4 neighbors ...
  special bond factors lj:    0        1        1       
  special bond factors coul:  0        1        1       
     2 = max # of 1-2 neighbors
     2 = max # of special neighbors
  special bonds CPU = 0.000 seconds
create_bonds single/bond 1 124 125
Finding 1-2 1-3 1-4 neighbors ...
  special bond factors lj:    0        1        1       
  special bond factors coul:  0        1        1       
     2 = max # of 1-2 neighbors
     2 = max # of special neighbors
  special bonds CPU = 0.000 seconds
create_bonds single/bond 1 125 126
Finding 1-2 1-3 1-4 neighbors ...
  special bond factors lj:    0        1        1       
  special bond factors coul:  0        1        1       
     2 = max # of 1-2 neighbors
     2 = max # of special neighbors
  special bonds CPU = 0.000 seconds
create_bonds single/bond 1 126 127
Finding 1-2 1-3 1-4 neighbors ...
  special bond factors lj:    0        1        1       
  special bond factors coul:  0        1        1       
     2 = max # of 1-2 neighbors
     2 = max # of special neighbors
  special bonds CPU = 0.000 seconds
create_bonds single/bond 1 127 128
Finding 1-2 1-3 1-4 neighbors ...
  special bond factors lj:    0        1        1       
  special bond factors coul:  0        1        1       
     2 = max # of 1-2 neighbors
     2 = max # of special neighbors
  special bonds CPU = 0.000 seconds
create_bonds single/bond 1 128 129
Finding 1-2 1-3 1-4 neighbors ...
  special bond factors lj:    0        1        1       
  special bond factors coul:  0        1        1       
     2 = max # of 1-2 neighbors
     2 = max # of special neighbors
  special bonds CPU = 0.000 seconds
create_bonds single/bond 1 129 130
Finding 1-2 1-3 1-4 neighbors ...
  special bond factors lj:    0        1        1       
  special bond factors coul:  0        1        1       
     2 = max # of 1-2 neighbors
     2 = max # of special neighbors
  special bonds CPU = 0.000 seconds
create_bonds single/bond 1 130 131
Finding 1-2 1-3 1-4 neighbors ...
  special bond factors lj:    0        1        1       
  special bond factors coul:  0        1        1       
     2 = max # of 1-2 neighbors
     2 = max # of special neighbors
  special bonds CPU = 0.000 seconds
create_bonds single/bond 1 131 132
Finding 1-2 1-3 1-4 neighbors ...
  special bond factors lj:    0        1        1       
  special bond factors coul:  0        1        1       
     2 = max # of 1-2 neighbors
     2 = max # of special neighbors
  special bonds CPU = 0.000 seconds
create_bonds single/bond 1 132 133
Finding 1-2 1-3 1-4 neighbors ...
  special bond factors lj:    0        1        1       
  special bond factors coul:  0        1        1       
     2 = max # of 1-2 neighbors
     2 = max # of special neighbors
  special bonds CPU = 0.000 seconds
create_bonds single/bond 1 133 134
Finding 1-2 1-3 1-4 neighbors ...
  special bond factors lj:    0        1        1       
  special bond factors coul:  0        1        1       
     2 = max # of 1-2 neighbors
     2 = max # of special neighbors
  special bonds CPU = 0.000 seconds
create_bonds single/bond 1 134 135
Finding 1-2 1-3 1-4 neighbors ...
  special bond factors lj:    0        1        1       
  special bond factors coul:  0        1        1       
     2 = max # of 1-2 neighbors
     2 = max # of special neighbors
  special bonds CPU = 0.000 seconds
create_bonds single/bond 1 135 136
Finding 1-2 1-3 1-4 neighbors ...
  special bond factors lj:    0        1        1       
  special bond factors coul:  0        1        1       
     2 = max # of 1-2 neighbors
     2 = max # of special neighbors
  special bonds CPU = 0.000 seconds
create_bonds single/bond 1 136 137
Finding 1-2 1-3 1-4 neighbors ...
  special bond factors lj:    0        1        1       
  special bond factors coul:  0        1        1       
     2 = max # of 1-2 neighbors
     2 = max # of special neighbors
  special bonds CPU = 0.000 seconds
create_bonds single/bond 1 137 138
Finding 1-2 1-3 1-4 neighbors ...
  special bond factors lj:    0        1        1       
  special bond factors coul:  0        1        1       
     2 = max # of 1-2 neighbors
     2 = max # of special neighbors
  special bonds CPU = 0.000 seconds
create_bonds single/bond 1 138 139
Finding 1-2 1-3 1-4 neighbors ...
  special bond factors lj:    0        1        1       
  special bond factors coul:  0        1        1       
     2 = max # of 1-2 neighbors
     2 = max # of special neighbors
  special bonds CPU = 0.000 seconds
create_bonds single/bond 1 139 140
Finding 1-2 1-3 1-4 neighbors ...
  special bond factors lj:    0        1        1       
  special bond factors coul:  0        1        1       
     2 = max # of 1-2 neighbors
     2 = max # of special neighbors
  special bonds CPU = 0.000 seconds
create_bonds single/bond 1 140 141
Finding 1-2 1-3 1-4 neighbors ...
  special bond factors lj:    0        1        1       
  special bond factors coul:  0        1        1       
     2 = max # of 1-2 neighbors
     2 = max # of special neighbors
  special bonds CPU = 0.000 seconds
create_bonds single/bond 1 141 142
Finding 1-2 1-3 1-4 neighbors ...
  special bond factors lj:    0        1        1       
  special bond factors coul:  0        1        1       
     2 = max # of 1-2 neighbors
     2 = max # of special neighbors
  special bonds CPU = 0.000 seconds
create_bonds single/bond 1 142 143
Finding 1-2 1-3 1-4 neighbors ...
  special bond factors lj:    0        1        1       
  special bond factors coul:  0        1        1       
     2 = max # of 1-2 neighbors
     2 = max # of special neighbors
  special bonds CPU = 0.000 seconds
create_bonds single/bond 1 143 144
Finding 1-2 1-3 1-4 neighbors ...
  special bond factors lj:    0        1        1       
  special bond factors coul:  0        1        1       
     2 = max # of 1-2 neighbors
     2 = max # of special neighbors
  special bonds CPU = 0.000 seconds
create_bonds single/bond 1 144 145
Finding 1-2 1-3 1-4 neighbors ...
  special bond factors lj:    0        1        1       
  special bond factors coul:  0        1        1       
     2 = max # of 1-2 neighbors
     2 = max # of special neighbors
  special bonds CPU = 0.000 seconds
create_bonds single/bond 1 145 146
Finding 1-2 1-3 1-4 neighbors ...
  special bond factors lj:    0        1        1       
  special bond factors coul:  0        1        1       
     2 = max # of 1-2 neighbors
     2 = max # of special neighbors
  special bonds CPU = 0.000 seconds
create_bonds single/bond 1 146 147
Finding 1-2 1-3 1-4 neighbors ...
  special bond factors lj:    0        1        1       
  special bond factors coul:  0        1        1       
     2 = max # of 1-2 neighbors
     2 = max # of special neighbors
  special bonds CPU = 0.000 seconds
create_bonds single/bond 1 147 148
Finding 1-2 1-3 1-4 neighbors ...
  special bond factors lj:    0        1        1       
  special bond factors coul:  0        1        1       
     2 = max # of 1-2 neighbors
     2 = max # of special neighbors
  special bonds CPU = 0.000 seconds
create_bonds single/bond 1 148 149
Finding 1-2 1-3 1-4 neighbors ...
  special bond factors lj:    0        1        1       
  special bond factors coul:  0        1        1       
     2 = max # of 1-2 neighbors
     2 = max # of special neighbors
  special bonds CPU = 0.000 seconds
create_bonds single/bond 1 149 150
Finding 1-2 1-3 1-4 neighbors ...
  special bond factors lj:    0        1        1       
  special bond factors coul:  0        1        1       
     2 = max # of 1-2 neighbors
     2 = max # of special neighbors
  special bonds CPU = 0.000 seconds
create_bonds single/bond 1 150 151
Finding 1-2 1-3 1-4 neighbors ...
  special bond factors lj:    0        1        1       
  special bond factors coul:  0        1        1       
     2 = max # of 1-2 neighbors
     2 = max # of special neighbors
  special bonds CPU = 0.000 seconds
create_bonds single/bond 1 1 3
Finding 1-2 1-3 1-4 neighbors ...
  special bond factors lj:    0        1        1       
  special bond factors coul:  0        1        1       
     2 = max # of 1-2 neighbors
     2 = max # of special neighbors
  special bonds CPU = 0.000 seconds
create_bonds single/bond 1 151 2
Finding 1-2 1-3 1-4 neighbors ...
  special bond factors lj:    0        1        1       
  special bond factors coul:  0        1        1       
     2 = max # of 1-2 neighbors
     2 = max # of special neighbors
  special bonds CPU = 0.000 seconds
dihedral_coeff 2 3 0.0 1 0.0 1 1 90 0 1 90 0 0.0010105263157894739 0 0 0 1 180.0 1 0 0 0 0.0010105263157894739 0 0 0 0 0 0 1 180.0 1
include structure/dihedral_2.txt
create_bonds single/dihedral 2 1 3 4 5
Finding 1-2 1-3 1-4 neighbors ...
  special bond factors lj:    0        1        1       
  special bond factors coul:  0        1        1       
     2 = max # of 1-2 neighbors
     2 = max # of special neighbors
  special bonds CPU = 0.000 seconds
create_bonds single/dihedral 2 3 4 5 6
Finding 1-2 1-3 1-4 neighbors ...
  special bond factors lj:    0        1        1       
  special bond factors coul:  0        1        1       
     2 = max # of 1-2 neighbors
     2 = max # of special neighbors
  special bonds CPU = 0.000 seconds
create_bonds single/dihedral 2 4 5 6 7
Finding 1-2 1-3 1-4 neighbors ...
  special bond factors lj:    0        1        1       
  special bond factors coul:  0        1        1       
     2 = max # of 1-2 neighbors
     2 = max # of special neighbors
  special bonds CPU = 0.000 seconds
create_bonds single/dihedral 2 5 6 7 8
Finding 1-2 1-3 1-4 neighbors ...
  special bond factors lj:    0        1        1       
  special bond factors coul:  0        1        1       
     2 = max # of 1-2 neighbors
     2 = max # of special neighbors
  special bonds CPU = 0.000 seconds
create_bonds single/dihedral 2 6 7 8 9
Finding 1-2 1-3 1-4 neighbors ...
  special bond factors lj:    0        1        1       
  special bond factors coul:  0        1        1       
     2 = max # of 1-2 neighbors
     2 = max # of special neighbors
  special bonds CPU = 0.000 seconds
create_bonds single/dihedral 2 7 8 9 10
Finding 1-2 1-3 1-4 neighbors ...
  special bond factors lj:    0        1        1       
  special bond factors coul:  0        1        1       
     2 = max # of 1-2 neighbors
     2 = max # of special neighbors
  special bonds CPU = 0.000 seconds
create_bonds single/dihedral 2 8 9 10 11
Finding 1-2 1-3 1-4 neighbors ...
  special bond factors lj:    0        1        1       
  special bond factors coul:  0        1        1       
     2 = max # of 1-2 neighbors
     2 = max # of special neighbors
  special bonds CPU = 0.000 seconds
create_bonds single/dihedral 2 9 10 11 12
Finding 1-2 1-3 1-4 neighbors ...
  special bond factors lj:    0        1        1       
  special bond factors coul:  0        1        1       
     2 = max # of 1-2 neighbors
     2 = max # of special neighbors
  special bonds CPU = 0.000 seconds
create_bonds single/dihedral 2 10 11 12 13
Finding 1-2 1-3 1-4 neighbors ...
  special bond factors lj:    0        1        1       
  special bond factors coul:  0        1        1       
     2 = max # of 1-2 neighbors
     2 = max # of special neighbors
  special bonds CPU = 0.000 seconds
create_bonds single/dihedral 2 11 12 13 14
Finding 1-2 1-3 1-4 neighbors ...
  special bond factors lj:    0        1        1       
  special bond factors coul:  0        1        1       
     2 = max # of 1-2 neighbors
     2 = max # of special neighbors
  special bonds CPU = 0.000 seconds
create_bonds single/dihedral 2 12 13 14 15
Finding 1-2 1-3 1-4 neighbors ...
  special bond factors lj:    0        1        1       
  special bond factors coul:  0        1        1       
     2 = max # of 1-2 neighbors
     2 = max # of special neighbors
  special bonds CPU = 0.000 seconds
create_bonds single/dihedral 2 13 14 15 16
Finding 1-2 1-3 1-4 neighbors ...
  special bond factors lj:    0        1        1       
  special bond factors coul:  0        1        1       
     2 = max # of 1-2 neighbors
     2 = max # of special neighbors
  special bonds CPU = 0.000 seconds
create_bonds single/dihedral 2 14 15 16 17
Finding 1-2 1-3 1-4 neighbors ...
  special bond factors lj:    0        1        1       
  special bond factors coul:  0        1        1       
     2 = max # of 1-2 neighbors
     2 = max # of special neighbors
  special bonds CPU = 0.000 seconds
create_bonds single/dihedral 2 15 16 17 18
Finding 1-2 1-3 1-4 neighbors ...
  special bond factors lj:    0        1        1       
  special bond factors coul:  0        1        1       
     2 = max # of 1-2 neighbors
     2 = max # of special neighbors
  special bonds CPU = 0.000 seconds
create_bonds single/dihedral 2 16 17 18 19
Finding 1-2 1-3 1-4 neighbors ...
  special bond factors lj:    0        1        1       
  special bond factors coul:  0        1        1       
     2 = max # of 1-2 neighbors
     2 = max # of special neighbors
  special bonds CPU = 0.000 seconds
create_bonds single/dihedral 2 17 18 19 20
Finding 1-2 1-3 1-4 neighbors ...
  special bond factors lj:    0        1        1       
  special bond factors coul:  0        1        1       
     2 = max # of 1-2 neighbors
     2 = max # of special neighbors
  special bonds CPU = 0.000 seconds
create_bonds single/dihedral 2 18 19 20 21
Finding 1-2 1-3 1-4 neighbors ...
  special bond factors lj:    0        1        1       
  special bond factors coul:  0        1        1       
     2 = max # of 1-2 neighbors
     2 = max # of special neighbors
  special bonds CPU = 0.000 seconds
create_bonds single/dihedral 2 19 20 21 22
Finding 1-2 1-3 1-4 neighbors ...
  special bond factors lj:    0        1        1       
  special bond factors coul:  0        1        1       
     2 = max # of 1-2 neighbors
     2 = max # of special neighbors
  special bonds CPU = 0.000 seconds
create_bonds single/dihedral 2 20 21 22 23
Finding 1-2 1-3 1-4 neighbors ...
  special bond factors lj:    0        1        1       
  special bond factors coul:  0        1        1       
     2 = max # of 1-2 neighbors
     2 = max # of special neighbors
  special bonds CPU = 0.000 seconds
[...]
create_bonds single/dihedral 2 71 72 73 74
Finding 1-2 1-3 1-4 neighbors ...
  special bond factors lj:    0        1        1       
  special bond factors coul:  0        1        1       
     2 = max # of 1-2 neighbors
     2 = max # of special neighbors
  special bonds CPU = 0.000 seconds
create_bonds single/dihedral 2 72 73 74 75
Finding 1-2 1-3 1-4 neighbors ...
  special bond factors lj:    0        1        1       
  special bond factors coul:  0        1        1       
     2 = max # of 1-2 neighbors
     2 = max # of special neighbors
  special bonds CPU = 0.000 seconds
create_bonds single/dihedral 2 73 74 75 76
Finding 1-2 1-3 1-4 neighbors ...
  special bond factors lj:    0        1        1       
  special bond factors coul:  0        1        1       
     2 = max # of 1-2 neighbors
     2 = max # of special neighbors
  special bonds CPU = 0.000 seconds
create_bonds single/dihedral 2 74 75 76 77
Finding 1-2 1-3 1-4 neighbors ...
  special bond factors lj:    0        1        1       
  special bond factors coul:  0        1        1       
     2 = max # of 1-2 neighbors
     2 = max # of special neighbors
  special bonds CPU = 0.000 seconds
create_bonds single/dihedral 2 75 76 77 78
Finding 1-2 1-3 1-4 neighbors ...
  special bond factors lj:    0        1        1       
  special bond factors coul:  0        1        1       
     2 = max # of 1-2 neighbors
     2 = max # of special neighbors
  special bonds CPU = 0.000 seconds
create_bonds single/dihedral 2 76 77 78 79
Finding 1-2 1-3 1-4 neighbors ...
  special bond factors lj:    0        1        1       
  special bond factors coul:  0        1        1       
     2 = max # of 1-2 neighbors
     2 = max # of special neighbors
  special bonds CPU = 0.000 seconds
create_bonds single/dihedral 2 77 78 79 80
Finding 1-2 1-3 1-4 neighbors ...
  special bond factors lj:    0        1        1       
  special bond factors coul:  0        1        1       
     2 = max # of 1-2 neighbors
     2 = max # of special neighbors
  special bonds CPU = 0.000 seconds
create_bonds single/dihedral 2 78 79 80 81
Finding 1-2 1-3 1-4 neighbors ...
  special bond factors lj:    0        1        1       
  special bond factors coul:  0        1        1       
     2 = max # of 1-2 neighbors
     2 = max # of special neighbors
  special bonds CPU = 0.000 seconds
create_bonds single/dihedral 2 79 80 81 82
Finding 1-2 1-3 1-4 neighbors ...
  special bond factors lj:    0        1        1       
  special bond factors coul:  0        1        1       
     2 = max # of 1-2 neighbors
     2 = max # of special neighbors
  special bonds CPU = 0.000 seconds
create_bonds single/dihedral 2 80 81 82 83
Finding 1-2 1-3 1-4 neighbors ...
  special bond factors lj:    0        1        1       
  special bond factors coul:  0        1        1       
     2 = max # of 1-2 neighbors
     2 = max # of special neighbors
  special bonds CPU = 0.000 seconds
create_bonds single/dihedral 2 81 82 83 84
Finding 1-2 1-3 1-4 neighbors ...
  special bond factors lj:    0        1        1       
  special bond factors coul:  0        1        1       
     2 = max # of 1-2 neighbors
     2 = max # of special neighbors
  special bonds CPU = 0.000 seconds
create_bonds single/dihedral 2 82 83 84 85
Finding 1-2 1-3 1-4 neighbors ...
  special bond factors lj:    0        1        1       
  special bond factors coul:  0        1        1       
     2 = max # of 1-2 neighbors
     2 = max # of special neighbors
  special bonds CPU = 0.000 seconds
create_bonds single/dihedral 2 83 84 85 86
Finding 1-2 1-3 1-4 neighbors ...
  special bond factors lj:    0        1        1       
  special bond factors coul:  0        1        1       
     2 = max # of 1-2 neighbors
     2 = max # of special neighbors
  special bonds CPU = 0.000 seconds
create_bonds single/dihedral 2 84 85 86 87
Finding 1-2 1-3 1-4 neighbors ...
  special bond factors lj:    0        1        1       
  special bond factors coul:  0        1        1       
     2 = max # of 1-2 neighbors
     2 = max # of special neighbors
  special bonds CPU = 0.000 seconds
create_bonds single/dihedral 2 85 86 87 88
Finding 1-2 1-3 1-4 neighbors ...
  special bond factors lj:    0        1        1       
  special bond factors coul:  0        1        1       
     2 = max # of 1-2 neighbors
     2 = max # of special neighbors
  special bonds CPU = 0.000 seconds
create_bonds single/dihedral 2 86 87 88 89
Finding 1-2 1-3 1-4 neighbors ...
  special bond factors lj:    0        1        1       
  special bond factors coul:  0        1        1       
     2 = max # of 1-2 neighbors
     2 = max # of special neighbors
  special bonds CPU = 0.000 seconds
create_bonds single/dihedral 2 87 88 89 90
Finding 1-2 1-3 1-4 neighbors ...
  special bond factors lj:    0        1        1       
  special bond factors coul:  0        1        1       
     2 = max # of 1-2 neighbors
     2 = max # of special neighbors
  special bonds CPU = 0.000 seconds
create_bonds single/dihedral 2 88 89 90 91
Finding 1-2 1-3 1-4 neighbors ...
  special bond factors lj:    0        1        1       
  special bond factors coul:  0        1        1       
     2 = max # of 1-2 neighbors
     2 = max # of special neighbors
  special bonds CPU = 0.000 seconds
create_bonds single/dihedral 2 89 90 91 92
Finding 1-2 1-3 1-4 neighbors ...
  special bond factors lj:    0        1        1       
  special bond factors coul:  0        1        1       
     2 = max # of 1-2 neighbors
     2 = max # of special neighbors
  special bonds CPU = 0.000 seconds
create_bonds single/dihedral 2 90 91 92 93
Finding 1-2 1-3 1-4 neighbors ...
  special bond factors lj:    0        1        1       
  special bond factors coul:  0        1        1       
     2 = max # of 1-2 neighbors
     2 = max # of special neighbors
  special bonds CPU = 0.000 seconds
create_bonds single/dihedral 2 91 92 93 94
Finding 1-2 1-3 1-4 neighbors ...
  special bond factors lj:    0        1        1       
  special bond factors coul:  0        1        1       
     2 = max # of 1-2 neighbors
     2 = max # of special neighbors
  special bonds CPU = 0.000 seconds
create_bonds single/dihedral 2 92 93 94 95
Finding 1-2 1-3 1-4 neighbors ...
  special bond factors lj:    0        1        1       
  special bond factors coul:  0        1        1       
     2 = max # of 1-2 neighbors
     2 = max # of special neighbors
  special bonds CPU = 0.000 seconds
create_bonds single/dihedral 2 93 94 95 96
Finding 1-2 1-3 1-4 neighbors ...
  special bond factors lj:    0        1        1       
  special bond factors coul:  0        1        1       
     2 = max # of 1-2 neighbors
     2 = max # of special neighbors
  special bonds CPU = 0.000 seconds
create_bonds single/dihedral 2 94 95 96 97
Finding 1-2 1-3 1-4 neighbors ...
  special bond factors lj:    0        1        1       
  special bond factors coul:  0        1        1       
     2 = max # of 1-2 neighbors
     2 = max # of special neighbors
  special bonds CPU = 0.000 seconds
create_bonds single/dihedral 2 95 96 97 98
Finding 1-2 1-3 1-4 neighbors ...
  special bond factors lj:    0        1        1       
  special bond factors coul:  0        1        1       
     2 = max # of 1-2 neighbors
     2 = max # of special neighbors
  special bonds CPU = 0.000 seconds
create_bonds single/dihedral 2 96 97 98 99
Finding 1-2 1-3 1-4 neighbors ...
  special bond factors lj:    0        1        1       
  special bond factors coul:  0        1        1       
     2 = max # of 1-2 neighbors
     2 = max # of special neighbors
  special bonds CPU = 0.000 seconds
create_bonds single/dihedral 2 97 98 99 100
Finding 1-2 1-3 1-4 neighbors ...
  special bond factors lj:    0        1        1       
  special bond factors coul:  0        1        1       
     2 = max # of 1-2 neighbors
     2 = max # of special neighbors
  special bonds CPU = 0.000 seconds
create_bonds single/dihedral 2 98 99 100 101
Finding 1-2 1-3 1-4 neighbors ...
  special bond factors lj:    0        1        1       
  special bond factors coul:  0        1        1       
     2 = max # of 1-2 neighbors
     2 = max # of special neighbors
  special bonds CPU = 0.000 seconds
create_bonds single/dihedral 2 99 100 101 102
Finding 1-2 1-3 1-4 neighbors ...
  special bond factors lj:    0        1        1       
  special bond factors coul:  0        1        1       
     2 = max # of 1-2 neighbors
     2 = max # of special neighbors
  special bonds CPU = 0.000 seconds
create_bonds single/dihedral 2 100 101 102 103
Finding 1-2 1-3 1-4 neighbors ...
  special bond factors lj:    0        1        1       
  special bond factors coul:  0        1        1       
     2 = max # of 1-2 neighbors
     2 = max # of special neighbors
  special bonds CPU = 0.000 seconds
create_bonds single/dihedral 2 101 102 103 104
Finding 1-2 1-3 1-4 neighbors ...
  special bond factors lj:    0        1        1       
  special bond factors coul:  0        1        1       
     2 = max # of 1-2 neighbors
     2 = max # of special neighbors
  special bonds CPU = 0.000 seconds
create_bonds single/dihedral 2 102 103 104 105
Finding 1-2 1-3 1-4 neighbors ...
  special bond factors lj:    0        1        1       
  special bond factors coul:  0        1        1       
     2 = max # of 1-2 neighbors
     2 = max # of special neighbors
  special bonds CPU = 0.000 seconds
create_bonds single/dihedral 2 103 104 105 106
Finding 1-2 1-3 1-4 neighbors ...
  special bond factors lj:    0        1        1       
  special bond factors coul:  0        1        1       
     2 = max # of 1-2 neighbors
     2 = max # of special neighbors
  special bonds CPU = 0.000 seconds
create_bonds single/dihedral 2 104 105 106 107
Finding 1-2 1-3 1-4 neighbors ...
  special bond factors lj:    0        1        1       
  special bond factors coul:  0        1        1       
     2 = max # of 1-2 neighbors
     2 = max # of special neighbors
  special bonds CPU = 0.000 seconds
create_bonds single/dihedral 2 105 106 107 108
Finding 1-2 1-3 1-4 neighbors ...
  special bond factors lj:    0        1        1       
  special bond factors coul:  0        1        1       
     2 = max # of 1-2 neighbors
     2 = max # of special neighbors
  special bonds CPU = 0.000 seconds
create_bonds single/dihedral 2 106 107 108 109
Finding 1-2 1-3 1-4 neighbors ...
  special bond factors lj:    0        1        1       
  special bond factors coul:  0        1        1       
     2 = max # of 1-2 neighbors
     2 = max # of special neighbors
  special bonds CPU = 0.000 seconds
create_bonds single/dihedral 2 107 108 109 110
Finding 1-2 1-3 1-4 neighbors ...
  special bond factors lj:    0        1        1       
  special bond factors coul:  0        1        1       
     2 = max # of 1-2 neighbors
     2 = max # of special neighbors
  special bonds CPU = 0.000 seconds
create_bonds single/dihedral 2 108 109 110 111
Finding 1-2 1-3 1-4 neighbors ...
  special bond factors lj:    0        1        1       
  special bond factors coul:  0        1        1       
     2 = max # of 1-2 neighbors
     2 = max # of special neighbors
  special bonds CPU = 0.000 seconds
create_bonds single/dihedral 2 109 110 111 112
Finding 1-2 1-3 1-4 neighbors ...
  special bond factors lj:    0        1        1       
  special bond factors coul:  0        1        1       
     2 = max # of 1-2 neighbors
     2 = max # of special neighbors
  special bonds CPU = 0.000 seconds
create_bonds single/dihedral 2 110 111 112 113
Finding 1-2 1-3 1-4 neighbors ...
  special bond factors lj:    0        1        1       
  special bond factors coul:  0        1        1       
     2 = max # of 1-2 neighbors
     2 = max # of special neighbors
  special bonds CPU = 0.000 seconds
create_bonds single/dihedral 2 111 112 113 114
Finding 1-2 1-3 1-4 neighbors ...
  special bond factors lj:    0        1        1       
  special bond factors coul:  0        1        1       
     2 = max # of 1-2 neighbors
     2 = max # of special neighbors
  special bonds CPU = 0.000 seconds
create_bonds single/dihedral 2 112 113 114 115
Finding 1-2 1-3 1-4 neighbors ...
  special bond factors lj:    0        1        1       
  special bond factors coul:  0        1        1       
     2 = max # of 1-2 neighbors
     2 = max # of special neighbors
  special bonds CPU = 0.000 seconds
create_bonds single/dihedral 2 113 114 115 116
Finding 1-2 1-3 1-4 neighbors ...
  special bond factors lj:    0        1        1       
  special bond factors coul:  0        1        1       
     2 = max # of 1-2 neighbors
     2 = max # of special neighbors
  special bonds CPU = 0.000 seconds
create_bonds single/dihedral 2 114 115 116 117
Finding 1-2 1-3 1-4 neighbors ...
  special bond factors lj:    0        1        1       
  special bond factors coul:  0        1        1       
     2 = max # of 1-2 neighbors
     2 = max # of special neighbors
  special bonds CPU = 0.000 seconds
create_bonds single/dihedral 2 115 116 117 118
Finding 1-2 1-3 1-4 neighbors ...
  special bond factors lj:    0        1        1       
  special bond factors coul:  0        1        1       
     2 = max # of 1-2 neighbors
     2 = max # of special neighbors
  special bonds CPU = 0.000 seconds
create_bonds single/dihedral 2 116 117 118 119
Finding 1-2 1-3 1-4 neighbors ...
  special bond factors lj:    0        1        1       
  special bond factors coul:  0        1        1       
     2 = max # of 1-2 neighbors
     2 = max # of special neighbors
  special bonds CPU = 0.000 seconds
create_bonds single/dihedral 2 117 118 119 120
Finding 1-2 1-3 1-4 neighbors ...
  special bond factors lj:    0        1        1       
  special bond factors coul:  0        1        1       
     2 = max # of 1-2 neighbors
     2 = max # of special neighbors
  special bonds CPU = 0.000 seconds
create_bonds single/dihedral 2 118 119 120 121
Finding 1-2 1-3 1-4 neighbors ...
  special bond factors lj:    0        1        1       
  special bond factors coul:  0        1        1       
     2 = max # of 1-2 neighbors
     2 = max # of special neighbors
  special bonds CPU = 0.000 seconds
create_bonds single/dihedral 2 119 120 121 122
Finding 1-2 1-3 1-4 neighbors ...
  special bond factors lj:    0        1        1       
  special bond factors coul:  0        1        1       
     2 = max # of 1-2 neighbors
     2 = max # of special neighbors
  special bonds CPU = 0.000 seconds
create_bonds single/dihedral 2 120 121 122 123
Finding 1-2 1-3 1-4 neighbors ...
  special bond factors lj:    0        1        1       
  special bond factors coul:  0        1        1       
     2 = max # of 1-2 neighbors
     2 = max # of special neighbors
  special bonds CPU = 0.000 seconds
create_bonds single/dihedral 2 121 122 123 124
Finding 1-2 1-3 1-4 neighbors ...
  special bond factors lj:    0        1        1       
  special bond factors coul:  0        1        1       
     2 = max # of 1-2 neighbors
     2 = max # of special neighbors
  special bonds CPU = 0.000 seconds
create_bonds single/dihedral 2 122 123 124 125
Finding 1-2 1-3 1-4 neighbors ...
  special bond factors lj:    0        1        1       
  special bond factors coul:  0        1        1       
     2 = max # of 1-2 neighbors
     2 = max # of special neighbors
  special bonds CPU = 0.000 seconds
create_bonds single/dihedral 2 123 124 125 126
Finding 1-2 1-3 1-4 neighbors ...
  special bond factors lj:    0        1        1       
  special bond factors coul:  0        1        1       
     2 = max # of 1-2 neighbors
     2 = max # of special neighbors
  special bonds CPU = 0.000 seconds
create_bonds single/dihedral 2 124 125 126 127
Finding 1-2 1-3 1-4 neighbors ...
  special bond factors lj:    0        1        1       
  special bond factors coul:  0        1        1       
     2 = max # of 1-2 neighbors
     2 = max # of special neighbors
  special bonds CPU = 0.000 seconds
create_bonds single/dihedral 2 125 126 127 128
Finding 1-2 1-3 1-4 neighbors ...
  special bond factors lj:    0        1        1       
  special bond factors coul:  0        1        1       
     2 = max # of 1-2 neighbors
     2 = max # of special neighbors
  special bonds CPU = 0.000 seconds
create_bonds single/dihedral 2 126 127 128 129
Finding 1-2 1-3 1-4 neighbors ...
  special bond factors lj:    0        1        1       
  special bond factors coul:  0        1        1       
     2 = max # of 1-2 neighbors
     2 = max # of special neighbors
  special bonds CPU = 0.000 seconds
create_bonds single/dihedral 2 127 128 129 130
Finding 1-2 1-3 1-4 neighbors ...
  special bond factors lj:    0        1        1       
  special bond factors coul:  0        1        1       
     2 = max # of 1-2 neighbors
     2 = max # of special neighbors
  special bonds CPU = 0.000 seconds
create_bonds single/dihedral 2 128 129 130 131
Finding 1-2 1-3 1-4 neighbors ...
  special bond factors lj:    0        1        1       
  special bond factors coul:  0        1        1       
     2 = max # of 1-2 neighbors
     2 = max # of special neighbors
  special bonds CPU = 0.000 seconds
create_bonds single/dihedral 2 129 130 131 132
Finding 1-2 1-3 1-4 neighbors ...
  special bond factors lj:    0        1        1       
  special bond factors coul:  0        1        1       
     2 = max # of 1-2 neighbors
     2 = max # of special neighbors
  special bonds CPU = 0.000 seconds
create_bonds single/dihedral 2 130 131 132 133
Finding 1-2 1-3 1-4 neighbors ...
  special bond factors lj:    0        1        1       
  special bond factors coul:  0        1        1       
     2 = max # of 1-2 neighbors
     2 = max # of special neighbors
  special bonds CPU = 0.000 seconds
create_bonds single/dihedral 2 131 132 133 134
Finding 1-2 1-3 1-4 neighbors ...
  special bond factors lj:    0        1        1       
  special bond factors coul:  0        1        1       
     2 = max # of 1-2 neighbors
     2 = max # of special neighbors
  special bonds CPU = 0.000 seconds
create_bonds single/dihedral 2 132 133 134 135
Finding 1-2 1-3 1-4 neighbors ...
  special bond factors lj:    0        1        1       
  special bond factors coul:  0        1        1       
     2 = max # of 1-2 neighbors
     2 = max # of special neighbors
  special bonds CPU = 0.000 seconds
create_bonds single/dihedral 2 133 134 135 136
Finding 1-2 1-3 1-4 neighbors ...
  special bond factors lj:    0        1        1       
  special bond factors coul:  0        1        1       
     2 = max # of 1-2 neighbors
     2 = max # of special neighbors
  special bonds CPU = 0.000 seconds
create_bonds single/dihedral 2 134 135 136 137
Finding 1-2 1-3 1-4 neighbors ...
  special bond factors lj:    0        1        1       
  special bond factors coul:  0        1        1       
     2 = max # of 1-2 neighbors
     2 = max # of special neighbors
  special bonds CPU = 0.000 seconds
create_bonds single/dihedral 2 135 136 137 138
Finding 1-2 1-3 1-4 neighbors ...
  special bond factors lj:    0        1        1       
  special bond factors coul:  0        1        1       
     2 = max # of 1-2 neighbors
     2 = max # of special neighbors
  special bonds CPU = 0.000 seconds
create_bonds single/dihedral 2 136 137 138 139
Finding 1-2 1-3 1-4 neighbors ...
  special bond factors lj:    0        1        1       
  special bond factors coul:  0        1        1       
     2 = max # of 1-2 neighbors
     2 = max # of special neighbors
  special bonds CPU = 0.000 seconds
create_bonds single/dihedral 2 137 138 139 140
Finding 1-2 1-3 1-4 neighbors ...
  special bond factors lj:    0        1        1       
  special bond factors coul:  0        1        1       
     2 = max # of 1-2 neighbors
     2 = max # of special neighbors
  special bonds CPU = 0.000 seconds
create_bonds single/dihedral 2 138 139 140 141
Finding 1-2 1-3 1-4 neig