LAMMPS (29 Aug 2024 - Update 1)
  using 1 OpenMP thread(s) per MPI task
atom_style hybrid molecular sphere
WARNING: Atom style hybrid defines both, per-type and per-atom masses; both must be set, but only per-atom masses will be used (src/src/atom_vec_hybrid.cpp:132)
units si
processors	* * 1
comm_modify vel yes
comm_modify cutoff 0.01

region simulationStation block -0.11 0.11 -0.006 0.006 -0.015 0.015
create_box 100 simulationStation bond/types 100000 extra/bond/per/atom 100 angle/types 10000 extra/angle/per/atom 100 dihedral/types 1000 extra/dihedral/per/atom 100
Created orthogonal box = (-0.11 -0.006 -0.015) to (0.11 0.006 0.015)
  1 by 1 by 1 MPI processor grid
change_box	all boundary f f f
Changing box ...

pair_style hybrid/overlay granular lj/cut 0
pair_coeff  * * granular hertz/material 0 0 0 tangential linear_nohistory 0 0
pair_coeff  * * lj/cut 0 0 0

special_bonds lj/coul 0 1.0 1.0
Finding 1-2 1-3 1-4 neighbors ...
  special bond factors lj:    0        1        1       
  special bond factors coul:  0        1        1       
     0 = max # of 1-2 neighbors
     1 = max # of special neighbors
  special bonds CPU = 0.001 seconds
bond_style harmonic
angle_style cosine/shift
dihedral_style spherical

bond_coeff * 0 0
angle_coeff * 0 0
dihedral_coeff * 1 0 1 0 1 1 90 0 1 90 0
fix integration all nve/sphere
neigh_modify page 500000 one 50000


### Here we will begin to include particles ###


fix fix_walls_1 all wall/gran/region granular hertz/material 10000 0.25 0.25 tangential linear_nohistory 0 0 region simulationStation
pair_coeff * * granular hertz/material 10000 0 0.5 tangential linear_nohistory 0 0

include structure/node_1.txt
create_atoms 1 single -0.1 0.0 -0.01
Created 1 atoms
  using lattice units in orthogonal box = (-0.11 -0.006 -0.015) to (0.11 0.006 0.015)
  create_atoms CPU = 0.000 seconds
set type 1 diameter 0.002
Setting atom values ...
  1 settings made for diameter
set type 1 density 0.5
Setting atom values ...
  1 settings made for density

include structure/node_2.txt
create_atoms 2 single -0.1 0.0 0.01
Created 1 atoms
  using lattice units in orthogonal box = (-0.11 -0.006 -0.015) to (0.11 0.006 0.015)
  create_atoms CPU = 0.002 seconds
set type 2 diameter 0.002
Setting atom values ...
  1 settings made for diameter
set type 2 density 0.5
Setting atom values ...
  1 settings made for density

include structure/node_3.txt
create_atoms 3 single -0.08 0.0 -0.01
Created 1 atoms
  using lattice units in orthogonal box = (-0.11 -0.006 -0.015) to (0.11 0.006 0.015)
  create_atoms CPU = 0.000 seconds
set type 3 diameter 0.002
Setting atom values ...
  1 settings made for diameter
set type 3 density 0.5
Setting atom values ...
  1 settings made for density

include structure/node_4.txt
create_atoms 4 single -0.08 0.0 0.01
Created 1 atoms
  using lattice units in orthogonal box = (-0.11 -0.006 -0.015) to (0.11 0.006 0.015)
  create_atoms CPU = 0.000 seconds
set type 4 diameter 0.002
Setting atom values ...
  1 settings made for diameter
set type 4 density 0.5
Setting atom values ...
  1 settings made for density

include structure/node_5.txt
create_atoms 5 single -0.06 0.0 -0.01
Created 1 atoms
  using lattice units in orthogonal box = (-0.11 -0.006 -0.015) to (0.11 0.006 0.015)
  create_atoms CPU = 0.000 seconds
set type 5 diameter 0.002
Setting atom values ...
  1 settings made for diameter
set type 5 density 0.5
Setting atom values ...
  1 settings made for density

include structure/node_6.txt
create_atoms 6 single -0.06 0.0 0.01
Created 1 atoms
  using lattice units in orthogonal box = (-0.11 -0.006 -0.015) to (0.11 0.006 0.015)
  create_atoms CPU = 0.000 seconds
set type 6 diameter 0.002
Setting atom values ...
  1 settings made for diameter
set type 6 density 0.5
Setting atom values ...
  1 settings made for density

include structure/node_7.txt
create_atoms 7 single -0.039999999999999994 0.0 -0.01
Created 1 atoms
  using lattice units in orthogonal box = (-0.11 -0.006 -0.015) to (0.11 0.006 0.015)
  create_atoms CPU = 0.000 seconds
set type 7 diameter 0.002
Setting atom values ...
  1 settings made for diameter
set type 7 density 0.5
Setting atom values ...
  1 settings made for density

include structure/node_8.txt
create_atoms 8 single -0.039999999999999994 0.0 0.01
Created 1 atoms
  using lattice units in orthogonal box = (-0.11 -0.006 -0.015) to (0.11 0.006 0.015)
  create_atoms CPU = 0.000 seconds
set type 8 diameter 0.002
Setting atom values ...
  1 settings made for diameter
set type 8 density 0.5
Setting atom values ...
  1 settings made for density

include structure/node_9.txt
create_atoms 9 single -0.019999999999999997 0.0 -0.01
Created 1 atoms
  using lattice units in orthogonal box = (-0.11 -0.006 -0.015) to (0.11 0.006 0.015)
  create_atoms CPU = 0.000 seconds
set type 9 diameter 0.002
Setting atom values ...
  1 settings made for diameter
set type 9 density 0.5
Setting atom values ...
  1 settings made for density

include structure/node_10.txt
create_atoms 10 single -0.019999999999999997 0.0 0.01
Created 1 atoms
  using lattice units in orthogonal box = (-0.11 -0.006 -0.015) to (0.11 0.006 0.015)
  create_atoms CPU = 0.000 seconds
set type 10 diameter 0.002
Setting atom values ...
  1 settings made for diameter
set type 10 density 0.5
Setting atom values ...
  1 settings made for density

include structure/node_11.txt
create_atoms 11 single 0.0 0.0 -0.01
Created 1 atoms
  using lattice units in orthogonal box = (-0.11 -0.006 -0.015) to (0.11 0.006 0.015)
  create_atoms CPU = 0.000 seconds
set type 11 diameter 0.002
Setting atom values ...
  1 settings made for diameter
set type 11 density 0.5
Setting atom values ...
  1 settings made for density

include structure/node_12.txt
create_atoms 12 single 0.0 0.0 0.01
Created 1 atoms
  using lattice units in orthogonal box = (-0.11 -0.006 -0.015) to (0.11 0.006 0.015)
  create_atoms CPU = 0.000 seconds
set type 12 diameter 0.002
Setting atom values ...
  1 settings made for diameter
set type 12 density 0.5
Setting atom values ...
  1 settings made for density

include structure/node_13.txt
create_atoms 13 single 0.020000000000000004 0.0 -0.01
Created 1 atoms
  using lattice units in orthogonal box = (-0.11 -0.006 -0.015) to (0.11 0.006 0.015)
  create_atoms CPU = 0.000 seconds
set type 13 diameter 0.002
Setting atom values ...
  1 settings made for diameter
set type 13 density 0.5
Setting atom values ...
  1 settings made for density

include structure/node_14.txt
create_atoms 14 single 0.020000000000000004 0.0 0.01
Created 1 atoms
  using lattice units in orthogonal box = (-0.11 -0.006 -0.015) to (0.11 0.006 0.015)
  create_atoms CPU = 0.000 seconds
set type 14 diameter 0.002
Setting atom values ...
  1 settings made for diameter
set type 14 density 0.5
Setting atom values ...
  1 settings made for density

include structure/node_15.txt
create_atoms 15 single 0.04000000000000001 0.0 -0.01
Created 1 atoms
  using lattice units in orthogonal box = (-0.11 -0.006 -0.015) to (0.11 0.006 0.015)
  create_atoms CPU = 0.000 seconds
set type 15 diameter 0.002
Setting atom values ...
  1 settings made for diameter
set type 15 density 0.5
Setting atom values ...
  1 settings made for density

include structure/node_16.txt
create_atoms 16 single 0.04000000000000001 0.0 0.01
Created 1 atoms
  using lattice units in orthogonal box = (-0.11 -0.006 -0.015) to (0.11 0.006 0.015)
  create_atoms CPU = 0.000 seconds
set type 16 diameter 0.002
Setting atom values ...
  1 settings made for diameter
set type 16 density 0.5
Setting atom values ...
  1 settings made for density

include structure/node_17.txt
create_atoms 17 single 0.06 0.0 -0.01
Created 1 atoms
  using lattice units in orthogonal box = (-0.11 -0.006 -0.015) to (0.11 0.006 0.015)
  create_atoms CPU = 0.000 seconds
set type 17 diameter 0.002
Setting atom values ...
  1 settings made for diameter
set type 17 density 0.5
Setting atom values ...
  1 settings made for density

include structure/node_18.txt
create_atoms 18 single 0.06 0.0 0.01
Created 1 atoms
  using lattice units in orthogonal box = (-0.11 -0.006 -0.015) to (0.11 0.006 0.015)
  create_atoms CPU = 0.000 seconds
set type 18 diameter 0.002
Setting atom values ...
  1 settings made for diameter
set type 18 density 0.5
Setting atom values ...
  1 settings made for density

include structure/node_19.txt
create_atoms 19 single 0.08000000000000002 0.0 -0.01
Created 1 atoms
  using lattice units in orthogonal box = (-0.11 -0.006 -0.015) to (0.11 0.006 0.015)
  create_atoms CPU = 0.000 seconds
set type 19 diameter 0.002
Setting atom values ...
  1 settings made for diameter
set type 19 density 0.5
Setting atom values ...
  1 settings made for density

include structure/node_20.txt
create_atoms 20 single 0.08000000000000002 0.0 0.01
Created 1 atoms
  using lattice units in orthogonal box = (-0.11 -0.006 -0.015) to (0.11 0.006 0.015)
  create_atoms CPU = 0.000 seconds
set type 20 diameter 0.002
Setting atom values ...
  1 settings made for diameter
set type 20 density 0.5
Setting atom values ...
  1 settings made for density

include structure/element_21.txt
create_atoms 21 single -0.1 0.0 -0.009047619047619047
Created 1 atoms
  using lattice units in orthogonal box = (-0.11 -0.006 -0.015) to (0.11 0.006 0.015)
  create_atoms CPU = 0.000 seconds
create_atoms 21 single -0.1 0.0 -0.008095238095238096
Created 1 atoms
  using lattice units in orthogonal box = (-0.11 -0.006 -0.015) to (0.11 0.006 0.015)
  create_atoms CPU = 0.000 seconds
create_atoms 21 single -0.1 0.0 -0.0071428571428571435
Created 1 atoms
  using lattice units in orthogonal box = (-0.11 -0.006 -0.015) to (0.11 0.006 0.015)
  create_atoms CPU = 0.000 seconds
create_atoms 21 single -0.1 0.0 -0.006190476190476191
Created 1 atoms
  using lattice units in orthogonal box = (-0.11 -0.006 -0.015) to (0.11 0.006 0.015)
  create_atoms CPU = 0.000 seconds
create_atoms 21 single -0.1 0.0 -0.005238095238095239
Created 1 atoms
  using lattice units in orthogonal box = (-0.11 -0.006 -0.015) to (0.11 0.006 0.015)
  create_atoms CPU = 0.000 seconds
create_atoms 21 single -0.1 0.0 -0.004285714285714286
Created 1 atoms
  using lattice units in orthogonal box = (-0.11 -0.006 -0.015) to (0.11 0.006 0.015)
  create_atoms CPU = 0.000 seconds
create_atoms 21 single -0.1 0.0 -0.003333333333333334
Created 1 atoms
  using lattice units in orthogonal box = (-0.11 -0.006 -0.015) to (0.11 0.006 0.015)
  create_atoms CPU = 0.000 seconds
create_atoms 21 single -0.1 0.0 -0.002380952380952381
Created 1 atoms
  using lattice units in orthogonal box = (-0.11 -0.006 -0.015) to (0.11 0.006 0.015)
  create_atoms CPU = 0.000 seconds
create_atoms 21 single -0.1 0.0 -0.0014285714285714284
Created 1 atoms
  using lattice units in orthogonal box = (-0.11 -0.006 -0.015) to (0.11 0.006 0.015)
  create_atoms CPU = 0.000 seconds
create_atoms 21 single -0.1 0.0 -0.0004761904761904773
Created 1 atoms
  using lattice units in orthogonal box = (-0.11 -0.006 -0.015) to (0.11 0.006 0.015)
  create_atoms CPU = 0.000 seconds
create_atoms 21 single -0.1 0.0 0.0004761904761904738
Created 1 atoms
  using lattice units in orthogonal box = (-0.11 -0.006 -0.015) to (0.11 0.006 0.015)
  create_atoms CPU = 0.000 seconds
create_atoms 21 single -0.1 0.0 0.0014285714285714284
Created 1 atoms
  using lattice units in orthogonal box = (-0.11 -0.006 -0.015) to (0.11 0.006 0.015)
  create_atoms CPU = 0.000 seconds
create_atoms 21 single -0.1 0.0 0.002380952380952381
Created 1 atoms
  using lattice units in orthogonal box = (-0.11 -0.006 -0.015) to (0.11 0.006 0.015)
  create_atoms CPU = 0.000 seconds
create_atoms 21 single -0.1 0.0 0.0033333333333333322
Created 1 atoms
  using lattice units in orthogonal box = (-0.11 -0.006 -0.015) to (0.11 0.006 0.015)
  create_atoms CPU = 0.000 seconds
create_atoms 21 single -0.1 0.0 0.004285714285714283
Created 1 atoms
  using lattice units in orthogonal box = (-0.11 -0.006 -0.015) to (0.11 0.006 0.015)
  create_atoms CPU = 0.000 seconds
create_atoms 21 single -0.1 0.0 0.005238095238095238
Created 1 atoms
  using lattice units in orthogonal box = (-0.11 -0.006 -0.015) to (0.11 0.006 0.015)
  create_atoms CPU = 0.000 seconds
create_atoms 21 single -0.1 0.0 0.006190476190476192
Created 1 atoms
  using lattice units in orthogonal box = (-0.11 -0.006 -0.015) to (0.11 0.006 0.015)
  create_atoms CPU = 0.000 seconds
create_atoms 21 single -0.1 0.0 0.0071428571428571435
Created 1 atoms
  using lattice units in orthogonal box = (-0.11 -0.006 -0.015) to (0.11 0.006 0.015)
  create_atoms CPU = 0.000 seconds
create_atoms 21 single -0.1 0.0 0.008095238095238095
Created 1 atoms
  using lattice units in orthogonal box = (-0.11 -0.006 -0.015) to (0.11 0.006 0.015)
  create_atoms CPU = 0.000 seconds
create_atoms 21 single -0.1 0.0 0.009047619047619046
Created 1 atoms
  using lattice units in orthogonal box = (-0.11 -0.006 -0.015) to (0.11 0.006 0.015)
  create_atoms CPU = 0.000 seconds
set type 21 diameter 0.002
Setting atom values ...
  20 settings made for diameter
set type 21 density 0.5
Setting atom values ...
  20 settings made for density
pair_coeff 21 21 granular hertz/material 0 0 0.5 tangential linear_nohistory 0 0

include structure/element_22.txt
create_atoms 22 single -0.08 0.0 -0.009047619047619047
Created 1 atoms
  using lattice units in orthogonal box = (-0.11 -0.006 -0.015) to (0.11 0.006 0.015)
  create_atoms CPU = 0.000 seconds
create_atoms 22 single -0.08 0.0 -0.008095238095238096
Created 1 atoms
  using lattice units in orthogonal box = (-0.11 -0.006 -0.015) to (0.11 0.006 0.015)
  create_atoms CPU = 0.000 seconds
create_atoms 22 single -0.08 0.0 -0.0071428571428571435
Created 1 atoms
  using lattice units in orthogonal box = (-0.11 -0.006 -0.015) to (0.11 0.006 0.015)
  create_atoms CPU = 0.000 seconds
create_atoms 22 single -0.08 0.0 -0.006190476190476191
Created 1 atoms
  using lattice units in orthogonal box = (-0.11 -0.006 -0.015) to (0.11 0.006 0.015)
  create_atoms CPU = 0.000 seconds
create_atoms 22 single -0.08 0.0 -0.005238095238095239
Created 1 atoms
  using lattice units in orthogonal box = (-0.11 -0.006 -0.015) to (0.11 0.006 0.015)
  create_atoms CPU = 0.000 seconds
create_atoms 22 single -0.08 0.0 -0.004285714285714286
Created 1 atoms
  using lattice units in orthogonal box = (-0.11 -0.006 -0.015) to (0.11 0.006 0.015)
  create_atoms CPU = 0.000 seconds
create_atoms 22 single -0.08 0.0 -0.003333333333333334
Created 1 atoms
  using lattice units in orthogonal box = (-0.11 -0.006 -0.015) to (0.11 0.006 0.015)
  create_atoms CPU = 0.000 seconds
create_atoms 22 single -0.08 0.0 -0.002380952380952381
Created 1 atoms
  using lattice units in orthogonal box = (-0.11 -0.006 -0.015) to (0.11 0.006 0.015)
  create_atoms CPU = 0.000 seconds
create_atoms 22 single -0.08 0.0 -0.0014285714285714284
Created 1 atoms
  using lattice units in orthogonal box = (-0.11 -0.006 -0.015) to (0.11 0.006 0.015)
  create_atoms CPU = 0.000 seconds
create_atoms 22 single -0.08 0.0 -0.0004761904761904773
Created 1 atoms
  using lattice units in orthogonal box = (-0.11 -0.006 -0.015) to (0.11 0.006 0.015)
  create_atoms CPU = 0.000 seconds
create_atoms 22 single -0.08 0.0 0.0004761904761904738
Created 1 atoms
  using lattice units in orthogonal box = (-0.11 -0.006 -0.015) to (0.11 0.006 0.015)
  create_atoms CPU = 0.000 seconds
create_atoms 22 single -0.08 0.0 0.0014285714285714284
Created 1 atoms
  using lattice units in orthogonal box = (-0.11 -0.006 -0.015) to (0.11 0.006 0.015)
  create_atoms CPU = 0.000 seconds
create_atoms 22 single -0.08 0.0 0.002380952380952381
Created 1 atoms
  using lattice units in orthogonal box = (-0.11 -0.006 -0.015) to (0.11 0.006 0.015)
  create_atoms CPU = 0.000 seconds
create_atoms 22 single -0.08 0.0 0.0033333333333333322
Created 1 atoms
  using lattice units in orthogonal box = (-0.11 -0.006 -0.015) to (0.11 0.006 0.015)
  create_atoms CPU = 0.000 seconds
create_atoms 22 single -0.08 0.0 0.004285714285714283
Created 1 atoms
  using lattice units in orthogonal box = (-0.11 -0.006 -0.015) to (0.11 0.006 0.015)
  create_atoms CPU = 0.000 seconds
create_atoms 22 single -0.08 0.0 0.005238095238095238
Created 1 atoms
  using lattice units in orthogonal box = (-0.11 -0.006 -0.015) to (0.11 0.006 0.015)
  create_atoms CPU = 0.000 seconds
create_atoms 22 single -0.08 0.0 0.006190476190476192
Created 1 atoms
  using lattice units in orthogonal box = (-0.11 -0.006 -0.015) to (0.11 0.006 0.015)
  create_atoms CPU = 0.000 seconds
create_atoms 22 single -0.08 0.0 0.0071428571428571435
Created 1 atoms
  using lattice units in orthogonal box = (-0.11 -0.006 -0.015) to (0.11 0.006 0.015)
  create_atoms CPU = 0.000 seconds
create_atoms 22 single -0.08 0.0 0.008095238095238095
Created 1 atoms
  using lattice units in orthogonal box = (-0.11 -0.006 -0.015) to (0.11 0.006 0.015)
  create_atoms CPU = 0.000 seconds
create_atoms 22 single -0.08 0.0 0.009047619047619046
Created 1 atoms
  using lattice units in orthogonal box = (-0.11 -0.006 -0.015) to (0.11 0.006 0.015)
  create_atoms CPU = 0.000 seconds
set type 22 diameter 0.002
Setting atom values ...
  20 settings made for diameter
set type 22 density 0.5
Setting atom values ...
  20 settings made for density
pair_coeff 22 22 granular hertz/material 0 0 0.5 tangential linear_nohistory 0 0

include structure/element_23.txt
create_atoms 23 single -0.09904761904761905 0.0 -0.01
Created 1 atoms
  using lattice units in orthogonal box = (-0.11 -0.006 -0.015) to (0.11 0.006 0.015)
  create_atoms CPU = 0.000 seconds
create_atoms 23 single -0.0980952380952381 0.0 -0.01
Created 1 atoms
  using lattice units in orthogonal box = (-0.11 -0.006 -0.015) to (0.11 0.006 0.015)
  create_atoms CPU = 0.000 seconds
create_atoms 23 single -0.09714285714285714 0.0 -0.01
Created 1 atoms
  using lattice units in orthogonal box = (-0.11 -0.006 -0.015) to (0.11 0.006 0.015)
  create_atoms CPU = 0.000 seconds
create_atoms 23 single -0.0961904761904762 0.0 -0.01
Created 1 atoms
  using lattice units in orthogonal box = (-0.11 -0.006 -0.015) to (0.11 0.006 0.015)
  create_atoms CPU = 0.000 seconds
create_atoms 23 single -0.09523809523809525 0.0 -0.01
Created 1 atoms
  using lattice units in orthogonal box = (-0.11 -0.006 -0.015) to (0.11 0.006 0.015)
  create_atoms CPU = 0.000 seconds
create_atoms 23 single -0.09428571428571429 0.0 -0.01
Created 1 atoms
  using lattice units in orthogonal box = (-0.11 -0.006 -0.015) to (0.11 0.006 0.015)
  create_atoms CPU = 0.000 seconds
create_atoms 23 single -0.09333333333333334 0.0 -0.01
Created 1 atoms
  using lattice units in orthogonal box = (-0.11 -0.006 -0.015) to (0.11 0.006 0.015)
  create_atoms CPU = 0.000 seconds
create_atoms 23 single -0.09238095238095238 0.0 -0.01
Created 1 atoms
  using lattice units in orthogonal box = (-0.11 -0.006 -0.015) to (0.11 0.006 0.015)
  create_atoms CPU = 0.000 seconds
create_atoms 23 single -0.09142857142857143 0.0 -0.01
Created 1 atoms
  using lattice units in orthogonal box = (-0.11 -0.006 -0.015) to (0.11 0.006 0.015)
  create_atoms CPU = 0.000 seconds
create_atoms 23 single -0.09047619047619049 0.0 -0.01
Created 1 atoms
  using lattice units in orthogonal box = (-0.11 -0.006 -0.015) to (0.11 0.006 0.015)
  create_atoms CPU = 0.000 seconds
create_atoms 23 single -0.08952380952380953 0.0 -0.01
Created 1 atoms
  using lattice units in orthogonal box = (-0.11 -0.006 -0.015) to (0.11 0.006 0.015)
  create_atoms CPU = 0.000 seconds
create_atoms 23 single -0.08857142857142858 0.0 -0.01
Created 1 atoms
  using lattice units in orthogonal box = (-0.11 -0.006 -0.015) to (0.11 0.006 0.015)
  create_atoms CPU = 0.000 seconds
create_atoms 23 single -0.08761904761904762 0.0 -0.01
Created 1 atoms
  using lattice units in orthogonal box = (-0.11 -0.006 -0.015) to (0.11 0.006 0.015)
  create_atoms CPU = 0.000 seconds
create_atoms 23 single -0.08666666666666667 0.0 -0.01
Created 1 atoms
  using lattice units in orthogonal box = (-0.11 -0.006 -0.015) to (0.11 0.006 0.015)
  create_atoms CPU = 0.000 seconds
create_atoms 23 single -0.08571428571428572 0.0 -0.01
Created 1 atoms
  using lattice units in orthogonal box = (-0.11 -0.006 -0.015) to (0.11 0.006 0.015)
  create_atoms CPU = 0.000 seconds
create_atoms 23 single -0.08476190476190476 0.0 -0.01
Created 1 atoms
  using lattice units in orthogonal box = (-0.11 -0.006 -0.015) to (0.11 0.006 0.015)
  create_atoms CPU = 0.000 seconds
create_atoms 23 single -0.0838095238095238 0.0 -0.01
Created 1 atoms
  using lattice units in orthogonal box = (-0.11 -0.006 -0.015) to (0.11 0.006 0.015)
  create_atoms CPU = 0.000 seconds
create_atoms 23 single -0.08285714285714287 0.0 -0.01
Created 1 atoms
  using lattice units in orthogonal box = (-0.11 -0.006 -0.015) to (0.11 0.006 0.015)
  create_atoms CPU = 0.000 seconds
create_atoms 23 single -0.08190476190476191 0.0 -0.01
Created 1 atoms
  using lattice units in orthogonal box = (-0.11 -0.006 -0.015) to (0.11 0.006 0.015)
  create_atoms CPU = 0.000 seconds
create_atoms 23 single -0.08095238095238096 0.0 -0.01
Created 1 atoms
  using lattice units in orthogonal box = (-0.11 -0.006 -0.015) to (0.11 0.006 0.015)
  create_atoms CPU = 0.000 seconds
set type 23 diameter 0.002
Setting atom values ...
  20 settings made for diameter
set type 23 density 0.5
Setting atom values ...
  20 settings made for density
pair_coeff 23 23 granular hertz/material 0 0 0.5 tangential linear_nohistory 0 0

include structure/element_24.txt
create_atoms 24 single -0.09904761904761905 0.0 0.01
Created 1 atoms
  using lattice units in orthogonal box = (-0.11 -0.006 -0.015) to (0.11 0.006 0.015)
  create_atoms CPU = 0.000 seconds
create_atoms 24 single -0.0980952380952381 0.0 0.01
Created 1 atoms
  using lattice units in orthogonal box = (-0.11 -0.006 -0.015) to (0.11 0.006 0.015)
  create_atoms CPU = 0.000 seconds
create_atoms 24 single -0.09714285714285714 0.0 0.01
Created 1 atoms
  using lattice units in orthogonal box = (-0.11 -0.006 -0.015) to (0.11 0.006 0.015)
  create_atoms CPU = 0.000 seconds
create_atoms 24 single -0.0961904761904762 0.0 0.01
Created 1 atoms
  using lattice units in orthogonal box = (-0.11 -0.006 -0.015) to (0.11 0.006 0.015)
  create_atoms CPU = 0.000 seconds
create_atoms 24 single -0.09523809523809525 0.0 0.01
Created 1 atoms
  using lattice units in orthogonal box = (-0.11 -0.006 -0.015) to (0.11 0.006 0.015)
  create_atoms CPU = 0.000 seconds
create_atoms 24 single -0.09428571428571429 0.0 0.01
Created 1 atoms
  using lattice units in orthogonal box = (-0.11 -0.006 -0.015) to (0.11 0.006 0.015)
  create_atoms CPU = 0.000 seconds
create_atoms 24 single -0.09333333333333334 0.0 0.01
Created 1 atoms
  using lattice units in orthogonal box = (-0.11 -0.006 -0.015) to (0.11 0.006 0.015)
  create_atoms CPU = 0.000 seconds
create_atoms 24 single -0.09238095238095238 0.0 0.01
Created 1 atoms
  using lattice units in orthogonal box = (-0.11 -0.006 -0.015) to (0.11 0.006 0.015)
  create_atoms CPU = 0.000 seconds
create_atoms 24 single -0.09142857142857143 0.0 0.01
Created 1 atoms
  using lattice units in orthogonal box = (-0.11 -0.006 -0.015) to (0.11 0.006 0.015)
  create_atoms CPU = 0.000 seconds
create_atoms 24 single -0.09047619047619049 0.0 0.01
Created 1 atoms
  using lattice units in orthogonal box = (-0.11 -0.006 -0.015) to (0.11 0.006 0.015)
  create_atoms CPU = 0.000 seconds
create_atoms 24 single -0.08952380952380953 0.0 0.01
Created 1 atoms
  using lattice units in orthogonal box = (-0.11 -0.006 -0.015) to (0.11 0.006 0.015)
  create_atoms CPU = 0.000 seconds
create_atoms 24 single -0.08857142857142858 0.0 0.01
Created 1 atoms
  using lattice units in orthogonal box = (-0.11 -0.006 -0.015) to (0.11 0.006 0.015)
  create_atoms CPU = 0.000 seconds
create_atoms 24 single -0.08761904761904762 0.0 0.01
Created 1 atoms
  using lattice units in orthogonal box = (-0.11 -0.006 -0.015) to (0.11 0.006 0.015)
  create_atoms CPU = 0.000 seconds
create_atoms 24 single -0.08666666666666667 0.0 0.01
Created 1 atoms
  using lattice units in orthogonal box = (-0.11 -0.006 -0.015) to (0.11 0.006 0.015)
  create_atoms CPU = 0.000 seconds
create_atoms 24 single -0.08571428571428572 0.0 0.01
Created 1 atoms
  using lattice units in orthogonal box = (-0.11 -0.006 -0.015) to (0.11 0.006 0.015)
  create_atoms CPU = 0.000 seconds
create_atoms 24 single -0.08476190476190476 0.0 0.01
Created 1 atoms
  using lattice units in orthogonal box = (-0.11 -0.006 -0.015) to (0.11 0.006 0.015)
  create_atoms CPU = 0.000 seconds
create_atoms 24 single -0.0838095238095238 0.0 0.01
Created 1 atoms
  using lattice units in orthogonal box = (-0.11 -0.006 -0.015) to (0.11 0.006 0.015)
  create_atoms CPU = 0.000 seconds
create_atoms 24 single -0.08285714285714287 0.0 0.01
Created 1 atoms
  using lattice units in orthogonal box = (-0.11 -0.006 -0.015) to (0.11 0.006 0.015)
  create_atoms CPU = 0.000 seconds
create_atoms 24 single -0.08190476190476191 0.0 0.01
Created 1 atoms
  using lattice units in orthogonal box = (-0.11 -0.006 -0.015) to (0.11 0.006 0.015)
  create_atoms CPU = 0.000 seconds
create_atoms 24 single -0.08095238095238096 0.0 0.01
Created 1 atoms
  using lattice units in orthogonal box = (-0.11 -0.006 -0.015) to (0.11 0.006 0.015)
  create_atoms CPU = 0.000 seconds
set type 24 diameter 0.002
Setting atom values ...
  20 settings made for diameter
set type 24 density 0.5
Setting atom values ...
  20 settings made for density
pair_coeff 24 24 granular hertz/material 0 0 0.5 tangential linear_nohistory 0 0

include structure/element_25.txt
create_atoms 25 single -0.09931034482758622 0.0 -0.009310344827586208
Created 1 atoms
  using lattice units in orthogonal box = (-0.11 -0.006 -0.015) to (0.11 0.006 0.015)
  create_atoms CPU = 0.000 seconds
create_atoms 25 single -0.09862068965517241 0.0 -0.008620689655172414
Created 1 atoms
  using lattice units in orthogonal box = (-0.11 -0.006 -0.015) to (0.11 0.006 0.015)
  create_atoms CPU = 0.000 seconds
create_atoms 25 single -0.09793103448275862 0.0 -0.007931034482758621
Created 1 atoms
  using lattice units in orthogonal box = (-0.11 -0.006 -0.015) to (0.11 0.006 0.015)
  create_atoms CPU = 0.000 seconds
create_atoms 25 single -0.09724137931034484 0.0 -0.007241379310344827
Created 1 atoms
  using lattice units in orthogonal box = (-0.11 -0.006 -0.015) to (0.11 0.006 0.015)
  create_atoms CPU = 0.000 seconds
create_atoms 25 single -0.09655172413793103 0.0 -0.006551724137931035
Created 1 atoms
  using lattice units in orthogonal box = (-0.11 -0.006 -0.015) to (0.11 0.006 0.015)
  create_atoms CPU = 0.000 seconds
create_atoms 25 single -0.09586206896551724 0.0 -0.0058620689655172415
Created 1 atoms
  using lattice units in orthogonal box = (-0.11 -0.006 -0.015) to (0.11 0.006 0.015)
  create_atoms CPU = 0.000 seconds
create_atoms 25 single -0.09517241379310346 0.0 -0.005172413793103449
Created 1 atoms
  using lattice units in orthogonal box = (-0.11 -0.006 -0.015) to (0.11 0.006 0.015)
  create_atoms CPU = 0.000 seconds
create_atoms 25 single -0.09448275862068967 0.0 -0.004482758620689655
Created 1 atoms
  using lattice units in orthogonal box = (-0.11 -0.006 -0.015) to (0.11 0.006 0.015)
  create_atoms CPU = 0.000 seconds
create_atoms 25 single -0.09379310344827586 0.0 -0.0037931034482758617
Created 1 atoms
  using lattice units in orthogonal box = (-0.11 -0.006 -0.015) to (0.11 0.006 0.015)
  create_atoms CPU = 0.000 seconds
create_atoms 25 single -0.09310344827586207 0.0 -0.0031034482758620684
Created 1 atoms
  using lattice units in orthogonal box = (-0.11 -0.006 -0.015) to (0.11 0.006 0.015)
  create_atoms CPU = 0.000 seconds
create_atoms 25 single -0.09241379310344829 0.0 -0.002413793103448276
Created 1 atoms
  using lattice units in orthogonal box = (-0.11 -0.006 -0.015) to (0.11 0.006 0.015)
  create_atoms CPU = 0.000 seconds
create_atoms 25 single -0.09172413793103448 0.0 -0.0017241379310344827
Created 1 atoms
  using lattice units in orthogonal box = (-0.11 -0.006 -0.015) to (0.11 0.006 0.015)
  create_atoms CPU = 0.000 seconds
create_atoms 25 single -0.0910344827586207 0.0 -0.0010344827586206903
Created 1 atoms
  using lattice units in orthogonal box = (-0.11 -0.006 -0.015) to (0.11 0.006 0.015)
  create_atoms CPU = 0.000 seconds
create_atoms 25 single -0.0903448275862069 0.0 -0.00034482758620689793
Created 1 atoms
  using lattice units in orthogonal box = (-0.11 -0.006 -0.015) to (0.11 0.006 0.015)
  create_atoms CPU = 0.000 seconds
create_atoms 25 single -0.0896551724137931 0.0 0.00034482758620689793
Created 1 atoms
  using lattice units in orthogonal box = (-0.11 -0.006 -0.015) to (0.11 0.006 0.015)
  create_atoms CPU = 0.000 seconds
create_atoms 25 single -0.08896551724137931 0.0 0.0010344827586206903
Created 1 atoms
  using lattice units in orthogonal box = (-0.11 -0.006 -0.015) to (0.11 0.006 0.015)
  create_atoms CPU = 0.000 seconds
create_atoms 25 single -0.08827586206896552 0.0 0.001724137931034481
Created 1 atoms
  using lattice units in orthogonal box = (-0.11 -0.006 -0.015) to (0.11 0.006 0.015)
  create_atoms CPU = 0.000 seconds
create_atoms 25 single -0.08758620689655172 0.0 0.002413793103448277
Created 1 atoms
  using lattice units in orthogonal box = (-0.11 -0.006 -0.015) to (0.11 0.006 0.015)
  create_atoms CPU = 0.000 seconds
create_atoms 25 single -0.08689655172413793 0.0 0.0031034482758620693
Created 1 atoms
  using lattice units in orthogonal box = (-0.11 -0.006 -0.015) to (0.11 0.006 0.015)
  create_atoms CPU = 0.000 seconds
create_atoms 25 single -0.08620689655172414 0.0 0.0037931034482758634
Created 1 atoms
  using lattice units in orthogonal box = (-0.11 -0.006 -0.015) to (0.11 0.006 0.015)
  create_atoms CPU = 0.000 seconds
create_atoms 25 single -0.08551724137931035 0.0 0.004482758620689656
Created 1 atoms
  using lattice units in orthogonal box = (-0.11 -0.006 -0.015) to (0.11 0.006 0.015)
  create_atoms CPU = 0.000 seconds
create_atoms 25 single -0.08482758620689655 0.0 0.005172413793103448
Created 1 atoms
  using lattice units in orthogonal box = (-0.11 -0.006 -0.015) to (0.11 0.006 0.015)
  create_atoms CPU = 0.000 seconds
create_atoms 25 single -0.08413793103448276 0.0 0.005862068965517242
Created 1 atoms
  using lattice units in orthogonal box = (-0.11 -0.006 -0.015) to (0.11 0.006 0.015)
  create_atoms CPU = 0.000 seconds
create_atoms 25 single -0.08344827586206896 0.0 0.006551724137931035
Created 1 atoms
  using lattice units in orthogonal box = (-0.11 -0.006 -0.015) to (0.11 0.006 0.015)
  create_atoms CPU = 0.000 seconds
create_atoms 25 single -0.08275862068965517 0.0 0.007241379310344827
Created 1 atoms
  using lattice units in orthogonal box = (-0.11 -0.006 -0.015) to (0.11 0.006 0.015)
  create_atoms CPU = 0.000 seconds
create_atoms 25 single -0.08206896551724138 0.0 0.00793103448275862
Created 1 atoms
  using lattice units in orthogonal box = (-0.11 -0.006 -0.015) to (0.11 0.006 0.015)
  create_atoms CPU = 0.000 seconds
create_atoms 25 single -0.0813793103448276 0.0 0.008620689655172412
Created 1 atoms
  using lattice units in orthogonal box = (-0.11 -0.006 -0.015) to (0.11 0.006 0.015)
  create_atoms CPU = 0.000 seconds
create_atoms 25 single -0.0806896551724138 0.0 0.009310344827586204
Created 1 atoms
  using lattice units in orthogonal box = (-0.11 -0.006 -0.015) to (0.11 0.006 0.015)
  create_atoms CPU = 0.000 seconds
set type 25 diameter 0.002
Setting atom values ...
  28 settings made for diameter
set type 25 density 0.5
Setting atom values ...
  28 settings made for density
pair_coeff 25 25 granular hertz/material 0 0 0.5 tangential linear_nohistory 0 0

include structure/element_26.txt
create_atoms 26 single -0.06 0.0 -0.009047619047619047
Created 1 atoms
  using lattice units in orthogonal box = (-0.11 -0.006 -0.015) to (0.11 0.006 0.015)
  create_atoms CPU = 0.000 seconds
create_atoms 26 single -0.06 0.0 -0.008095238095238096
Created 1 atoms
  using lattice units in orthogonal box = (-0.11 -0.006 -0.015) to (0.11 0.006 0.015)
  create_atoms CPU = 0.000 seconds
create_atoms 26 single -0.06 0.0 -0.0071428571428571435
Created 1 atoms
  using lattice units in orthogonal box = (-0.11 -0.006 -0.015) to (0.11 0.006 0.015)
  create_atoms CPU = 0.000 seconds
create_atoms 26 single -0.06 0.0 -0.006190476190476191
Created 1 atoms
  using lattice units in orthogonal box = (-0.11 -0.006 -0.015) to (0.11 0.006 0.015)
  create_atoms CPU = 0.000 seconds
create_atoms 26 single -0.06 0.0 -0.005238095238095239
Created 1 atoms
  using lattice units in orthogonal box = (-0.11 -0.006 -0.015) to (0.11 0.006 0.015)
  create_atoms CPU = 0.000 seconds
create_atoms 26 single -0.06 0.0 -0.004285714285714286
Created 1 atoms
  using lattice units in orthogonal box = (-0.11 -0.006 -0.015) to (0.11 0.006 0.015)
  create_atoms CPU = 0.000 seconds
create_atoms 26 single -0.06 0.0 -0.003333333333333334
Created 1 atoms
  using lattice units in orthogonal box = (-0.11 -0.006 -0.015) to (0.11 0.006 0.015)
  create_atoms CPU = 0.000 seconds
create_atoms 26 single -0.06 0.0 -0.002380952380952381
Created 1 atoms
  using lattice units in orthogonal box = (-0.11 -0.006 -0.015) to (0.11 0.006 0.015)
  create_atoms CPU = 0.000 seconds
create_atoms 26 single -0.06 0.0 -0.0014285714285714284
Created 1 atoms
  using lattice units in orthogonal box = (-0.11 -0.006 -0.015) to (0.11 0.006 0.015)
  create_atoms CPU = 0.000 seconds
create_atoms 26 single -0.06 0.0 -0.0004761904761904773
Created 1 atoms
  using lattice units in orthogonal box = (-0.11 -0.006 -0.015) to (0.11 0.006 0.015)
  create_atoms CPU = 0.000 seconds
create_atoms 26 single -0.06 0.0 0.0004761904761904738
Created 1 atoms
  using lattice units in orthogonal box = (-0.11 -0.006 -0.015) to (0.11 0.006 0.015)
  create_atoms CPU = 0.000 seconds
create_atoms 26 single -0.06 0.0 0.0014285714285714284
Created 1 atoms
  using lattice units in orthogonal box = (-0.11 -0.006 -0.015) to (0.11 0.006 0.015)
  create_atoms CPU = 0.000 seconds
create_atoms 26 single -0.06 0.0 0.002380952380952381
Created 1 atoms
  using lattice units in orthogonal box = (-0.11 -0.006 -0.015) to (0.11 0.006 0.015)
  create_atoms CPU = 0.000 seconds
create_atoms 26 single -0.06 0.0 0.0033333333333333322
Created 1 atoms
  using lattice units in orthogonal box = (-0.11 -0.006 -0.015) to (0.11 0.006 0.015)
  create_atoms CPU = 0.000 seconds
create_atoms 26 single -0.06 0.0 0.004285714285714283
Created 1 atoms
  using lattice units in orthogonal box = (-0.11 -0.006 -0.015) to (0.11 0.006 0.015)
  create_atoms CPU = 0.000 seconds
create_atoms 26 single -0.06 0.0 0.005238095238095238
Created 1 atoms
  using lattice units in orthogonal box = (-0.11 -0.006 -0.015) to (0.11 0.006 0.015)
  create_atoms CPU = 0.000 seconds
create_atoms 26 single -0.06 0.0 0.006190476190476192
Created 1 atoms
  using lattice units in orthogonal box = (-0.11 -0.006 -0.015) to (0.11 0.006 0.015)
  create_atoms CPU = 0.000 seconds
create_atoms 26 single -0.06 0.0 0.0071428571428571435
Created 1 atoms
  using lattice units in orthogonal box = (-0.11 -0.006 -0.015) to (0.11 0.006 0.015)
  create_atoms CPU = 0.000 seconds
create_atoms 26 single -0.06 0.0 0.008095238095238095
Created 1 atoms
  using lattice units in orthogonal box = (-0.11 -0.006 -0.015) to (0.11 0.006 0.015)
  create_atoms CPU = 0.000 seconds
create_atoms 26 single -0.06 0.0 0.009047619047619046
Created 1 atoms
  using lattice units in orthogonal box = (-0.11 -0.006 -0.015) to (0.11 0.006 0.015)
  create_atoms CPU = 0.000 seconds
set type 26 diameter 0.002
Setting atom values ...
  20 settings made for diameter
set type 26 density 0.5
Setting atom values ...
  20 settings made for density
pair_coeff 26 26 granular hertz/material 0 0 0.5 tangential linear_nohistory 0 0

include structure/element_27.txt
create_atoms 27 single -0.07904761904761905 0.0 -0.01
Created 1 atoms
  using lattice units in orthogonal box = (-0.11 -0.006 -0.015) to (0.11 0.006 0.015)
  create_atoms CPU = 0.000 seconds
create_atoms 27 single -0.07809523809523809 0.0 -0.01
Created 1 atoms
  using lattice units in orthogonal box = (-0.11 -0.006 -0.015) to (0.11 0.006 0.015)
  create_atoms CPU = 0.000 seconds
create_atoms 27 single -0.07714285714285714 0.0 -0.01
Created 1 atoms
  using lattice units in orthogonal box = (-0.11 -0.006 -0.015) to (0.11 0.006 0.015)
  create_atoms CPU = 0.000 seconds
create_atoms 27 single -0.0761904761904762 0.0 -0.01
Created 1 atoms
  using lattice units in orthogonal box = (-0.11 -0.006 -0.015) to (0.11 0.006 0.015)
  create_atoms CPU = 0.000 seconds
create_atoms 27 single -0.07523809523809524 0.0 -0.01
Created 1 atoms
  using lattice units in orthogonal box = (-0.11 -0.006 -0.015) to (0.11 0.006 0.015)
  create_atoms CPU = 0.000 seconds
create_atoms 27 single -0.07428571428571429 0.0 -0.01
Created 1 atoms
  using lattice units in orthogonal box = (-0.11 -0.006 -0.015) to (0.11 0.006 0.015)
  create_atoms CPU = 0.000 seconds
create_atoms 27 single -0.07333333333333333 0.0 -0.01
Created 1 atoms
  using lattice units in orthogonal box = (-0.11 -0.006 -0.015) to (0.11 0.006 0.015)
  create_atoms CPU = 0.000 seconds
create_atoms 27 single -0.07238095238095238 0.0 -0.01
Created 1 atoms
  using lattice units in orthogonal box = (-0.11 -0.006 -0.015) to (0.11 0.006 0.015)
  create_atoms CPU = 0.000 seconds
create_atoms 27 single -0.07142857142857142 0.0 -0.01
Created 1 atoms
  using lattice units in orthogonal box = (-0.11 -0.006 -0.015) to (0.11 0.006 0.015)
  create_atoms CPU = 0.000 seconds
create_atoms 27 single -0.07047619047619047 0.0 -0.01
Created 1 atoms
  using lattice units in orthogonal box = (-0.11 -0.006 -0.015) to (0.11 0.006 0.015)
  create_atoms CPU = 0.000 seconds
create_atoms 27 single -0.06952380952380953 0.0 -0.01
Created 1 atoms
  using lattice units in orthogonal box = (-0.11 -0.006 -0.015) to (0.11 0.006 0.015)
  create_atoms CPU = 0.000 seconds
create_atoms 27 single -0.06857142857142857 0.0 -0.01
Created 1 atoms
  using lattice units in orthogonal box = (-0.11 -0.006 -0.015) to (0.11 0.006 0.015)
  create_atoms CPU = 0.000 seconds
create_atoms 27 single -0.06761904761904762 0.0 -0.01
Created 1 atoms
  using lattice units in orthogonal box = (-0.11 -0.006 -0.015) to (0.11 0.006 0.015)
  create_atoms CPU = 0.000 seconds
create_atoms 27 single -0.06666666666666667 0.0 -0.01
Created 1 atoms
  using lattice units in orthogonal box = (-0.11 -0.006 -0.015) to (0.11 0.006 0.015)
  create_atoms CPU = 0.000 seconds
create_atoms 27 single -0.06571428571428571 0.0 -0.01
Created 1 atoms
  using lattice units in orthogonal box = (-0.11 -0.006 -0.015) to (0.11 0.006 0.015)
  create_atoms CPU = 0.000 seconds
create_atoms 27 single -0.06476190476190476 0.0 -0.01
Created 1 atoms
  using lattice units in orthogonal box = (-0.11 -0.006 -0.015) to (0.11 0.006 0.015)
  create_atoms CPU = 0.000 seconds
create_atoms 27 single -0.06380952380952382 0.0 -0.01
Created 1 atoms
  using lattice units in orthogonal box = (-0.11 -0.006 -0.015) to (0.11 0.006 0.015)
  create_atoms CPU = 0.000 seconds
create_atoms 27 single -0.06285714285714286 0.0 -0.01
Created 1 atoms
  using lattice units in orthogonal box = (-0.11 -0.006 -0.015) to (0.11 0.006 0.015)
  create_atoms CPU = 0.000 seconds
create_atoms 27 single -0.06190476190476191 0.0 -0.01
Created 1 atoms
  using lattice units in orthogonal box = (-0.11 -0.006 -0.015) to (0.11 0.006 0.015)
  create_atoms CPU = 0.000 seconds
create_atoms 27 single -0.06095238095238095 0.0 -0.01
Created 1 atoms
  using lattice units in orthogonal box = (-0.11 -0.006 -0.015) to (0.11 0.006 0.015)
  create_atoms CPU = 0.000 seconds
set type 27 diameter 0.002
Setting atom values ...
  20 settings made for diameter
set type 27 density 0.5
Setting atom values ...
  20 settings made for density
pair_coeff 27 27 granular hertz/material 0 0 0.5 tangential linear_nohistory 0 0

include structure/element_28.txt
create_atoms 28 single -0.07904761904761905 0.0 0.01
Created 1 atoms
  using lattice units in orthogonal box = (-0.11 -0.006 -0.015) to (0.11 0.006 0.015)
  create_atoms CPU = 0.000 seconds
create_atoms 28 single -0.07809523809523809 0.0 0.01
Created 1 atoms
  using lattice units in orthogonal box = (-0.11 -0.006 -0.015) to (0.11 0.006 0.015)
  create_atoms CPU = 0.000 seconds
create_atoms 28 single -0.07714285714285714 0.0 0.01
Created 1 atoms
  using lattice units in orthogonal box = (-0.11 -0.006 -0.015) to (0.11 0.006 0.015)
  create_atoms CPU = 0.000 seconds
create_atoms 28 single -0.0761904761904762 0.0 0.01
Created 1 atoms
  using lattice units in orthogonal box = (-0.11 -0.006 -0.015) to (0.11 0.006 0.015)
  create_atoms CPU = 0.000 seconds
create_atoms 28 single -0.07523809523809524 0.0 0.01
Created 1 atoms
  using lattice units in orthogonal box = (-0.11 -0.006 -0.015) to (0.11 0.006 0.015)
  create_atoms CPU = 0.000 seconds
create_atoms 28 single -0.07428571428571429 0.0 0.01
Created 1 atoms
  using lattice units in orthogonal box = (-0.11 -0.006 -0.015) to (0.11 0.006 0.015)
  create_atoms CPU = 0.000 seconds
create_atoms 28 single -0.07333333333333333 0.0 0.01
Created 1 atoms
  using lattice units in orthogonal box = (-0.11 -0.006 -0.015) to (0.11 0.006 0.015)
  create_atoms CPU = 0.000 seconds
create_atoms 28 single -0.07238095238095238 0.0 0.01
Created 1 atoms
  using lattice units in orthogonal box = (-0.11 -0.006 -0.015) to (0.11 0.006 0.015)
  create_atoms CPU = 0.000 seconds
create_atoms 28 single -0.07142857142857142 0.0 0.01
Created 1 atoms
  using lattice units in orthogonal box = (-0.11 -0.006 -0.015) to (0.11 0.006 0.015)
  create_atoms CPU = 0.000 seconds
create_atoms 28 single -0.07047619047619047 0.0 0.01
Created 1 atoms
  using lattice units in orthogonal box = (-0.11 -0.006 -0.015) to (0.11 0.006 0.015)
  create_atoms CPU = 0.000 seconds
create_atoms 28 single -0.06952380952380953 0.0 0.01
Created 1 atoms
  using lattice units in orthogonal box = (-0.11 -0.006 -0.015) to (0.11 0.006 0.015)
  create_atoms CPU = 0.000 seconds
create_atoms 28 single -0.06857142857142857 0.0 0.01
Created 1 atoms
  using lattice units in orthogonal box = (-0.11 -0.006 -0.015) to (0.11 0.006 0.015)
  create_atoms CPU = 0.000 seconds
create_atoms 28 single -0.06761904761904762 0.0 0.01
Created 1 atoms
  using lattice units in orthogonal box = (-0.11 -0.006 -0.015) to (0.11 0.006 0.015)
  create_atoms CPU = 0.000 seconds
create_atoms 28 single -0.06666666666666667 0.0 0.01
Created 1 atoms
  using lattice units in orthogonal box = (-0.11 -0.006 -0.015) to (0.11 0.006 0.015)
  create_atoms CPU = 0.000 seconds
create_atoms 28 single -0.06571428571428571 0.0 0.01
Created 1 atoms
  using lattice units in orthogonal box = (-0.11 -0.006 -0.015) to (0.11 0.006 0.015)
  create_atoms CPU = 0.000 seconds
create_atoms 28 single -0.06476190476190476 0.0 0.01
Created 1 atoms
  using lattice units in orthogonal box = (-0.11 -0.006 -0.015) to (0.11 0.006 0.015)
  create_atoms CPU = 0.000 seconds
create_atoms 28 single -0.06380952380952382 0.0 0.01
Created 1 atoms
  using lattice units in orthogonal box = (-0.11 -0.006 -0.015) to (0.11 0.006 0.015)
  create_atoms CPU = 0.000 seconds
create_atoms 28 single -0.06285714285714286 0.0 0.01
Created 1 atoms
  using lattice units in orthogonal box = (-0.11 -0.006 -0.015) to (0.11 0.006 0.015)
  create_atoms CPU = 0.000 seconds
create_atoms 28 single -0.06190476190476191 0.0 0.01
Created 1 atoms
  using lattice units in orthogonal box = (-0.11 -0.006 -0.015) to (0.11 0.006 0.015)
  create_atoms CPU = 0.000 seconds
create_atoms 28 single -0.06095238095238095 0.0 0.01
Created 1 atoms
  using lattice units in orthogonal box = (-0.11 -0.006 -0.015) to (0.11 0.006 0.015)
  create_atoms CPU = 0.000 seconds
set type 28 diameter 0.002
Setting atom values ...
  20 settings made for diameter
set type 28 density 0.5
Setting atom values ...
  20 settings made for density
pair_coeff 28 28 granular hertz/material 0 0 0.5 tangential linear_nohistory 0 0

include structure/element_29.txt
create_atoms 29 single -0.07931034482758621 0.0 -0.009310344827586208
Created 1 atoms
  using lattice units in orthogonal box = (-0.11 -0.006 -0.015) to (0.11 0.006 0.015)
  create_atoms CPU = 0.000 seconds
create_atoms 29 single -0.07862068965517241 0.0 -0.008620689655172414
Created 1 atoms
  using lattice units in orthogonal box = (-0.11 -0.006 -0.015) to (0.11 0.006 0.015)
  create_atoms CPU = 0.000 seconds
create_atoms 29 single -0.07793103448275862 0.0 -0.007931034482758621
Created 1 atoms
  using lattice units in orthogonal box = (-0.11 -0.006 -0.015) to (0.11 0.006 0.015)
  create_atoms CPU = 0.000 seconds
create_atoms 29 single -0.07724137931034483 0.0 -0.007241379310344827
Created 1 atoms
  using lattice units in orthogonal box = (-0.11 -0.006 -0.015) to (0.11 0.006 0.015)
  create_atoms CPU = 0.000 seconds
create_atoms 29 single -0.07655172413793103 0.0 -0.006551724137931035
Created 1 atoms
  using lattice units in orthogonal box = (-0.11 -0.006 -0.015) to (0.11 0.006 0.015)
  create_atoms CPU = 0.000 seconds
create_atoms 29 single -0.07586206896551724 0.0 -0.0058620689655172415
Created 1 atoms
  using lattice units in orthogonal box = (-0.11 -0.006 -0.015) to (0.11 0.006 0.015)
  create_atoms CPU = 0.000 seconds
create_atoms 29 single -0.07517241379310345 0.0 -0.005172413793103449
Created 1 atoms
  using lattice units in orthogonal box = (-0.11 -0.006 -0.015) to (0.11 0.006 0.015)
  create_atoms CPU = 0.000 seconds
create_atoms 29 single -0.07448275862068965 0.0 -0.004482758620689655
Created 1 atoms
  using lattice units in orthogonal box = (-0.11 -0.006 -0.015) to (0.11 0.006 0.015)
  create_atoms CPU = 0.000 seconds
create_atoms 29 single -0.07379310344827586 0.0 -0.0037931034482758617
Created 1 atoms
  using lattice units in orthogonal box = (-0.11 -0.006 -0.015) to (0.11 0.006 0.015)
  create_atoms CPU = 0.000 seconds
create_atoms 29 single -0.07310344827586207 0.0 -0.0031034482758620684
Created 1 atoms
  using lattice units in orthogonal box = (-0.11 -0.006 -0.015) to (0.11 0.006 0.015)
  create_atoms CPU = 0.000 seconds
create_atoms 29 single -0.07241379310344828 0.0 -0.002413793103448276
Created 1 atoms
  using lattice units in orthogonal box = (-0.11 -0.006 -0.015) to (0.11 0.006 0.015)
  create_atoms CPU = 0.000 seconds
create_atoms 29 single -0.07172413793103448 0.0 -0.0017241379310344827
Created 1 atoms
  using lattice units in orthogonal box = (-0.11 -0.006 -0.015) to (0.11 0.006 0.015)
  create_atoms CPU = 0.000 seconds
create_atoms 29 single -0.07103448275862069 0.0 -0.0010344827586206903
Created 1 atoms
  using lattice units in orthogonal box = (-0.11 -0.006 -0.015) to (0.11 0.006 0.015)
  create_atoms CPU = 0.000 seconds
create_atoms 29 single -0.0703448275862069 0.0 -0.00034482758620689793
Created 1 atoms
  using lattice units in orthogonal box = (-0.11 -0.006 -0.015) to (0.11 0.006 0.015)
  create_atoms CPU = 0.000 seconds
create_atoms 29 single -0.0696551724137931 0.0 0.00034482758620689793
Created 1 atoms
  using lattice units in orthogonal box = (-0.11 -0.006 -0.015) to (0.11 0.006 0.015)
  create_atoms CPU = 0.000 seconds
create_atoms 29 single -0.06896551724137931 0.0 0.0010344827586206903
Created 1 atoms
  using lattice units in orthogonal box = (-0.11 -0.006 -0.015) to (0.11 0.006 0.015)
  create_atoms CPU = 0.000 seconds
create_atoms 29 single -0.06827586206896552 0.0 0.001724137931034481
Created 1 atoms
  using lattice units in orthogonal box = (-0.11 -0.006 -0.015) to (0.11 0.006 0.015)
  create_atoms CPU = 0.000 seconds
create_atoms 29 single -0.06758620689655172 0.0 0.002413793103448277
Created 1 atoms
  using lattice units in orthogonal box = (-0.11 -0.006 -0.015) to (0.11 0.006 0.015)
  create_atoms CPU = 0.000 seconds
create_atoms 29 single -0.06689655172413793 0.0 0.0031034482758620693
Created 1 atoms
  using lattice units in orthogonal box = (-0.11 -0.006 -0.015) to (0.11 0.006 0.015)
  create_atoms CPU = 0.000 seconds
create_atoms 29 single -0.06620689655172414 0.0 0.0037931034482758634
Created 1 atoms
  using lattice units in orthogonal box = (-0.11 -0.006 -0.015) to (0.11 0.006 0.015)
  create_atoms CPU = 0.000 seconds
create_atoms 29 single -0.06551724137931034 0.0 0.004482758620689656
Created 1 atoms
  using lattice units in orthogonal box = (-0.11 -0.006 -0.015) to (0.11 0.006 0.015)
  create_atoms CPU = 0.000 seconds
create_atoms 29 single -0.06482758620689655 0.0 0.005172413793103448
Created 1 atoms
  using lattice units in orthogonal box = (-0.11 -0.006 -0.015) to (0.11 0.006 0.015)
  create_atoms CPU = 0.000 seconds
create_atoms 29 single -0.06413793103448276 0.0 0.005862068965517242
Created 1 atoms
  using lattice units in orthogonal box = (-0.11 -0.006 -0.015) to (0.11 0.006 0.015)
  create_atoms CPU = 0.000 seconds
create_atoms 29 single -0.06344827586206897 0.0 0.006551724137931035
Created 1 atoms
  using lattice units in orthogonal box = (-0.11 -0.006 -0.015) to (0.11 0.006 0.015)
  create_atoms CPU = 0.000 seconds
create_atoms 29 single -0.06275862068965517 0.0 0.007241379310344827
Created 1 atoms
  using lattice units in orthogonal box = (-0.11 -0.006 -0.015) to (0.11 0.006 0.015)
  create_atoms CPU = 0.000 seconds
create_atoms 29 single -0.06206896551724138 0.0 0.00793103448275862
Created 1 atoms
  using lattice units in orthogonal box = (-0.11 -0.006 -0.015) to (0.11 0.006 0.015)
  create_atoms CPU = 0.000 seconds
create_atoms 29 single -0.06137931034482759 0.0 0.008620689655172412
Created 1 atoms
  using lattice units in orthogonal box = (-0.11 -0.006 -0.015) to (0.11 0.006 0.015)
  create_atoms CPU = 0.000 seconds
create_atoms 29 single -0.060689655172413794 0.0 0.009310344827586204
Created 1 atoms
  using lattice units in orthogonal box = (-0.11 -0.006 -0.015) to (0.11 0.006 0.015)
  create_atoms CPU = 0.000 seconds
set type 29 diameter 0.002
Setting atom values ...
  28 settings made for diameter
set type 29 density 0.5
Setting atom values ...
  28 settings made for density
pair_coeff 29 29 granular hertz/material 0 0 0.5 tangential linear_nohistory 0 0

include structure/element_30.txt
create_atoms 30 single -0.039999999999999994 0.0 -0.009047619047619047
Created 1 atoms
  using lattice units in orthogonal box = (-0.11 -0.006 -0.015) to (0.11 0.006 0.015)
  create_atoms CPU = 0.000 seconds
create_atoms 30 single -0.039999999999999994 0.0 -0.008095238095238096
Created 1 atoms
  using lattice units in orthogonal box = (-0.11 -0.006 -0.015) to (0.11 0.006 0.015)
  create_atoms CPU = 0.000 seconds
create_atoms 30 single -0.039999999999999994 0.0 -0.0071428571428571435
Created 1 atoms
  using lattice units in orthogonal box = (-0.11 -0.006 -0.015) to (0.11 0.006 0.015)
  create_atoms CPU = 0.000 seconds
create_atoms 30 single -0.039999999999999994 0.0 -0.006190476190476191
Created 1 atoms
  using lattice units in orthogonal box = (-0.11 -0.006 -0.015) to (0.11 0.006 0.015)
  create_atoms CPU = 0.000 seconds
create_atoms 30 single -0.039999999999999994 0.0 -0.005238095238095239
Created 1 atoms
  using lattice units in orthogonal box = (-0.11 -0.006 -0.015) to (0.11 0.006 0.015)
  create_atoms CPU = 0.000 seconds
create_atoms 30 single -0.039999999999999994 0.0 -0.004285714285714286
Created 1 atoms
  using lattice units in orthogonal box = (-0.11 -0.006 -0.015) to (0.11 0.006 0.015)
  create_atoms CPU = 0.000 seconds
create_atoms 30 single -0.039999999999999994 0.0 -0.003333333333333334
Created 1 atoms
  using lattice units in orthogonal box = (-0.11 -0.006 -0.015) to (0.11 0.006 0.015)
  create_atoms CPU = 0.000 seconds
create_atoms 30 single -0.039999999999999994 0.0 -0.002380952380952381
Created 1 atoms
  using lattice units in orthogonal box = (-0.11 -0.006 -0.015) to (0.11 0.006 0.015)
  create_atoms CPU = 0.000 seconds
create_atoms 30 single -0.039999999999999994 0.0 -0.0014285714285714284
Created 1 atoms
  using lattice units in orthogonal box = (-0.11 -0.006 -0.015) to (0.11 0.006 0.015)
  create_atoms CPU = 0.000 seconds
create_atoms 30 single -0.039999999999999994 0.0 -0.0004761904761904773
Created 1 atoms
  using lattice units in orthogonal box = (-0.11 -0.006 -0.015) to (0.11 0.006 0.015)
  create_atoms CPU = 0.000 seconds
create_atoms 30 single -0.039999999999999994 0.0 0.0004761904761904738
Created 1 atoms
  using lattice units in orthogonal box = (-0.11 -0.006 -0.015) to (0.11 0.006 0.015)
  create_atoms CPU = 0.000 seconds
create_atoms 30 single -0.039999999999999994 0.0 0.0014285714285714284
Created 1 atoms
  using lattice units in orthogonal box = (-0.11 -0.006 -0.015) to (0.11 0.006 0.015)
  create_atoms CPU = 0.000 seconds
create_atoms 30 single -0.039999999999999994 0.0 0.002380952380952381
Created 1 atoms
  using lattice units in orthogonal box = (-0.11 -0.006 -0.015) to (0.11 0.006 0.015)
  create_atoms CPU = 0.000 seconds
create_atoms 30 single -0.039999999999999994 0.0 0.0033333333333333322
Created 1 atoms
  using lattice units in orthogonal box = (-0.11 -0.006 -0.015) to (0.11 0.006 0.015)
  create_atoms CPU = 0.000 seconds
create_atoms 30 single -0.039999999999999994 0.0 0.004285714285714283
Created 1 atoms
  using lattice units in orthogonal box = (-0.11 -0.006 -0.015) to (0.11 0.006 0.015)
  create_atoms CPU = 0.000 seconds
create_atoms 30 single -0.039999999999999994 0.0 0.005238095238095238
Created 1 atoms
  using lattice units in orthogonal box = (-0.11 -0.006 -0.015) to (0.11 0.006 0.015)
  create_atoms CPU = 0.000 seconds
create_atoms 30 single -0.039999999999999994 0.0 0.006190476190476192
Created 1 atoms
  using lattice units in orthogonal box = (-0.11 -0.006 -0.015) to (0.11 0.006 0.015)
  create_atoms CPU = 0.000 seconds
create_atoms 30 single -0.039999999999999994 0.0 0.0071428571428571435
Created 1 atoms
  using lattice units in orthogonal box = (-0.11 -0.006 -0.015) to (0.11 0.006 0.015)
  create_atoms CPU = 0.000 seconds
create_atoms 30 single -0.039999999999999994 0.0 0.008095238095238095
Created 1 atoms
  using lattice units in orthogonal box = (-0.11 -0.006 -0.015) to (0.11 0.006 0.015)
  create_atoms CPU = 0.000 seconds
create_atoms 30 single -0.039999999999999994 0.0 0.009047619047619046
Created 1 atoms
  using lattice units in orthogonal box = (-0.11 -0.006 -0.015) to (0.11 0.006 0.015)
  create_atoms CPU = 0.000 seconds
set type 30 diameter 0.002
Setting atom values ...
  20 settings made for diameter
set type 30 density 0.5
Setting atom values ...
  20 settings made for density
pair_coeff 30 30 granular hertz/material 0 0 0.5 tangential linear_nohistory 0 0

include structure/element_31.txt
create_atoms 31 single -0.05904761904761904 0.0 -0.01
Created 1 atoms
  using lattice units in orthogonal box = (-0.11 -0.006 -0.015) to (0.11 0.006 0.015)
  create_atoms CPU = 0.000 seconds
create_atoms 31 single -0.058095238095238096 0.0 -0.01
Created 1 atoms
  using lattice units in orthogonal box = (-0.11 -0.006 -0.015) to (0.11 0.006 0.015)
  create_atoms CPU = 0.000 seconds
create_atoms 31 single -0.05714285714285714 0.0 -0.01
Created 1 atoms
  using lattice units in orthogonal box = (-0.11 -0.006 -0.015) to (0.11 0.006 0.015)
  create_atoms CPU = 0.000 seconds
create_atoms 31 single -0.056190476190476187 0.0 -0.01
Created 1 atoms
  using lattice units in orthogonal box = (-0.11 -0.006 -0.015) to (0.11 0.006 0.015)
  create_atoms CPU = 0.000 seconds
create_atoms 31 single -0.05523809523809524 0.0 -0.01
Created 1 atoms
  using lattice units in orthogonal box = (-0.11 -0.006 -0.015) to (0.11 0.006 0.015)
  create_atoms CPU = 0.000 seconds
create_atoms 31 single -0.054285714285714284 0.0 -0.01
Created 1 atoms
  using lattice units in orthogonal box = (-0.11 -0.006 -0.015) to (0.11 0.006 0.015)
  create_atoms CPU = 0.000 seconds
create_atoms 31 single -0.05333333333333333 0.0 -0.01
Created 1 atoms
  using lattice units in orthogonal box = (-0.11 -0.006 -0.015) to (0.11 0.006 0.015)
  create_atoms CPU = 0.000 seconds
create_atoms 31 single -0.052380952380952375 0.0 -0.01
Created 1 atoms
  using lattice units in orthogonal box = (-0.11 -0.006 -0.015) to (0.11 0.006 0.015)
  create_atoms CPU = 0.000 seconds
create_atoms 31 single -0.05142857142857143 0.0 -0.01
Created 1 atoms
  using lattice units in orthogonal box = (-0.11 -0.006 -0.015) to (0.11 0.006 0.015)
  create_atoms CPU = 0.000 seconds
create_atoms 31 single -0.05047619047619047 0.0 -0.01
Created 1 atoms
  using lattice units in orthogonal box = (-0.11 -0.006 -0.015) to (0.11 0.006 0.015)
  create_atoms CPU = 0.000 seconds
create_atoms 31 single -0.049523809523809526 0.0 -0.01
Created 1 atoms
  using lattice units in orthogonal box = (-0.11 -0.006 -0.015) to (0.11 0.006 0.015)
  create_atoms CPU = 0.000 seconds
create_atoms 31 single -0.04857142857142857 0.0 -0.01
Created 1 atoms
  using lattice units in orthogonal box = (-0.11 -0.006 -0.015) to (0.11 0.006 0.015)
  create_atoms CPU = 0.000 seconds
create_atoms 31 single -0.047619047619047616 0.0 -0.01
Created 1 atoms
  using lattice units in orthogonal box = (-0.11 -0.006 -0.015) to (0.11 0.006 0.015)
  create_atoms CPU = 0.000 seconds
create_atoms 31 single -0.04666666666666666 0.0 -0.01
Created 1 atoms
  using lattice units in orthogonal box = (-0.11 -0.006 -0.015) to (0.11 0.006 0.015)
  create_atoms CPU = 0.000 seconds
create_atoms 31 single -0.04571428571428571 0.0 -0.01
Created 1 atoms
  using lattice units in orthogonal box = (-0.11 -0.006 -0.015) to (0.11 0.006 0.015)
  create_atoms CPU = 0.000 seconds
create_atoms 31 single -0.04476190476190476 0.0 -0.01
Created 1 atoms
  using lattice units in orthogonal box = (-0.11 -0.006 -0.015) to (0.11 0.006 0.015)
  create_atoms CPU = 0.000 seconds
create_atoms 31 single -0.043809523809523805 0.0 -0.01
Created 1 atoms
  using lattice units in orthogonal box = (-0.11 -0.006 -0.015) to (0.11 0.006 0.015)
  create_atoms CPU = 0.000 seconds
create_atoms 31 single -0.04285714285714286 0.0 -0.01
Created 1 atoms
  using lattice units in orthogonal box = (-0.11 -0.006 -0.015) to (0.11 0.006 0.015)
  create_atoms CPU = 0.000 seconds
create_atoms 31 single -0.0419047619047619 0.0 -0.01
Created 1 atoms
  using lattice units in orthogonal box = (-0.11 -0.006 -0.015) to (0.11 0.006 0.015)
  create_atoms CPU = 0.000 seconds
create_atoms 31 single -0.04095238095238095 0.0 -0.01
Created 1 atoms
  using lattice units in orthogonal box = (-0.11 -0.006 -0.015) to (0.11 0.006 0.015)
  create_atoms CPU = 0.000 seconds
set type 31 diameter 0.002
Setting atom values ...
  20 settings made for diameter
set type 31 density 0.5
Setting atom values ...
  20 settings made for density
pair_coeff 31 31 granular hertz/material 0 0 0.5 tangential linear_nohistory 0 0

include structure/element_32.txt
create_atoms 32 single -0.05904761904761904 0.0 0.01
Created 1 atoms
  using lattice units in orthogonal box = (-0.11 -0.006 -0.015) to (0.11 0.006 0.015)
  create_atoms CPU = 0.000 seconds
create_atoms 32 single -0.058095238095238096 0.0 0.01
Created 1 atoms
  using lattice units in orthogonal box = (-0.11 -0.006 -0.015) to (0.11 0.006 0.015)
  create_atoms CPU = 0.000 seconds
create_atoms 32 single -0.05714285714285714 0.0 0.01
Created 1 atoms
  using lattice units in orthogonal box = (-0.11 -0.006 -0.015) to (0.11 0.006 0.015)
  create_atoms CPU = 0.000 seconds
create_atoms 32 single -0.056190476190476187 0.0 0.01
Created 1 atoms
  using lattice units in orthogonal box = (-0.11 -0.006 -0.015) to (0.11 0.006 0.015)
  create_atoms CPU = 0.000 seconds
create_atoms 32 single -0.05523809523809524 0.0 0.01
Created 1 atoms
  using lattice units in orthogonal box = (-0.11 -0.006 -0.015) to (0.11 0.006 0.015)
  create_atoms CPU = 0.000 seconds
create_atoms 32 single -0.054285714285714284 0.0 0.01
Created 1 atoms
  using lattice units in orthogonal box = (-0.11 -0.006 -0.015) to (0.11 0.006 0.015)
  create_atoms CPU = 0.000 seconds
create_atoms 32 single -0.05333333333333333 0.0 0.01
Created 1 atoms
  using lattice units in orthogonal box = (-0.11 -0.006 -0.015) to (0.11 0.006 0.015)
  create_atoms CPU = 0.000 seconds
create_atoms 32 single -0.052380952380952375 0.0 0.01
Created 1 atoms
  using lattice units in orthogonal box = (-0.11 -0.006 -0.015) to (0.11 0.006 0.015)
  create_atoms CPU = 0.000 seconds
create_atoms 32 single -0.05142857142857143 0.0 0.01
Created 1 atoms
  using lattice units in orthogonal box = (-0.11 -0.006 -0.015) to (0.11 0.006 0.015)
  create_atoms CPU = 0.000 seconds
create_atoms 32 single -0.05047619047619047 0.0 0.01
Created 1 atoms
  using lattice units in orthogonal box = (-0.11 -0.006 -0.015) to (0.11 0.006 0.015)
  create_atoms CPU = 0.000 seconds
create_atoms 32 single -0.049523809523809526 0.0 0.01
Created 1 atoms
  using lattice units in orthogonal box = (-0.11 -0.006 -0.015) to (0.11 0.006 0.015)
  create_atoms CPU = 0.000 seconds
create_atoms 32 single -0.04857142857142857 0.0 0.01
Created 1 atoms
  using lattice units in orthogonal box = (-0.11 -0.006 -0.015) to (0.11 0.006 0.015)
  create_atoms CPU = 0.000 seconds
create_atoms 32 single -0.047619047619047616 0.0 0.01
Created 1 atoms
  using lattice units in orthogonal box = (-0.11 -0.006 -0.015) to (0.11 0.006 0.015)
  create_atoms CPU = 0.000 seconds
create_atoms 32 single -0.04666666666666666 0.0 0.01
Created 1 atoms
  using lattice units in orthogonal box = (-0.11 -0.006 -0.015) to (0.11 0.006 0.015)
  create_atoms CPU = 0.000 seconds
create_atoms 32 single -0.04571428571428571 0.0 0.01
Created 1 atoms
  using lattice units in orthogonal box = (-0.11 -0.006 -0.015) to (0.11 0.006 0.015)
  create_atoms CPU = 0.000 seconds
create_atoms 32 single -0.04476190476190476 0.0 0.01
Created 1 atoms
  using lattice units in orthogonal box = (-0.11 -0.006 -0.015) to (0.11 0.006 0.015)
  create_atoms CPU = 0.000 seconds
create_atoms 32 single -0.043809523809523805 0.0 0.01
Created 1 atoms
  using lattice units in orthogonal box = (-0.11 -0.006 -0.015) to (0.11 0.006 0.015)
  create_atoms CPU = 0.000 seconds
create_atoms 32 single -0.04285714285714286 0.0 0.01
Created 1 atoms
  using lattice units in orthogonal box = (-0.11 -0.006 -0.015) to (0.11 0.006 0.015)
  create_atoms CPU = 0.000 seconds
create_atoms 32 single -0.0419047619047619 0.0 0.01
Created 1 atoms
  using lattice units in orthogonal box = (-0.11 -0.006 -0.015) to (0.11 0.006 0.015)
  create_atoms CPU = 0.000 seconds
create_atoms 32 single -0.04095238095238095 0.0 0.01
Created 1 atoms
  using lattice units in orthogonal box = (-0.11 -0.006 -0.015) to (0.11 0.006 0.015)
  create_atoms CPU = 0.000 seconds
set type 32 diameter 0.002
Setting atom values ...
  20 settings made for diameter
set type 32 density 0.5
Setting atom values ...
  20 settings made for density
pair_coeff 32 32 granular hertz/material 0 0 0.5 tangential linear_nohistory 0 0

include structure/element_33.txt
create_atoms 33 single -0.0593103448275862 0.0 -0.009310344827586208
Created 1 atoms
  using lattice units in orthogonal box = (-0.11 -0.006 -0.015) to (0.11 0.006 0.015)
  create_atoms CPU = 0.000 seconds
create_atoms 33 single -0.05862068965517241 0.0 -0.008620689655172414
Created 1 atoms
  using lattice units in orthogonal box = (-0.11 -0.006 -0.015) to (0.11 0.006 0.015)
  create_atoms CPU = 0.000 seconds
create_atoms 33 single -0.05793103448275862 0.0 -0.007931034482758621
Created 1 atoms
  using lattice units in orthogonal box = (-0.11 -0.006 -0.015) to (0.11 0.006 0.015)
  create_atoms CPU = 0.000 seconds
create_atoms 33 single -0.05724137931034483 0.0 -0.007241379310344827
Created 1 atoms
  using lattice units in orthogonal box = (-0.11 -0.006 -0.015) to (0.11 0.006 0.015)
  create_atoms CPU = 0.000 seconds
create_atoms 33 single -0.05655172413793103 0.0 -0.006551724137931035
Created 1 atoms
  using lattice units in orthogonal box = (-0.11 -0.006 -0.015) to (0.11 0.006 0.015)
  create_atoms CPU = 0.000 seconds
create_atoms 33 single -0.055862068965517236 0.0 -0.0058620689655172415
Created 1 atoms
  using lattice units in orthogonal box = (-0.11 -0.006 -0.015) to (0.11 0.006 0.015)
  create_atoms CPU = 0.000 seconds
create_atoms 33 single -0.05517241379310345 0.0 -0.005172413793103449
Created 1 atoms
  using lattice units in orthogonal box = (-0.11 -0.006 -0.015) to (0.11 0.006 0.015)
  create_atoms CPU = 0.000 seconds
create_atoms 33 single -0.05448275862068965 0.0 -0.004482758620689655
Created 1 atoms
  using lattice units in orthogonal box = (-0.11 -0.006 -0.015) to (0.11 0.006 0.015)
  create_atoms CPU = 0.000 seconds
create_atoms 33 single -0.053793103448275856 0.0 -0.0037931034482758617
Created 1 atoms
  using lattice units in orthogonal box = (-0.11 -0.006 -0.015) to (0.11 0.006 0.015)
  create_atoms CPU = 0.000 seconds
create_atoms 33 single -0.05310344827586207 0.0 -0.0031034482758620684
Created 1 atoms
  using lattice units in orthogonal box = (-0.11 -0.006 -0.015) to (0.11 0.006 0.015)
  create_atoms CPU = 0.000 seconds
create_atoms 33 single -0.05241379310344827 0.0 -0.002413793103448276
Created 1 atoms
  using lattice units in orthogonal box = (-0.11 -0.006 -0.015) to (0.11 0.006 0.015)
  create_atoms CPU = 0.000 seconds
create_atoms 33 single -0.051724137931034475 0.0 -0.0017241379310344827
Created 1 atoms
  using lattice units in orthogonal box = (-0.11 -0.006 -0.015) to (0.11 0.006 0.015)
  create_atoms CPU = 0.000 seconds
create_atoms 33 single -0.051034482758620686 0.0 -0.0010344827586206903
Created 1 atoms
  using lattice units in orthogonal box = (-0.11 -0.006 -0.015) to (0.11 0.006 0.015)
  create_atoms CPU = 0.000 seconds
create_atoms 33 single -0.0503448275862069 0.0 -0.00034482758620689793
Created 1 atoms
  using lattice units in orthogonal box = (-0.11 -0.006 -0.015) to (0.11 0.006 0.015)
  create_atoms CPU = 0.000 seconds
create_atoms 33 single -0.049655172413793094 0.0 0.00034482758620689793
Created 1 atoms
  using lattice units in orthogonal box = (-0.11 -0.006 -0.015) to (0.11 0.006 0.015)
  create_atoms CPU = 0.000 seconds
create_atoms 33 single -0.048965517241379306 0.0 0.0010344827586206903
Created 1 atoms
  using lattice units in orthogonal box = (-0.11 -0.006 -0.015) to (0.11 0.006 0.015)
  create_atoms CPU = 0.000 seconds
create_atoms 33 single -0.04827586206896552 0.0 0.001724137931034481
Created 1 atoms
  using lattice units in orthogonal box = (-0.11 -0.006 -0.015) to (0.11 0.006 0.015)
  create_atoms CPU = 0.000 seconds
create_atoms 33 single -0.04758620689655172 0.0 0.002413793103448277
Created 1 atoms
  using lattice units in orthogonal box = (-0.11 -0.006 -0.015) to (0.11 0.006 0.015)
  create_atoms CPU = 0.000 seconds
create_atoms 33 single -0.046896551724137925 0.0 0.0031034482758620693
Created 1 atoms
  using lattice units in orthogonal box = (-0.11 -0.006 -0.015) to (0.11 0.006 0.015)
  create_atoms CPU = 0.000 seconds
create_atoms 33 single -0.046206896551724136 0.0 0.0037931034482758634
Created 1 atoms
  using lattice units in orthogonal box = (-0.11 -0.006 -0.015) to (0.11 0.006 0.015)
  create_atoms CPU = 0.000 seconds
create_atoms 33 single -0.04551724137931034 0.0 0.004482758620689656
Created 1 atoms
  using lattice units in orthogonal box = (-0.11 -0.006 -0.015) to (0.11 0.006 0.015)
  create_atoms CPU = 0.000 seconds
create_atoms 33 single -0.044827586206896544 0.0 0.005172413793103448
Created 1 atoms
  using lattice units in orthogonal box = (-0.11 -0.006 -0.015) to (0.11 0.006 0.015)
  create_atoms CPU = 0.000 seconds
create_atoms 33 single -0.044137931034482755 0.0 0.005862068965517242
Created 1 atoms
  using lattice units in orthogonal box = (-0.11 -0.006 -0.015) to (0.11 0.006 0.015)
  create_atoms CPU = 0.000 seconds
create_atoms 33 single -0.04344827586206896 0.0 0.006551724137931035
Created 1 atoms
  using lattice units in orthogonal box = (-0.11 -0.006 -0.015) to (0.11 0.006 0.015)
  create_atoms CPU = 0.000 seconds
create_atoms 33 single -0.042758620689655163 0.0 0.007241379310344827
Created 1 atoms
  using lattice units in orthogonal box = (-0.11 -0.006 -0.015) to (0.11 0.006 0.015)
  create_atoms CPU = 0.000 seconds
create_atoms 33 single -0.042068965517241375 0.0 0.00793103448275862
Created 1 atoms
  using lattice units in orthogonal box = (-0.11 -0.006 -0.015) to (0.11 0.006 0.015)
  create_atoms CPU = 0.000 seconds
create_atoms 33 single -0.041379310344827586 0.0 0.008620689655172412
Created 1 atoms
  using lattice units in orthogonal box = (-0.11 -0.006 -0.015) to (0.11 0.006 0.015)
  create_atoms CPU = 0.000 seconds
create_atoms 33 single -0.04068965517241379 0.0 0.009310344827586204
Created 1 atoms
  using lattice units in orthogonal box = (-0.11 -0.006 -0.015) to (0.11 0.006 0.015)
  create_atoms CPU = 0.000 seconds
set type 33 diameter 0.002
Setting atom values ...
  28 settings made for diameter
set type 33 density 0.5
Setting atom values ...
  28 settings made for density
pair_coeff 33 33 granular hertz/material 0 0 0.5 tangential linear_nohistory 0 0

include structure/element_34.txt
create_atoms 34 single -0.019999999999999997 0.0 -0.009047619047619047
Created 1 atoms
  using lattice units in orthogonal box = (-0.11 -0.006 -0.015) to (0.11 0.006 0.015)
  create_atoms CPU = 0.000 seconds
create_atoms 34 single -0.019999999999999997 0.0 -0.008095238095238096
Created 1 atoms
  using lattice units in orthogonal box = (-0.11 -0.006 -0.015) to (0.11 0.006 0.015)
  create_atoms CPU = 0.000 seconds
create_atoms 34 single -0.019999999999999997 0.0 -0.0071428571428571435
Created 1 atoms
  using lattice units in orthogonal box = (-0.11 -0.006 -0.015) to (0.11 0.006 0.015)
  create_atoms CPU = 0.000 seconds
create_atoms 34 single -0.019999999999999997 0.0 -0.006190476190476191
Created 1 atoms
  using lattice units in orthogonal box = (-0.11 -0.006 -0.015) to (0.11 0.006 0.015)
  create_atoms CPU = 0.000 seconds
create_atoms 34 single -0.019999999999999997 0.0 -0.005238095238095239
Created 1 atoms
  using lattice units in orthogonal box = (-0.11 -0.006 -0.015) to (0.11 0.006 0.015)
  create_atoms CPU = 0.000 seconds
create_atoms 34 single -0.019999999999999997 0.0 -0.004285714285714286
Created 1 atoms
  using lattice units in orthogonal box = (-0.11 -0.006 -0.015) to (0.11 0.006 0.015)
  create_atoms CPU = 0.000 seconds
create_atoms 34 single -0.019999999999999997 0.0 -0.003333333333333334
Created 1 atoms
  using lattice units in orthogonal box = (-0.11 -0.006 -0.015) to (0.11 0.006 0.015)
  create_atoms CPU = 0.000 seconds
create_atoms 34 single -0.019999999999999997 0.0 -0.002380952380952381
Created 1 atoms
  using lattice units in orthogonal box = (-0.11 -0.006 -0.015) to (0.11 0.006 0.015)
  create_atoms CPU = 0.000 seconds
create_atoms 34 single -0.019999999999999997 0.0 -0.0014285714285714284
Created 1 atoms
  using lattice units in orthogonal box = (-0.11 -0.006 -0.015) to (0.11 0.006 0.015)
  create_atoms CPU = 0.000 seconds
create_atoms 34 single -0.019999999999999997 0.0 -0.0004761904761904773
Created 1 atoms
  using lattice units in orthogonal box = (-0.11 -0.006 -0.015) to (0.11 0.006 0.015)
  create_atoms CPU = 0.000 seconds
create_atoms 34 single -0.019999999999999997 0.0 0.0004761904761904738
Created 1 atoms
  using lattice units in orthogonal box = (-0.11 -0.006 -0.015) to (0.11 0.006 0.015)
  create_atoms CPU = 0.000 seconds
create_atoms 34 single -0.019999999999999997 0.0 0.0014285714285714284
Created 1 atoms
  using lattice units in orthogonal box = (-0.11 -0.006 -0.015) to (0.11 0.006 0.015)
  create_atoms CPU = 0.000 seconds
create_atoms 34 single -0.019999999999999997 0.0 0.002380952380952381
Created 1 atoms
  using lattice units in orthogonal box = (-0.11 -0.006 -0.015) to (0.11 0.006 0.015)
  create_atoms CPU = 0.000 seconds
create_atoms 34 single -0.019999999999999997 0.0 0.0033333333333333322
Created 1 atoms
  using lattice units in orthogonal box = (-0.11 -0.006 -0.015) to (0.11 0.006 0.015)
  create_atoms CPU = 0.000 seconds
create_atoms 34 single -0.019999999999999997 0.0 0.004285714285714283
Created 1 atoms
  using lattice units in orthogonal box = (-0.11 -0.006 -0.015) to (0.11 0.006 0.015)
  create_atoms CPU = 0.000 seconds
create_atoms 34 single -0.019999999999999997 0.0 0.005238095238095238
Created 1 atoms
  using lattice units in orthogonal box = (-0.11 -0.006 -0.015) to (0.11 0.006 0.015)
  create_atoms CPU = 0.000 seconds
create_atoms 34 single -0.019999999999999997 0.0 0.006190476190476192
Created 1 atoms
  using lattice units in orthogonal box = (-0.11 -0.006 -0.015) to (0.11 0.006 0.015)
  create_atoms CPU = 0.000 seconds
create_atoms 34 single -0.019999999999999997 0.0 0.0071428571428571435
Created 1 atoms
  using lattice units in orthogonal box = (-0.11 -0.006 -0.015) to (0.11 0.006 0.015)
  create_atoms CPU = 0.000 seconds
create_atoms 34 single -0.019999999999999997 0.0 0.008095238095238095
Created 1 atoms
  using lattice units in orthogonal box = (-0.11 -0.006 -0.015) to (0.11 0.006 0.015)
  create_atoms CPU = 0.000 seconds
create_atoms 34 single -0.019999999999999997 0.0 0.009047619047619046
Created 1 atoms
  using lattice units in orthogonal box = (-0.11 -0.006 -0.015) to (0.11 0.006 0.015)
  create_atoms CPU = 0.000 seconds
set type 34 diameter 0.002
Setting atom values ...
  20 settings made for diameter
set type 34 density 0.5
Setting atom values ...
  20 settings made for density
pair_coeff 34 34 granular hertz/material 0 0 0.5 tangential linear_nohistory 0 0

include structure/element_35.txt
create_atoms 35 single -0.03904761904761904 0.0 -0.01
Created 1 atoms
  using lattice units in orthogonal box = (-0.11 -0.006 -0.015) to (0.11 0.006 0.015)
  create_atoms CPU = 0.000 seconds
create_atoms 35 single -0.03809523809523809 0.0 -0.01
Created 1 atoms
  using lattice units in orthogonal box = (-0.11 -0.006 -0.015) to (0.11 0.006 0.015)
  create_atoms CPU = 0.000 seconds
create_atoms 35 single -0.03714285714285714 0.0 -0.01
Created 1 atoms
  using lattice units in orthogonal box = (-0.11 -0.006 -0.015) to (0.11 0.006 0.015)
  create_atoms CPU = 0.000 seconds
create_atoms 35 single -0.03619047619047618 0.0 -0.01
Created 1 atoms
  using lattice units in orthogonal box = (-0.11 -0.006 -0.015) to (0.11 0.006 0.015)
  create_atoms CPU = 0.000 seconds
create_atoms 35 single -0.035238095238095235 0.0 -0.01
Created 1 atoms
  using lattice units in orthogonal box = (-0.11 -0.006 -0.015) to (0.11 0.006 0.015)
  create_atoms CPU = 0.000 seconds
create_atoms 35 single -0.03428571428571428 0.0 -0.01
Created 1 atoms
  using lattice units in orthogonal box = (-0.11 -0.006 -0.015) to (0.11 0.006 0.015)
  create_atoms CPU = 0.000 seconds
create_atoms 35 single -0.033333333333333326 0.0 -0.01
Created 1 atoms
  using lattice units in orthogonal box = (-0.11 -0.006 -0.015) to (0.11 0.006 0.015)
  create_atoms CPU = 0.000 seconds
create_atoms 35 single -0.03238095238095237 0.0 -0.01
Created 1 atoms
  using lattice units in orthogonal box = (-0.11 -0.006 -0.015) to (0.11 0.006 0.015)
  create_atoms CPU = 0.000 seconds
create_atoms 35 single -0.031428571428571424 0.0 -0.01
Created 1 atoms
  using lattice units in orthogonal box = (-0.11 -0.006 -0.015) to (0.11 0.006 0.015)
  create_atoms CPU = 0.000 seconds
create_atoms 35 single -0.03047619047619047 0.0 -0.01
Created 1 atoms
  using lattice units in orthogonal box = (-0.11 -0.006 -0.015) to (0.11 0.006 0.015)
  create_atoms CPU = 0.000 seconds
create_atoms 35 single -0.029523809523809518 0.0 -0.01
Created 1 atoms
  using lattice units in orthogonal box = (-0.11 -0.006 -0.015) to (0.11 0.006 0.015)
  create_atoms CPU = 0.000 seconds
create_atoms 35 single -0.028571428571428564 0.0 -0.01
Created 1 atoms
  using lattice units in orthogonal box = (-0.11 -0.006 -0.015) to (0.11 0.006 0.015)
  create_atoms CPU = 0.000 seconds
create_atoms 35 single -0.027619047619047613 0.0 -0.01
Created 1 atoms
  using lattice units in orthogonal box = (-0.11 -0.006 -0.015) to (0.11 0.006 0.015)
  create_atoms CPU = 0.000 seconds
create_atoms 35 single -0.026666666666666658 0.0 -0.01
Created 1 atoms
  using lattice units in orthogonal box = (-0.11 -0.006 -0.015) to (0.11 0.006 0.015)
  create_atoms CPU = 0.000 seconds
create_atoms 35 single -0.025714285714285707 0.0 -0.01
Created 1 atoms
  using lattice units in orthogonal box = (-0.11 -0.006 -0.015) to (0.11 0.006 0.015)
  create_atoms CPU = 0.000 seconds
create_atoms 35 single -0.024761904761904756 0.0 -0.01
Created 1 atoms
  using lattice units in orthogonal box = (-0.11 -0.006 -0.015) to (0.11 0.006 0.015)
  create_atoms CPU = 0.000 seconds
create_atoms 35 single -0.0238095238095238 0.0 -0.01
Created 1 atoms
  using lattice units in orthogonal box = (-0.11 -0.006 -0.015) to (0.11 0.006 0.015)
  create_atoms CPU = 0.000 seconds
create_atoms 35 single -0.02285714285714285 0.0 -0.01
Created 1 atoms
  using lattice units in orthogonal box = (-0.11 -0.006 -0.015) to (0.11 0.006 0.015)
  create_atoms CPU = 0.000 seconds
create_atoms 35 single -0.021904761904761896 0.0 -0.01
Created 1 atoms
  using lattice units in orthogonal box = (-0.11 -0.006 -0.015) to (0.11 0.006 0.015)
  create_atoms CPU = 0.000 seconds
create_atoms 35 single -0.020952380952380945 0.0 -0.01
Created 1 atoms
  using lattice units in orthogonal box = (-0.11 -0.006 -0.015) to (0.11 0.006 0.015)
  create_atoms CPU = 0.000 seconds
set type 35 diameter 0.002
Setting atom values ...
  20 settings made for diameter
set type 35 density 0.5
Setting atom values ...
  20 settings made for density
pair_coeff 35 35 granular hertz/material 0 0 0.5 tangential linear_nohistory 0 0

include structure/element_36.txt
create_atoms 36 single -0.03904761904761904 0.0 0.01
Created 1 atoms
  using lattice units in orthogonal box = (-0.11 -0.006 -0.015) to (0.11 0.006 0.015)
  create_atoms CPU = 0.000 seconds
create_atoms 36 single -0.03809523809523809 0.0 0.01
Created 1 atoms
  using lattice units in orthogonal box = (-0.11 -0.006 -0.015) to (0.11 0.006 0.015)
  create_atoms CPU = 0.000 seconds
create_atoms 36 single -0.03714285714285714 0.0 0.01
Created 1 atoms
  using lattice units in orthogonal box = (-0.11 -0.006 -0.015) to (0.11 0.006 0.015)
  create_atoms CPU = 0.000 seconds
create_atoms 36 single -0.03619047619047618 0.0 0.01
Created 1 atoms
  using lattice units in orthogonal box = (-0.11 -0.006 -0.015) to (0.11 0.006 0.015)
  create_atoms CPU = 0.000 seconds
create_atoms 36 single -0.035238095238095235 0.0 0.01
Created 1 atoms
  using lattice units in orthogonal box = (-0.11 -0.006 -0.015) to (0.11 0.006 0.015)
  create_atoms CPU = 0.000 seconds
create_atoms 36 single -0.03428571428571428 0.0 0.01
Created 1 atoms
  using lattice units in orthogonal box = (-0.11 -0.006 -0.015) to (0.11 0.006 0.015)
  create_atoms CPU = 0.000 seconds
create_atoms 36 single -0.033333333333333326 0.0 0.01
Created 1 atoms
  using lattice units in orthogonal box = (-0.11 -0.006 -0.015) to (0.11 0.006 0.015)
  create_atoms CPU = 0.000 seconds
create_atoms 36 single -0.03238095238095237 0.0 0.01
Created 1 atoms
  using lattice units in orthogonal box = (-0.11 -0.006 -0.015) to (0.11 0.006 0.015)
  create_atoms CPU = 0.000 seconds
create_atoms 36 single -0.031428571428571424 0.0 0.01
Created 1 atoms
  using lattice units in orthogonal box = (-0.11 -0.006 -0.015) to (0.11 0.006 0.015)
  create_atoms CPU = 0.000 seconds
create_atoms 36 single -0.03047619047619047 0.0 0.01
Created 1 atoms
  using lattice units in orthogonal box = (-0.11 -0.006 -0.015) to (0.11 0.006 0.015)
  create_atoms CPU = 0.000 seconds
create_atoms 36 single -0.029523809523809518 0.0 0.01
Created 1 atoms
  using lattice units in orthogonal box = (-0.11 -0.006 -0.015) to (0.11 0.006 0.015)
  create_atoms CPU = 0.000 seconds
create_atoms 36 single -0.028571428571428564 0.0 0.01
Created 1 atoms
  using lattice units in orthogonal box = (-0.11 -0.006 -0.015) to (0.11 0.006 0.015)
  create_atoms CPU = 0.000 seconds
create_atoms 36 single -0.027619047619047613 0.0 0.01
Created 1 atoms
  using lattice units in orthogonal box = (-0.11 -0.006 -0.015) to (0.11 0.006 0.015)
  create_atoms CPU = 0.000 seconds
create_atoms 36 single -0.026666666666666658 0.0 0.01
Created 1 atoms
  using lattice units in orthogonal box = (-0.11 -0.006 -0.015) to (0.11 0.006 0.015)
  create_atoms CPU = 0.000 seconds
create_atoms 36 single -0.025714285714285707 0.0 0.01
Created 1 atoms
  using lattice units in orthogonal box = (-0.11 -0.006 -0.015) to (0.11 0.006 0.015)
[...]
  special bonds CPU = 0.000 seconds
create_bonds single/dihedral 5 465 466 467 468
Finding 1-2 1-3 1-4 neighbors ...
  special bond factors lj:    0        1        1       
  special bond factors coul:  0        1        1       
     4 = max # of 1-2 neighbors
     4 = max # of special neighbors
  special bonds CPU = 0.000 seconds
create_bonds single/dihedral 5 466 467 468 469
Finding 1-2 1-3 1-4 neighbors ...
  special bond factors lj:    0        1        1       
  special bond factors coul:  0        1        1       
     4 = max # of 1-2 neighbors
     4 = max # of special neighbors
  special bonds CPU = 0.000 seconds
create_bonds single/dihedral 5 469 470 471 472
Finding 1-2 1-3 1-4 neighbors ...
  special bond factors lj:    0        1        1       
  special bond factors coul:  0        1        1       
     4 = max # of 1-2 neighbors
     4 = max # of special neighbors
  special bonds CPU = 0.000 seconds
create_bonds single/dihedral 5 470 471 472 473
Finding 1-2 1-3 1-4 neighbors ...
  special bond factors lj:    0        1        1       
  special bond factors coul:  0        1        1       
     4 = max # of 1-2 neighbors
     4 = max # of special neighbors
  special bonds CPU = 0.000 seconds
create_bonds single/dihedral 5 471 472 473 474
Finding 1-2 1-3 1-4 neighbors ...
  special bond factors lj:    0        1        1       
  special bond factors coul:  0        1        1       
     4 = max # of 1-2 neighbors
     4 = max # of special neighbors
  special bonds CPU = 0.000 seconds
create_bonds single/dihedral 5 472 473 474 475
Finding 1-2 1-3 1-4 neighbors ...
  special bond factors lj:    0        1        1       
  special bond factors coul:  0        1        1       
     4 = max # of 1-2 neighbors
     4 = max # of special neighbors
  special bonds CPU = 0.000 seconds
create_bonds single/dihedral 5 474 475 476 477
Finding 1-2 1-3 1-4 neighbors ...
  special bond factors lj:    0        1        1       
  special bond factors coul:  0        1        1       
     4 = max # of 1-2 neighbors
     4 = max # of special neighbors
  special bonds CPU = 0.000 seconds
create_bonds single/dihedral 5 475 476 477 478
Finding 1-2 1-3 1-4 neighbors ...
  special bond factors lj:    0        1        1       
  special bond factors coul:  0        1        1       
     4 = max # of 1-2 neighbors
     4 = max # of special neighbors
  special bonds CPU = 0.000 seconds
create_bonds single/dihedral 5 476 477 478 479
Finding 1-2 1-3 1-4 neighbors ...
  special bond factors lj:    0        1        1       
  special bond factors coul:  0        1        1       
     4 = max # of 1-2 neighbors
     4 = max # of special neighbors
  special bonds CPU = 0.000 seconds
create_bonds single/dihedral 5 477 478 479 480
Finding 1-2 1-3 1-4 neighbors ...
  special bond factors lj:    0        1        1       
  special bond factors coul:  0        1        1       
     4 = max # of 1-2 neighbors
     4 = max # of special neighbors
  special bonds CPU = 0.000 seconds
create_bonds single/dihedral 5 478 479 480 12
Finding 1-2 1-3 1-4 neighbors ...
  special bond factors lj:    0        1        1       
  special bond factors coul:  0        1        1       
     4 = max # of 1-2 neighbors
     4 = max # of special neighbors
  special bonds CPU = 0.000 seconds
create_bonds single/dihedral 5 544 545 546 547
Finding 1-2 1-3 1-4 neighbors ...
  special bond factors lj:    0        1        1       
  special bond factors coul:  0        1        1       
     4 = max # of 1-2 neighbors
     4 = max # of special neighbors
  special bonds CPU = 0.000 seconds
create_bonds single/dihedral 5 545 546 547 548
Finding 1-2 1-3 1-4 neighbors ...
  special bond factors lj:    0        1        1       
  special bond factors coul:  0        1        1       
     4 = max # of 1-2 neighbors
     4 = max # of special neighbors
  special bonds CPU = 0.000 seconds
create_bonds single/dihedral 5 546 547 548 549
Finding 1-2 1-3 1-4 neighbors ...
  special bond factors lj:    0        1        1       
  special bond factors coul:  0        1        1       
     4 = max # of 1-2 neighbors
     4 = max # of special neighbors
  special bonds CPU = 0.000 seconds
create_bonds single/dihedral 5 547 548 549 550
Finding 1-2 1-3 1-4 neighbors ...
  special bond factors lj:    0        1        1       
  special bond factors coul:  0        1        1       
     4 = max # of 1-2 neighbors
     4 = max # of special neighbors
  special bonds CPU = 0.000 seconds
create_bonds single/dihedral 5 548 549 550 551
Finding 1-2 1-3 1-4 neighbors ...
  special bond factors lj:    0        1        1       
  special bond factors coul:  0        1        1       
     4 = max # of 1-2 neighbors
     4 = max # of special neighbors
  special bonds CPU = 0.000 seconds
create_bonds single/dihedral 5 549 550 551 552
Finding 1-2 1-3 1-4 neighbors ...
  special bond factors lj:    0        1        1       
  special bond factors coul:  0        1        1       
     4 = max # of 1-2 neighbors
     4 = max # of special neighbors
  special bonds CPU = 0.000 seconds
create_bonds single/dihedral 5 551 552 553 554
Finding 1-2 1-3 1-4 neighbors ...
  special bond factors lj:    0        1        1       
  special bond factors coul:  0        1        1       
     4 = max # of 1-2 neighbors
     4 = max # of special neighbors
  special bonds CPU = 0.000 seconds
create_bonds single/dihedral 5 552 553 554 555
Finding 1-2 1-3 1-4 neighbors ...
  special bond factors lj:    0        1        1       
  special bond factors coul:  0        1        1       
     4 = max # of 1-2 neighbors
     4 = max # of special neighbors
  special bonds CPU = 0.000 seconds
create_bonds single/dihedral 5 553 554 555 556
Finding 1-2 1-3 1-4 neighbors ...
  special bond factors lj:    0        1        1       
  special bond factors coul:  0        1        1       
     4 = max # of 1-2 neighbors
     4 = max # of special neighbors
  special bonds CPU = 0.000 seconds
create_bonds single/dihedral 5 554 555 556 557
Finding 1-2 1-3 1-4 neighbors ...
  special bond factors lj:    0        1        1       
  special bond factors coul:  0        1        1       
     4 = max # of 1-2 neighbors
     4 = max # of special neighbors
  special bonds CPU = 0.000 seconds
create_bonds single/dihedral 5 557 558 559 560
Finding 1-2 1-3 1-4 neighbors ...
  special bond factors lj:    0        1        1       
  special bond factors coul:  0        1        1       
     4 = max # of 1-2 neighbors
     4 = max # of special neighbors
  special bonds CPU = 0.000 seconds
create_bonds single/dihedral 5 558 559 560 561
Finding 1-2 1-3 1-4 neighbors ...
  special bond factors lj:    0        1        1       
  special bond factors coul:  0        1        1       
     4 = max # of 1-2 neighbors
     4 = max # of special neighbors
  special bonds CPU = 0.000 seconds
create_bonds single/dihedral 5 559 560 561 562
Finding 1-2 1-3 1-4 neighbors ...
  special bond factors lj:    0        1        1       
  special bond factors coul:  0        1        1       
     4 = max # of 1-2 neighbors
     4 = max # of special neighbors
  special bonds CPU = 0.000 seconds
create_bonds single/dihedral 5 560 561 562 563
Finding 1-2 1-3 1-4 neighbors ...
  special bond factors lj:    0        1        1       
  special bond factors coul:  0        1        1       
     4 = max # of 1-2 neighbors
     4 = max # of special neighbors
  special bonds CPU = 0.000 seconds
create_bonds single/dihedral 5 562 563 564 565
Finding 1-2 1-3 1-4 neighbors ...
  special bond factors lj:    0        1        1       
  special bond factors coul:  0        1        1       
     4 = max # of 1-2 neighbors
     4 = max # of special neighbors
  special bonds CPU = 0.000 seconds
create_bonds single/dihedral 5 563 564 565 566
Finding 1-2 1-3 1-4 neighbors ...
  special bond factors lj:    0        1        1       
  special bond factors coul:  0        1        1       
     4 = max # of 1-2 neighbors
     4 = max # of special neighbors
  special bonds CPU = 0.000 seconds
create_bonds single/dihedral 5 564 565 566 567
Finding 1-2 1-3 1-4 neighbors ...
  special bond factors lj:    0        1        1       
  special bond factors coul:  0        1        1       
     4 = max # of 1-2 neighbors
     4 = max # of special neighbors
  special bonds CPU = 0.000 seconds
create_bonds single/dihedral 5 565 566 567 568
Finding 1-2 1-3 1-4 neighbors ...
  special bond factors lj:    0        1        1       
  special bond factors coul:  0        1        1       
     4 = max # of 1-2 neighbors
     4 = max # of special neighbors
  special bonds CPU = 0.000 seconds
create_bonds single/dihedral 5 566 567 568 14
Finding 1-2 1-3 1-4 neighbors ...
  special bond factors lj:    0        1        1       
  special bond factors coul:  0        1        1       
     4 = max # of 1-2 neighbors
     4 = max # of special neighbors
  special bonds CPU = 0.000 seconds
create_bonds single/dihedral 5 631 632 633 634
Finding 1-2 1-3 1-4 neighbors ...
  special bond factors lj:    0        1        1       
  special bond factors coul:  0        1        1       
     4 = max # of 1-2 neighbors
     4 = max # of special neighbors
  special bonds CPU = 0.000 seconds
create_bonds single/dihedral 5 635 636 637 638
Finding 1-2 1-3 1-4 neighbors ...
  special bond factors lj:    0        1        1       
  special bond factors coul:  0        1        1       
     4 = max # of 1-2 neighbors
     4 = max # of special neighbors
  special bonds CPU = 0.000 seconds
create_bonds single/dihedral 5 636 637 638 639
Finding 1-2 1-3 1-4 neighbors ...
  special bond factors lj:    0        1        1       
  special bond factors coul:  0        1        1       
     4 = max # of 1-2 neighbors
     4 = max # of special neighbors
  special bonds CPU = 0.000 seconds
create_bonds single/dihedral 5 639 640 641 642
Finding 1-2 1-3 1-4 neighbors ...
  special bond factors lj:    0        1        1       
  special bond factors coul:  0        1        1       
     4 = max # of 1-2 neighbors
     4 = max # of special neighbors
  special bonds CPU = 0.000 seconds
create_bonds single/dihedral 5 640 641 642 643
Finding 1-2 1-3 1-4 neighbors ...
  special bond factors lj:    0        1        1       
  special bond factors coul:  0        1        1       
     4 = max # of 1-2 neighbors
     4 = max # of special neighbors
  special bonds CPU = 0.000 seconds
create_bonds single/dihedral 5 641 642 643 644
Finding 1-2 1-3 1-4 neighbors ...
  special bond factors lj:    0        1        1       
  special bond factors coul:  0        1        1       
     4 = max # of 1-2 neighbors
     4 = max # of special neighbors
  special bonds CPU = 0.000 seconds
create_bonds single/dihedral 5 642 643 644 645
Finding 1-2 1-3 1-4 neighbors ...
  special bond factors lj:    0        1        1       
  special bond factors coul:  0        1        1       
     4 = max # of 1-2 neighbors
     4 = max # of special neighbors
  special bonds CPU = 0.000 seconds
create_bonds single/dihedral 5 644 645 646 647
Finding 1-2 1-3 1-4 neighbors ...
  special bond factors lj:    0        1        1       
  special bond factors coul:  0        1        1       
     4 = max # of 1-2 neighbors
     4 = max # of special neighbors
  special bonds CPU = 0.000 seconds
create_bonds single/dihedral 5 647 648 649 650
Finding 1-2 1-3 1-4 neighbors ...
  special bond factors lj:    0        1        1       
  special bond factors coul:  0        1        1       
     4 = max # of 1-2 neighbors
     4 = max # of special neighbors
  special bonds CPU = 0.000 seconds
create_bonds single/dihedral 5 648 649 650 651
Finding 1-2 1-3 1-4 neighbors ...
  special bond factors lj:    0        1        1       
  special bond factors coul:  0        1        1       
     4 = max # of 1-2 neighbors
     4 = max # of special neighbors
  special bonds CPU = 0.000 seconds
create_bonds single/dihedral 5 650 651 652 653
Finding 1-2 1-3 1-4 neighbors ...
  special bond factors lj:    0        1        1       
  special bond factors coul:  0        1        1       
     4 = max # of 1-2 neighbors
     4 = max # of special neighbors
  special bonds CPU = 0.000 seconds
create_bonds single/dihedral 5 651 652 653 654
Finding 1-2 1-3 1-4 neighbors ...
  special bond factors lj:    0        1        1       
  special bond factors coul:  0        1        1       
     4 = max # of 1-2 neighbors
     4 = max # of special neighbors
  special bonds CPU = 0.000 seconds
create_bonds single/dihedral 5 652 653 654 655
Finding 1-2 1-3 1-4 neighbors ...
  special bond factors lj:    0        1        1       
  special bond factors coul:  0        1        1       
     4 = max # of 1-2 neighbors
     4 = max # of special neighbors
  special bonds CPU = 0.000 seconds
create_bonds single/dihedral 5 653 654 655 656
Finding 1-2 1-3 1-4 neighbors ...
  special bond factors lj:    0        1        1       
  special bond factors coul:  0        1        1       
     4 = max # of 1-2 neighbors
     4 = max # of special neighbors
  special bonds CPU = 0.000 seconds
create_bonds single/dihedral 5 720 721 722 723
Finding 1-2 1-3 1-4 neighbors ...
  special bond factors lj:    0        1        1       
  special bond factors coul:  0        1        1       
     4 = max # of 1-2 neighbors
     4 = max # of special neighbors
  special bonds CPU = 0.000 seconds
create_bonds single/dihedral 5 722 723 724 725
Finding 1-2 1-3 1-4 neighbors ...
  special bond factors lj:    0        1        1       
  special bond factors coul:  0        1        1       
     4 = max # of 1-2 neighbors
     4 = max # of special neighbors
  special bonds CPU = 0.000 seconds
create_bonds single/dihedral 5 726 727 728 729
Finding 1-2 1-3 1-4 neighbors ...
  special bond factors lj:    0        1        1       
  special bond factors coul:  0        1        1       
     4 = max # of 1-2 neighbors
     4 = max # of special neighbors
  special bonds CPU = 0.000 seconds
create_bonds single/dihedral 5 727 728 729 730
Finding 1-2 1-3 1-4 neighbors ...
  special bond factors lj:    0        1        1       
  special bond factors coul:  0        1        1       
     4 = max # of 1-2 neighbors
     4 = max # of special neighbors
  special bonds CPU = 0.000 seconds
create_bonds single/dihedral 5 728 729 730 731
Finding 1-2 1-3 1-4 neighbors ...
  special bond factors lj:    0        1        1       
  special bond factors coul:  0        1        1       
     4 = max # of 1-2 neighbors
     4 = max # of special neighbors
  special bonds CPU = 0.000 seconds
create_bonds single/dihedral 5 731 732 733 734
Finding 1-2 1-3 1-4 neighbors ...
  special bond factors lj:    0        1        1       
  special bond factors coul:  0        1        1       
     4 = max # of 1-2 neighbors
     4 = max # of special neighbors
  special bonds CPU = 0.000 seconds
create_bonds single/dihedral 5 732 733 734 735
Finding 1-2 1-3 1-4 neighbors ...
  special bond factors lj:    0        1        1       
  special bond factors coul:  0        1        1       
     4 = max # of 1-2 neighbors
     4 = max # of special neighbors
  special bonds CPU = 0.000 seconds
create_bonds single/dihedral 5 735 736 737 738
Finding 1-2 1-3 1-4 neighbors ...
  special bond factors lj:    0        1        1       
  special bond factors coul:  0        1        1       
     4 = max # of 1-2 neighbors
     4 = max # of special neighbors
  special bonds CPU = 0.000 seconds
create_bonds single/dihedral 5 736 737 738 739
Finding 1-2 1-3 1-4 neighbors ...
  special bond factors lj:    0        1        1       
  special bond factors coul:  0        1        1       
     4 = max # of 1-2 neighbors
     4 = max # of special neighbors
  special bonds CPU = 0.000 seconds
create_bonds single/dihedral 5 738 739 740 741
Finding 1-2 1-3 1-4 neighbors ...
  special bond factors lj:    0        1        1       
  special bond factors coul:  0        1        1       
     4 = max # of 1-2 neighbors
     4 = max # of special neighbors
  special bonds CPU = 0.000 seconds
create_bonds single/dihedral 5 739 740 741 742
Finding 1-2 1-3 1-4 neighbors ...
  special bond factors lj:    0        1        1       
  special bond factors coul:  0        1        1       
     4 = max # of 1-2 neighbors
     4 = max # of special neighbors
  special bonds CPU = 0.000 seconds
create_bonds single/dihedral 5 740 741 742 743
Finding 1-2 1-3 1-4 neighbors ...
  special bond factors lj:    0        1        1       
  special bond factors coul:  0        1        1       
     4 = max # of 1-2 neighbors
     4 = max # of special neighbors
  special bonds CPU = 0.000 seconds
create_bonds single/dihedral 5 741 742 743 744
Finding 1-2 1-3 1-4 neighbors ...
  special bond factors lj:    0        1        1       
  special bond factors coul:  0        1        1       
     4 = max # of 1-2 neighbors
     4 = max # of special neighbors
  special bonds CPU = 0.000 seconds
create_bonds single/dihedral 5 813 814 815 816
Finding 1-2 1-3 1-4 neighbors ...
  special bond factors lj:    0        1        1       
  special bond factors coul:  0        1        1       
     4 = max # of 1-2 neighbors
     4 = max # of special neighbors
  special bonds CPU = 0.000 seconds
create_bonds single/dihedral 5 815 816 817 818
Finding 1-2 1-3 1-4 neighbors ...
  special bond factors lj:    0        1        1       
  special bond factors coul:  0        1        1       
     4 = max # of 1-2 neighbors
     4 = max # of special neighbors
  special bonds CPU = 0.000 seconds
create_bonds single/dihedral 5 816 817 818 819
Finding 1-2 1-3 1-4 neighbors ...
  special bond factors lj:    0        1        1       
  special bond factors coul:  0        1        1       
     4 = max # of 1-2 neighbors
     4 = max # of special neighbors
  special bonds CPU = 0.000 seconds
create_bonds single/dihedral 5 819 820 821 822
Finding 1-2 1-3 1-4 neighbors ...
  special bond factors lj:    0        1        1       
  special bond factors coul:  0        1        1       
     4 = max # of 1-2 neighbors
     4 = max # of special neighbors
  special bonds CPU = 0.000 seconds
create_bonds single/dihedral 5 821 822 823 824
Finding 1-2 1-3 1-4 neighbors ...
  special bond factors lj:    0        1        1       
  special bond factors coul:  0        1        1       
     4 = max # of 1-2 neighbors
     4 = max # of special neighbors
  special bonds CPU = 0.000 seconds
create_bonds single/dihedral 5 823 824 825 826
Finding 1-2 1-3 1-4 neighbors ...
  special bond factors lj:    0        1        1       
  special bond factors coul:  0        1        1       
     4 = max # of 1-2 neighbors
     4 = max # of special neighbors
  special bonds CPU = 0.000 seconds
create_bonds single/dihedral 5 827 828 829 830
Finding 1-2 1-3 1-4 neighbors ...
  special bond factors lj:    0        1        1       
  special bond factors coul:  0        1        1       
     4 = max # of 1-2 neighbors
     4 = max # of special neighbors
  special bonds CPU = 0.000 seconds
create_bonds single/dihedral 5 828 829 830 831
Finding 1-2 1-3 1-4 neighbors ...
  special bond factors lj:    0        1        1       
  special bond factors coul:  0        1        1       
     4 = max # of 1-2 neighbors
     4 = max # of special neighbors
  special bonds CPU = 0.000 seconds
create_bonds single/dihedral 5 829 830 831 832
Finding 1-2 1-3 1-4 neighbors ...
  special bond factors lj:    0        1        1       
  special bond factors coul:  0        1        1       
     4 = max # of 1-2 neighbors
     4 = max # of special neighbors
  special bonds CPU = 0.000 seconds
create_bonds single/dihedral 5 830 831 832 20
Finding 1-2 1-3 1-4 neighbors ...
  special bond factors lj:    0        1        1       
  special bond factors coul:  0        1        1       
     4 