LAMMPS (29 Aug 2024 - Update 1)
  using 1 OpenMP thread(s) per MPI task
atom_style hybrid molecular sphere
WARNING: Atom style hybrid defines both, per-type and per-atom masses; both must be set, but only per-atom masses will be used (src/src/atom_vec_hybrid.cpp:132)
units si
processors	* * 1
comm_modify vel yes
comm_modify cutoff 0.01

region simulationStation block -0.055 0.055 -0.006 0.006 -0.025 0.025
create_box 100 simulationStation bond/types 100000 extra/bond/per/atom 100 angle/types 10000 extra/angle/per/atom 100 dihedral/types 1000 extra/dihedral/per/atom 100
Created orthogonal box = (-0.055 -0.006 -0.025) to (0.055 0.006 0.025)
  1 by 1 by 1 MPI processor grid
change_box	all boundary f f f
Changing box ...

pair_style hybrid/overlay granular lj/cut 0
pair_coeff  * * granular hertz/material 0 0 0 tangential linear_nohistory 0 0
pair_coeff  * * lj/cut 0 0 0

special_bonds lj/coul 0 1.0 1.0
Finding 1-2 1-3 1-4 neighbors ...
  special bond factors lj:    0        1        1       
  special bond factors coul:  0        1        1       
     0 = max # of 1-2 neighbors
     1 = max # of special neighbors
  special bonds CPU = 0.000 seconds
bond_style harmonic
angle_style cosine/shift
dihedral_style spherical

bond_coeff * 0 0
angle_coeff * 0 0
dihedral_coeff * 1 0 1 0 1 1 90 0 1 90 0
fix integration all nve/sphere
neigh_modify page 500000 one 50000


### Here we will begin to include particles ###


fix fix_walls_1 all wall/gran/region granular hertz/material 10000 0.25 0.25 tangential linear_nohistory 0 0 region simulationStation
pair_coeff * * granular hertz/material 10000 0 0.5 tangential linear_nohistory 0 0

include structure/node_1.txt
create_atoms 1 single -0.05 0.0 0.0
Created 1 atoms
  using lattice units in orthogonal box = (-0.055 -0.006 -0.025) to (0.055 0.006 0.025)
  create_atoms CPU = 0.000 seconds
set type 1 diameter 0.002
Setting atom values ...
  1 settings made for diameter
set type 1 density 0.5
Setting atom values ...
  1 settings made for density

include structure/node_2.txt
create_atoms 2 single 0.05 0.0 0.0
Created 1 atoms
  using lattice units in orthogonal box = (-0.055 -0.006 -0.025) to (0.055 0.006 0.025)
  create_atoms CPU = 0.002 seconds
set type 2 diameter 0.002
Setting atom values ...
  1 settings made for diameter
set type 2 density 0.5
Setting atom values ...
  1 settings made for density

include structure/element_3.txt
create_atoms 3 single -0.04933333333333333 0.0 0.0
Created 1 atoms
  using lattice units in orthogonal box = (-0.055 -0.006 -0.025) to (0.055 0.006 0.025)
  create_atoms CPU = 0.000 seconds
create_atoms 3 single -0.04866666666666667 0.0 0.0
Created 1 atoms
  using lattice units in orthogonal box = (-0.055 -0.006 -0.025) to (0.055 0.006 0.025)
  create_atoms CPU = 0.000 seconds
create_atoms 3 single -0.048 0.0 0.0
Created 1 atoms
  using lattice units in orthogonal box = (-0.055 -0.006 -0.025) to (0.055 0.006 0.025)
  create_atoms CPU = 0.000 seconds
create_atoms 3 single -0.04733333333333334 0.0 0.0
Created 1 atoms
  using lattice units in orthogonal box = (-0.055 -0.006 -0.025) to (0.055 0.006 0.025)
  create_atoms CPU = 0.000 seconds
create_atoms 3 single -0.04666666666666667 0.0 0.0
Created 1 atoms
  using lattice units in orthogonal box = (-0.055 -0.006 -0.025) to (0.055 0.006 0.025)
  create_atoms CPU = 0.000 seconds
create_atoms 3 single -0.046 0.0 0.0
Created 1 atoms
  using lattice units in orthogonal box = (-0.055 -0.006 -0.025) to (0.055 0.006 0.025)
  create_atoms CPU = 0.000 seconds
create_atoms 3 single -0.04533333333333334 0.0 0.0
Created 1 atoms
  using lattice units in orthogonal box = (-0.055 -0.006 -0.025) to (0.055 0.006 0.025)
  create_atoms CPU = 0.000 seconds
create_atoms 3 single -0.04466666666666667 0.0 0.0
Created 1 atoms
  using lattice units in orthogonal box = (-0.055 -0.006 -0.025) to (0.055 0.006 0.025)
  create_atoms CPU = 0.000 seconds
create_atoms 3 single -0.044000000000000004 0.0 0.0
Created 1 atoms
  using lattice units in orthogonal box = (-0.055 -0.006 -0.025) to (0.055 0.006 0.025)
  create_atoms CPU = 0.000 seconds
create_atoms 3 single -0.043333333333333335 0.0 0.0
Created 1 atoms
  using lattice units in orthogonal box = (-0.055 -0.006 -0.025) to (0.055 0.006 0.025)
  create_atoms CPU = 0.000 seconds
create_atoms 3 single -0.04266666666666667 0.0 0.0
Created 1 atoms
  using lattice units in orthogonal box = (-0.055 -0.006 -0.025) to (0.055 0.006 0.025)
  create_atoms CPU = 0.000 seconds
create_atoms 3 single -0.042 0.0 0.0
Created 1 atoms
  using lattice units in orthogonal box = (-0.055 -0.006 -0.025) to (0.055 0.006 0.025)
  create_atoms CPU = 0.000 seconds
create_atoms 3 single -0.04133333333333333 0.0 0.0
Created 1 atoms
  using lattice units in orthogonal box = (-0.055 -0.006 -0.025) to (0.055 0.006 0.025)
  create_atoms CPU = 0.000 seconds
create_atoms 3 single -0.04066666666666667 0.0 0.0
Created 1 atoms
  using lattice units in orthogonal box = (-0.055 -0.006 -0.025) to (0.055 0.006 0.025)
  create_atoms CPU = 0.000 seconds
create_atoms 3 single -0.04 0.0 0.0
Created 1 atoms
  using lattice units in orthogonal box = (-0.055 -0.006 -0.025) to (0.055 0.006 0.025)
  create_atoms CPU = 0.000 seconds
create_atoms 3 single -0.03933333333333333 0.0 0.0
Created 1 atoms
  using lattice units in orthogonal box = (-0.055 -0.006 -0.025) to (0.055 0.006 0.025)
  create_atoms CPU = 0.000 seconds
create_atoms 3 single -0.03866666666666667 0.0 0.0
Created 1 atoms
  using lattice units in orthogonal box = (-0.055 -0.006 -0.025) to (0.055 0.006 0.025)
  create_atoms CPU = 0.000 seconds
create_atoms 3 single -0.038 0.0 0.0
Created 1 atoms
  using lattice units in orthogonal box = (-0.055 -0.006 -0.025) to (0.055 0.006 0.025)
  create_atoms CPU = 0.000 seconds
create_atoms 3 single -0.037333333333333336 0.0 0.0
Created 1 atoms
  using lattice units in orthogonal box = (-0.055 -0.006 -0.025) to (0.055 0.006 0.025)
  create_atoms CPU = 0.000 seconds
create_atoms 3 single -0.03666666666666667 0.0 0.0
Created 1 atoms
  using lattice units in orthogonal box = (-0.055 -0.006 -0.025) to (0.055 0.006 0.025)
  create_atoms CPU = 0.000 seconds
create_atoms 3 single -0.036000000000000004 0.0 0.0
Created 1 atoms
  using lattice units in orthogonal box = (-0.055 -0.006 -0.025) to (0.055 0.006 0.025)
  create_atoms CPU = 0.000 seconds
create_atoms 3 single -0.035333333333333335 0.0 0.0
Created 1 atoms
  using lattice units in orthogonal box = (-0.055 -0.006 -0.025) to (0.055 0.006 0.025)
  create_atoms CPU = 0.000 seconds
create_atoms 3 single -0.034666666666666665 0.0 0.0
Created 1 atoms
  using lattice units in orthogonal box = (-0.055 -0.006 -0.025) to (0.055 0.006 0.025)
  create_atoms CPU = 0.000 seconds
create_atoms 3 single -0.034 0.0 0.0
Created 1 atoms
  using lattice units in orthogonal box = (-0.055 -0.006 -0.025) to (0.055 0.006 0.025)
  create_atoms CPU = 0.000 seconds
create_atoms 3 single -0.03333333333333333 0.0 0.0
Created 1 atoms
  using lattice units in orthogonal box = (-0.055 -0.006 -0.025) to (0.055 0.006 0.025)
  create_atoms CPU = 0.000 seconds
create_atoms 3 single -0.03266666666666666 0.0 0.0
Created 1 atoms
  using lattice units in orthogonal box = (-0.055 -0.006 -0.025) to (0.055 0.006 0.025)
  create_atoms CPU = 0.000 seconds
create_atoms 3 single -0.032 0.0 0.0
Created 1 atoms
  using lattice units in orthogonal box = (-0.055 -0.006 -0.025) to (0.055 0.006 0.025)
  create_atoms CPU = 0.000 seconds
create_atoms 3 single -0.03133333333333334 0.0 0.0
Created 1 atoms
  using lattice units in orthogonal box = (-0.055 -0.006 -0.025) to (0.055 0.006 0.025)
  create_atoms CPU = 0.000 seconds
create_atoms 3 single -0.030666666666666665 0.0 0.0
Created 1 atoms
  using lattice units in orthogonal box = (-0.055 -0.006 -0.025) to (0.055 0.006 0.025)
  create_atoms CPU = 0.000 seconds
create_atoms 3 single -0.03 0.0 0.0
Created 1 atoms
  using lattice units in orthogonal box = (-0.055 -0.006 -0.025) to (0.055 0.006 0.025)
  create_atoms CPU = 0.000 seconds
create_atoms 3 single -0.029333333333333333 0.0 0.0
Created 1 atoms
  using lattice units in orthogonal box = (-0.055 -0.006 -0.025) to (0.055 0.006 0.025)
  create_atoms CPU = 0.000 seconds
create_atoms 3 single -0.028666666666666667 0.0 0.0
Created 1 atoms
  using lattice units in orthogonal box = (-0.055 -0.006 -0.025) to (0.055 0.006 0.025)
  create_atoms CPU = 0.000 seconds
create_atoms 3 single -0.028 0.0 0.0
Created 1 atoms
  using lattice units in orthogonal box = (-0.055 -0.006 -0.025) to (0.055 0.006 0.025)
  create_atoms CPU = 0.000 seconds
create_atoms 3 single -0.027333333333333334 0.0 0.0
Created 1 atoms
  using lattice units in orthogonal box = (-0.055 -0.006 -0.025) to (0.055 0.006 0.025)
  create_atoms CPU = 0.000 seconds
create_atoms 3 single -0.02666666666666667 0.0 0.0
Created 1 atoms
  using lattice units in orthogonal box = (-0.055 -0.006 -0.025) to (0.055 0.006 0.025)
  create_atoms CPU = 0.000 seconds
create_atoms 3 single -0.026 0.0 0.0
Created 1 atoms
  using lattice units in orthogonal box = (-0.055 -0.006 -0.025) to (0.055 0.006 0.025)
  create_atoms CPU = 0.000 seconds
create_atoms 3 single -0.025333333333333333 0.0 0.0
Created 1 atoms
  using lattice units in orthogonal box = (-0.055 -0.006 -0.025) to (0.055 0.006 0.025)
  create_atoms CPU = 0.000 seconds
create_atoms 3 single -0.024666666666666667 0.0 0.0
Created 1 atoms
  using lattice units in orthogonal box = (-0.055 -0.006 -0.025) to (0.055 0.006 0.025)
  create_atoms CPU = 0.000 seconds
create_atoms 3 single -0.024 0.0 0.0
Created 1 atoms
  using lattice units in orthogonal box = (-0.055 -0.006 -0.025) to (0.055 0.006 0.025)
  create_atoms CPU = 0.000 seconds
create_atoms 3 single -0.023333333333333334 0.0 0.0
Created 1 atoms
  using lattice units in orthogonal box = (-0.055 -0.006 -0.025) to (0.055 0.006 0.025)
  create_atoms CPU = 0.000 seconds
create_atoms 3 single -0.022666666666666665 0.0 0.0
Created 1 atoms
  using lattice units in orthogonal box = (-0.055 -0.006 -0.025) to (0.055 0.006 0.025)
  create_atoms CPU = 0.000 seconds
create_atoms 3 single -0.022 0.0 0.0
Created 1 atoms
  using lattice units in orthogonal box = (-0.055 -0.006 -0.025) to (0.055 0.006 0.025)
  create_atoms CPU = 0.000 seconds
create_atoms 3 single -0.021333333333333333 0.0 0.0
Created 1 atoms
  using lattice units in orthogonal box = (-0.055 -0.006 -0.025) to (0.055 0.006 0.025)
  create_atoms CPU = 0.000 seconds
create_atoms 3 single -0.020666666666666667 0.0 0.0
Created 1 atoms
  using lattice units in orthogonal box = (-0.055 -0.006 -0.025) to (0.055 0.006 0.025)
  create_atoms CPU = 0.000 seconds
create_atoms 3 single -0.019999999999999997 0.0 0.0
Created 1 atoms
  using lattice units in orthogonal box = (-0.055 -0.006 -0.025) to (0.055 0.006 0.025)
  create_atoms CPU = 0.000 seconds
create_atoms 3 single -0.01933333333333333 0.0 0.0
Created 1 atoms
  using lattice units in orthogonal box = (-0.055 -0.006 -0.025) to (0.055 0.006 0.025)
  create_atoms CPU = 0.000 seconds
create_atoms 3 single -0.018666666666666665 0.0 0.0
Created 1 atoms
  using lattice units in orthogonal box = (-0.055 -0.006 -0.025) to (0.055 0.006 0.025)
  create_atoms CPU = 0.000 seconds
create_atoms 3 single -0.018000000000000002 0.0 0.0
Created 1 atoms
  using lattice units in orthogonal box = (-0.055 -0.006 -0.025) to (0.055 0.006 0.025)
  create_atoms CPU = 0.000 seconds
create_atoms 3 single -0.017333333333333333 0.0 0.0
Created 1 atoms
  using lattice units in orthogonal box = (-0.055 -0.006 -0.025) to (0.055 0.006 0.025)
  create_atoms CPU = 0.000 seconds
create_atoms 3 single -0.016666666666666663 0.0 0.0
Created 1 atoms
  using lattice units in orthogonal box = (-0.055 -0.006 -0.025) to (0.055 0.006 0.025)
  create_atoms CPU = 0.000 seconds
create_atoms 3 single -0.016 0.0 0.0
Created 1 atoms
  using lattice units in orthogonal box = (-0.055 -0.006 -0.025) to (0.055 0.006 0.025)
  create_atoms CPU = 0.000 seconds
create_atoms 3 single -0.01533333333333333 0.0 0.0
Created 1 atoms
  using lattice units in orthogonal box = (-0.055 -0.006 -0.025) to (0.055 0.006 0.025)
  create_atoms CPU = 0.000 seconds
create_atoms 3 single -0.014666666666666668 0.0 0.0
Created 1 atoms
  using lattice units in orthogonal box = (-0.055 -0.006 -0.025) to (0.055 0.006 0.025)
  create_atoms CPU = 0.000 seconds
create_atoms 3 single -0.013999999999999999 0.0 0.0
Created 1 atoms
  using lattice units in orthogonal box = (-0.055 -0.006 -0.025) to (0.055 0.006 0.025)
  create_atoms CPU = 0.000 seconds
create_atoms 3 single -0.013333333333333329 0.0 0.0
Created 1 atoms
  using lattice units in orthogonal box = (-0.055 -0.006 -0.025) to (0.055 0.006 0.025)
  create_atoms CPU = 0.000 seconds
create_atoms 3 single -0.012666666666666666 0.0 0.0
Created 1 atoms
  using lattice units in orthogonal box = (-0.055 -0.006 -0.025) to (0.055 0.006 0.025)
  create_atoms CPU = 0.000 seconds
create_atoms 3 single -0.011999999999999997 0.0 0.0
Created 1 atoms
  using lattice units in orthogonal box = (-0.055 -0.006 -0.025) to (0.055 0.006 0.025)
  create_atoms CPU = 0.000 seconds
create_atoms 3 single -0.011333333333333327 0.0 0.0
Created 1 atoms
  using lattice units in orthogonal box = (-0.055 -0.006 -0.025) to (0.055 0.006 0.025)
  create_atoms CPU = 0.000 seconds
create_atoms 3 single -0.010666666666666665 0.0 0.0
Created 1 atoms
  using lattice units in orthogonal box = (-0.055 -0.006 -0.025) to (0.055 0.006 0.025)
  create_atoms CPU = 0.000 seconds
create_atoms 3 single -0.009999999999999995 0.0 0.0
Created 1 atoms
  using lattice units in orthogonal box = (-0.055 -0.006 -0.025) to (0.055 0.006 0.025)
  create_atoms CPU = 0.000 seconds
create_atoms 3 single -0.009333333333333332 0.0 0.0
Created 1 atoms
  using lattice units in orthogonal box = (-0.055 -0.006 -0.025) to (0.055 0.006 0.025)
  create_atoms CPU = 0.000 seconds
create_atoms 3 single -0.008666666666666663 0.0 0.0
Created 1 atoms
  using lattice units in orthogonal box = (-0.055 -0.006 -0.025) to (0.055 0.006 0.025)
  create_atoms CPU = 0.000 seconds
create_atoms 3 single -0.007999999999999993 0.0 0.0
Created 1 atoms
  using lattice units in orthogonal box = (-0.055 -0.006 -0.025) to (0.055 0.006 0.025)
  create_atoms CPU = 0.000 seconds
create_atoms 3 single -0.007333333333333331 0.0 0.0
Created 1 atoms
  using lattice units in orthogonal box = (-0.055 -0.006 -0.025) to (0.055 0.006 0.025)
  create_atoms CPU = 0.000 seconds
create_atoms 3 single -0.006666666666666668 0.0 0.0
Created 1 atoms
  using lattice units in orthogonal box = (-0.055 -0.006 -0.025) to (0.055 0.006 0.025)
  create_atoms CPU = 0.000 seconds
create_atoms 3 single -0.005999999999999998 0.0 0.0
Created 1 atoms
  using lattice units in orthogonal box = (-0.055 -0.006 -0.025) to (0.055 0.006 0.025)
  create_atoms CPU = 0.000 seconds
create_atoms 3 single -0.005333333333333329 0.0 0.0
Created 1 atoms
  using lattice units in orthogonal box = (-0.055 -0.006 -0.025) to (0.055 0.006 0.025)
  create_atoms CPU = 0.000 seconds
create_atoms 3 single -0.004666666666666666 0.0 0.0
Created 1 atoms
  using lattice units in orthogonal box = (-0.055 -0.006 -0.025) to (0.055 0.006 0.025)
  create_atoms CPU = 0.000 seconds
create_atoms 3 single -0.003999999999999997 0.0 0.0
Created 1 atoms
  using lattice units in orthogonal box = (-0.055 -0.006 -0.025) to (0.055 0.006 0.025)
  create_atoms CPU = 0.000 seconds
create_atoms 3 single -0.003333333333333334 0.0 0.0
Created 1 atoms
  using lattice units in orthogonal box = (-0.055 -0.006 -0.025) to (0.055 0.006 0.025)
  create_atoms CPU = 0.000 seconds
create_atoms 3 single -0.0026666666666666644 0.0 0.0
Created 1 atoms
  using lattice units in orthogonal box = (-0.055 -0.006 -0.025) to (0.055 0.006 0.025)
  create_atoms CPU = 0.000 seconds
create_atoms 3 single -0.001999999999999995 0.0 0.0
Created 1 atoms
  using lattice units in orthogonal box = (-0.055 -0.006 -0.025) to (0.055 0.006 0.025)
  create_atoms CPU = 0.000 seconds
create_atoms 3 single -0.0013333333333333322 0.0 0.0
Created 1 atoms
  using lattice units in orthogonal box = (-0.055 -0.006 -0.025) to (0.055 0.006 0.025)
  create_atoms CPU = 0.000 seconds
create_atoms 3 single -0.0006666666666666626 0.0 0.0
Created 1 atoms
  using lattice units in orthogonal box = (-0.055 -0.006 -0.025) to (0.055 0.006 0.025)
  create_atoms CPU = 0.000 seconds
create_atoms 3 single 0.0 0.0 0.0
Created 1 atoms
  using lattice units in orthogonal box = (-0.055 -0.006 -0.025) to (0.055 0.006 0.025)
  create_atoms CPU = 0.000 seconds
create_atoms 3 single 0.0006666666666666696 0.0 0.0
Created 1 atoms
  using lattice units in orthogonal box = (-0.055 -0.006 -0.025) to (0.055 0.006 0.025)
  create_atoms CPU = 0.000 seconds
create_atoms 3 single 0.0013333333333333391 0.0 0.0
Created 1 atoms
  using lattice units in orthogonal box = (-0.055 -0.006 -0.025) to (0.055 0.006 0.025)
  create_atoms CPU = 0.000 seconds
create_atoms 3 single 0.0020000000000000018 0.0 0.0
Created 1 atoms
  using lattice units in orthogonal box = (-0.055 -0.006 -0.025) to (0.055 0.006 0.025)
  create_atoms CPU = 0.000 seconds
create_atoms 3 single 0.0026666666666666713 0.0 0.0
Created 1 atoms
  using lattice units in orthogonal box = (-0.055 -0.006 -0.025) to (0.055 0.006 0.025)
  create_atoms CPU = 0.000 seconds
create_atoms 3 single 0.003333333333333334 0.0 0.0
Created 1 atoms
  using lattice units in orthogonal box = (-0.055 -0.006 -0.025) to (0.055 0.006 0.025)
  create_atoms CPU = 0.000 seconds
create_atoms 3 single 0.0040000000000000036 0.0 0.0
Created 1 atoms
  using lattice units in orthogonal box = (-0.055 -0.006 -0.025) to (0.055 0.006 0.025)
  create_atoms CPU = 0.000 seconds
create_atoms 3 single 0.004666666666666673 0.0 0.0
Created 1 atoms
  using lattice units in orthogonal box = (-0.055 -0.006 -0.025) to (0.055 0.006 0.025)
  create_atoms CPU = 0.000 seconds
create_atoms 3 single 0.005333333333333336 0.0 0.0
Created 1 atoms
  using lattice units in orthogonal box = (-0.055 -0.006 -0.025) to (0.055 0.006 0.025)
  create_atoms CPU = 0.000 seconds
create_atoms 3 single 0.006000000000000005 0.0 0.0
Created 1 atoms
  using lattice units in orthogonal box = (-0.055 -0.006 -0.025) to (0.055 0.006 0.025)
  create_atoms CPU = 0.000 seconds
create_atoms 3 single 0.006666666666666668 0.0 0.0
Created 1 atoms
  using lattice units in orthogonal box = (-0.055 -0.006 -0.025) to (0.055 0.006 0.025)
  create_atoms CPU = 0.000 seconds
create_atoms 3 single 0.0073333333333333375 0.0 0.0
Created 1 atoms
  using lattice units in orthogonal box = (-0.055 -0.006 -0.025) to (0.055 0.006 0.025)
  create_atoms CPU = 0.000 seconds
create_atoms 3 single 0.008000000000000007 0.0 0.0
Created 1 atoms
  using lattice units in orthogonal box = (-0.055 -0.006 -0.025) to (0.055 0.006 0.025)
  create_atoms CPU = 0.000 seconds
create_atoms 3 single 0.00866666666666667 0.0 0.0
Created 1 atoms
  using lattice units in orthogonal box = (-0.055 -0.006 -0.025) to (0.055 0.006 0.025)
  create_atoms CPU = 0.000 seconds
create_atoms 3 single 0.00933333333333334 0.0 0.0
Created 1 atoms
  using lattice units in orthogonal box = (-0.055 -0.006 -0.025) to (0.055 0.006 0.025)
  create_atoms CPU = 0.000 seconds
create_atoms 3 single 0.010000000000000009 0.0 0.0
Created 1 atoms
  using lattice units in orthogonal box = (-0.055 -0.006 -0.025) to (0.055 0.006 0.025)
  create_atoms CPU = 0.000 seconds
create_atoms 3 single 0.010666666666666672 0.0 0.0
Created 1 atoms
  using lattice units in orthogonal box = (-0.055 -0.006 -0.025) to (0.055 0.006 0.025)
  create_atoms CPU = 0.000 seconds
create_atoms 3 single 0.011333333333333341 0.0 0.0
Created 1 atoms
  using lattice units in orthogonal box = (-0.055 -0.006 -0.025) to (0.055 0.006 0.025)
  create_atoms CPU = 0.000 seconds
create_atoms 3 single 0.011999999999999997 0.0 0.0
Created 1 atoms
  using lattice units in orthogonal box = (-0.055 -0.006 -0.025) to (0.055 0.006 0.025)
  create_atoms CPU = 0.000 seconds
create_atoms 3 single 0.012666666666666673 0.0 0.0
Created 1 atoms
  using lattice units in orthogonal box = (-0.055 -0.006 -0.025) to (0.055 0.006 0.025)
  create_atoms CPU = 0.000 seconds
create_atoms 3 single 0.013333333333333336 0.0 0.0
Created 1 atoms
  using lattice units in orthogonal box = (-0.055 -0.006 -0.025) to (0.055 0.006 0.025)
  create_atoms CPU = 0.000 seconds
create_atoms 3 single 0.013999999999999999 0.0 0.0
Created 1 atoms
  using lattice units in orthogonal box = (-0.055 -0.006 -0.025) to (0.055 0.006 0.025)
  create_atoms CPU = 0.000 seconds
create_atoms 3 single 0.014666666666666675 0.0 0.0
Created 1 atoms
  using lattice units in orthogonal box = (-0.055 -0.006 -0.025) to (0.055 0.006 0.025)
  create_atoms CPU = 0.000 seconds
create_atoms 3 single 0.015333333333333338 0.0 0.0
Created 1 atoms
  using lattice units in orthogonal box = (-0.055 -0.006 -0.025) to (0.055 0.006 0.025)
  create_atoms CPU = 0.000 seconds
create_atoms 3 single 0.016 0.0 0.0
Created 1 atoms
  using lattice units in orthogonal box = (-0.055 -0.006 -0.025) to (0.055 0.006 0.025)
  create_atoms CPU = 0.000 seconds
create_atoms 3 single 0.016666666666666677 0.0 0.0
Created 1 atoms
  using lattice units in orthogonal box = (-0.055 -0.006 -0.025) to (0.055 0.006 0.025)
  create_atoms CPU = 0.000 seconds
create_atoms 3 single 0.01733333333333334 0.0 0.0
Created 1 atoms
  using lattice units in orthogonal box = (-0.055 -0.006 -0.025) to (0.055 0.006 0.025)
  create_atoms CPU = 0.000 seconds
create_atoms 3 single 0.018000000000000002 0.0 0.0
Created 1 atoms
  using lattice units in orthogonal box = (-0.055 -0.006 -0.025) to (0.055 0.006 0.025)
  create_atoms CPU = 0.000 seconds
create_atoms 3 single 0.01866666666666668 0.0 0.0
Created 1 atoms
  using lattice units in orthogonal box = (-0.055 -0.006 -0.025) to (0.055 0.006 0.025)
  create_atoms CPU = 0.000 seconds
create_atoms 3 single 0.01933333333333334 0.0 0.0
Created 1 atoms
  using lattice units in orthogonal box = (-0.055 -0.006 -0.025) to (0.055 0.006 0.025)
  create_atoms CPU = 0.000 seconds
create_atoms 3 single 0.020000000000000004 0.0 0.0
Created 1 atoms
  using lattice units in orthogonal box = (-0.055 -0.006 -0.025) to (0.055 0.006 0.025)
  create_atoms CPU = 0.000 seconds
create_atoms 3 single 0.020666666666666667 0.0 0.0
Created 1 atoms
  using lattice units in orthogonal box = (-0.055 -0.006 -0.025) to (0.055 0.006 0.025)
  create_atoms CPU = 0.000 seconds
create_atoms 3 single 0.021333333333333343 0.0 0.0
Created 1 atoms
  using lattice units in orthogonal box = (-0.055 -0.006 -0.025) to (0.055 0.006 0.025)
  create_atoms CPU = 0.000 seconds
create_atoms 3 single 0.022000000000000006 0.0 0.0
Created 1 atoms
  using lattice units in orthogonal box = (-0.055 -0.006 -0.025) to (0.055 0.006 0.025)
  create_atoms CPU = 0.000 seconds
create_atoms 3 single 0.02266666666666667 0.0 0.0
Created 1 atoms
  using lattice units in orthogonal box = (-0.055 -0.006 -0.025) to (0.055 0.006 0.025)
  create_atoms CPU = 0.000 seconds
create_atoms 3 single 0.023333333333333345 0.0 0.0
Created 1 atoms
  using lattice units in orthogonal box = (-0.055 -0.006 -0.025) to (0.055 0.006 0.025)
  create_atoms CPU = 0.000 seconds
create_atoms 3 single 0.024000000000000007 0.0 0.0
Created 1 atoms
  using lattice units in orthogonal box = (-0.055 -0.006 -0.025) to (0.055 0.006 0.025)
  create_atoms CPU = 0.000 seconds
create_atoms 3 single 0.02466666666666667 0.0 0.0
Created 1 atoms
  using lattice units in orthogonal box = (-0.055 -0.006 -0.025) to (0.055 0.006 0.025)
  create_atoms CPU = 0.000 seconds
create_atoms 3 single 0.025333333333333347 0.0 0.0
Created 1 atoms
  using lattice units in orthogonal box = (-0.055 -0.006 -0.025) to (0.055 0.006 0.025)
  create_atoms CPU = 0.000 seconds
create_atoms 3 single 0.02600000000000001 0.0 0.0
Created 1 atoms
  using lattice units in orthogonal box = (-0.055 -0.006 -0.025) to (0.055 0.006 0.025)
  create_atoms CPU = 0.000 seconds
create_atoms 3 single 0.026666666666666672 0.0 0.0
Created 1 atoms
  using lattice units in orthogonal box = (-0.055 -0.006 -0.025) to (0.055 0.006 0.025)
  create_atoms CPU = 0.000 seconds
create_atoms 3 single 0.02733333333333335 0.0 0.0
Created 1 atoms
  using lattice units in orthogonal box = (-0.055 -0.006 -0.025) to (0.055 0.006 0.025)
  create_atoms CPU = 0.000 seconds
create_atoms 3 single 0.02800000000000001 0.0 0.0
Created 1 atoms
  using lattice units in orthogonal box = (-0.055 -0.006 -0.025) to (0.055 0.006 0.025)
  create_atoms CPU = 0.000 seconds
create_atoms 3 single 0.028666666666666674 0.0 0.0
Created 1 atoms
  using lattice units in orthogonal box = (-0.055 -0.006 -0.025) to (0.055 0.006 0.025)
  create_atoms CPU = 0.000 seconds
create_atoms 3 single 0.029333333333333336 0.0 0.0
Created 1 atoms
  using lattice units in orthogonal box = (-0.055 -0.006 -0.025) to (0.055 0.006 0.025)
  create_atoms CPU = 0.000 seconds
create_atoms 3 single 0.030000000000000013 0.0 0.0
Created 1 atoms
  using lattice units in orthogonal box = (-0.055 -0.006 -0.025) to (0.055 0.006 0.025)
  create_atoms CPU = 0.000 seconds
create_atoms 3 single 0.030666666666666675 0.0 0.0
Created 1 atoms
  using lattice units in orthogonal box = (-0.055 -0.006 -0.025) to (0.055 0.006 0.025)
  create_atoms CPU = 0.000 seconds
create_atoms 3 single 0.03133333333333334 0.0 0.0
Created 1 atoms
  using lattice units in orthogonal box = (-0.055 -0.006 -0.025) to (0.055 0.006 0.025)
  create_atoms CPU = 0.000 seconds
create_atoms 3 single 0.032000000000000015 0.0 0.0
Created 1 atoms
  using lattice units in orthogonal box = (-0.055 -0.006 -0.025) to (0.055 0.006 0.025)
  create_atoms CPU = 0.000 seconds
create_atoms 3 single 0.03266666666666668 0.0 0.0
Created 1 atoms
  using lattice units in orthogonal box = (-0.055 -0.006 -0.025) to (0.055 0.006 0.025)
  create_atoms CPU = 0.000 seconds
create_atoms 3 single 0.03333333333333334 0.0 0.0
Created 1 atoms
  using lattice units in orthogonal box = (-0.055 -0.006 -0.025) to (0.055 0.006 0.025)
  create_atoms CPU = 0.000 seconds
create_atoms 3 single 0.034000000000000016 0.0 0.0
Created 1 atoms
  using lattice units in orthogonal box = (-0.055 -0.006 -0.025) to (0.055 0.006 0.025)
  create_atoms CPU = 0.000 seconds
create_atoms 3 single 0.034666666666666665 0.0 0.0
Created 1 atoms
  using lattice units in orthogonal box = (-0.055 -0.006 -0.025) to (0.055 0.006 0.025)
  create_atoms CPU = 0.000 seconds
create_atoms 3 single 0.03533333333333334 0.0 0.0
Created 1 atoms
  using lattice units in orthogonal box = (-0.055 -0.006 -0.025) to (0.055 0.006 0.025)
  create_atoms CPU = 0.000 seconds
create_atoms 3 single 0.03600000000000002 0.0 0.0
Created 1 atoms
  using lattice units in orthogonal box = (-0.055 -0.006 -0.025) to (0.055 0.006 0.025)
  create_atoms CPU = 0.000 seconds
create_atoms 3 single 0.03666666666666667 0.0 0.0
Created 1 atoms
  using lattice units in orthogonal box = (-0.055 -0.006 -0.025) to (0.055 0.006 0.025)
  create_atoms CPU = 0.000 seconds
create_atoms 3 single 0.03733333333333334 0.0 0.0
Created 1 atoms
  using lattice units in orthogonal box = (-0.055 -0.006 -0.025) to (0.055 0.006 0.025)
  create_atoms CPU = 0.000 seconds
create_atoms 3 single 0.038000000000000006 0.0 0.0
Created 1 atoms
  using lattice units in orthogonal box = (-0.055 -0.006 -0.025) to (0.055 0.006 0.025)
  create_atoms CPU = 0.000 seconds
create_atoms 3 single 0.03866666666666667 0.0 0.0
Created 1 atoms
  using lattice units in orthogonal box = (-0.055 -0.006 -0.025) to (0.055 0.006 0.025)
  create_atoms CPU = 0.000 seconds
create_atoms 3 single 0.039333333333333345 0.0 0.0
Created 1 atoms
  using lattice units in orthogonal box = (-0.055 -0.006 -0.025) to (0.055 0.006 0.025)
  create_atoms CPU = 0.000 seconds
create_atoms 3 single 0.04000000000000001 0.0 0.0
Created 1 atoms
  using lattice units in orthogonal box = (-0.055 -0.006 -0.025) to (0.055 0.006 0.025)
  create_atoms CPU = 0.000 seconds
create_atoms 3 single 0.04066666666666667 0.0 0.0
Created 1 atoms
  using lattice units in orthogonal box = (-0.055 -0.006 -0.025) to (0.055 0.006 0.025)
  create_atoms CPU = 0.000 seconds
create_atoms 3 single 0.04133333333333335 0.0 0.0
Created 1 atoms
  using lattice units in orthogonal box = (-0.055 -0.006 -0.025) to (0.055 0.006 0.025)
  create_atoms CPU = 0.000 seconds
create_atoms 3 single 0.04200000000000001 0.0 0.0
Created 1 atoms
  using lattice units in orthogonal box = (-0.055 -0.006 -0.025) to (0.055 0.006 0.025)
  create_atoms CPU = 0.000 seconds
create_atoms 3 single 0.04266666666666667 0.0 0.0
Created 1 atoms
  using lattice units in orthogonal box = (-0.055 -0.006 -0.025) to (0.055 0.006 0.025)
  create_atoms CPU = 0.000 seconds
create_atoms 3 single 0.043333333333333335 0.0 0.0
Created 1 atoms
  using lattice units in orthogonal box = (-0.055 -0.006 -0.025) to (0.055 0.006 0.025)
  create_atoms CPU = 0.000 seconds
create_atoms 3 single 0.04400000000000001 0.0 0.0
Created 1 atoms
  using lattice units in orthogonal box = (-0.055 -0.006 -0.025) to (0.055 0.006 0.025)
  create_atoms CPU = 0.000 seconds
create_atoms 3 single 0.044666666666666674 0.0 0.0
Created 1 atoms
  using lattice units in orthogonal box = (-0.055 -0.006 -0.025) to (0.055 0.006 0.025)
  create_atoms CPU = 0.000 seconds
create_atoms 3 single 0.04533333333333334 0.0 0.0
Created 1 atoms
  using lattice units in orthogonal box = (-0.055 -0.006 -0.025) to (0.055 0.006 0.025)
  create_atoms CPU = 0.000 seconds
create_atoms 3 single 0.04600000000000001 0.0 0.0
Created 1 atoms
  using lattice units in orthogonal box = (-0.055 -0.006 -0.025) to (0.055 0.006 0.025)
  create_atoms CPU = 0.000 seconds
create_atoms 3 single 0.046666666666666676 0.0 0.0
Created 1 atoms
  using lattice units in orthogonal box = (-0.055 -0.006 -0.025) to (0.055 0.006 0.025)
  create_atoms CPU = 0.000 seconds
create_atoms 3 single 0.04733333333333334 0.0 0.0
Created 1 atoms
  using lattice units in orthogonal box = (-0.055 -0.006 -0.025) to (0.055 0.006 0.025)
  create_atoms CPU = 0.000 seconds
create_atoms 3 single 0.048000000000000015 0.0 0.0
Created 1 atoms
  using lattice units in orthogonal box = (-0.055 -0.006 -0.025) to (0.055 0.006 0.025)
  create_atoms CPU = 0.000 seconds
create_atoms 3 single 0.04866666666666668 0.0 0.0
Created 1 atoms
  using lattice units in orthogonal box = (-0.055 -0.006 -0.025) to (0.055 0.006 0.025)
  create_atoms CPU = 0.000 seconds
create_atoms 3 single 0.04933333333333334 0.0 0.0
Created 1 atoms
  using lattice units in orthogonal box = (-0.055 -0.006 -0.025) to (0.055 0.006 0.025)
  create_atoms CPU = 0.000 seconds
set type 3 diameter 0.002
Setting atom values ...
  149 settings made for diameter
set type 3 density 0.5
Setting atom values ...
  149 settings made for density
pair_coeff 3 3 granular hertz/material 0 0 0.5 tangential linear_nohistory 0 0

group group_move_1 id 2
1 atoms in group group_move_1
fix fix_move_1 group_move_1 move linear NULL NULL NULL

group group_move_2 id 1
1 atoms in group group_move_2
fix fix_move_2 group_move_2 move linear 0 0 0

group group_move_3 id 3
1 atoms in group group_move_3
fix fix_move_3 group_move_3 move linear 0 0 0
bond_coeff 1 2879.9999999999995 0.0006666666666666668
include structure/bond_1.txt
create_bonds single/bond 1 3 4
Finding 1-2 1-3 1-4 neighbors ...
  special bond factors lj:    0        1        1       
  special bond factors coul:  0        1        1       
     1 = max # of 1-2 neighbors
     1 = max # of special neighbors
  special bonds CPU = 0.000 seconds
create_bonds single/bond 1 4 5
Finding 1-2 1-3 1-4 neighbors ...
  special bond factors lj:    0        1        1       
  special bond factors coul:  0        1        1       
     2 = max # of 1-2 neighbors
     2 = max # of special neighbors
  special bonds CPU = 0.000 seconds
create_bonds single/bond 1 5 6
Finding 1-2 1-3 1-4 neighbors ...
  special bond factors lj:    0        1        1       
  special bond factors coul:  0        1        1       
     2 = max # of 1-2 neighbors
     2 = max # of special neighbors
  special bonds CPU = 0.000 seconds
create_bonds single/bond 1 6 7
Finding 1-2 1-3 1-4 neighbors ...
  special bond factors lj:    0        1        1       
  special bond factors coul:  0        1        1       
     2 = max # of 1-2 neighbors
     2 = max # of special neighbors
  special bonds CPU = 0.000 seconds
create_bonds single/bond 1 7 8
Finding 1-2 1-3 1-4 neighbors ...
  special bond factors lj:    0        1        1       
  special bond factors coul:  0        1        1       
     2 = max # of 1-2 neighbors
     2 = max # of special neighbors
  special bonds CPU = 0.000 seconds
create_bonds single/bond 1 8 9
Finding 1-2 1-3 1-4 neighbors ...
  special bond factors lj:    0        1        1       
  special bond factors coul:  0        1        1       
     2 = max # of 1-2 neighbors
     2 = max # of special neighbors
  special bonds CPU = 0.000 seconds
create_bonds single/bond 1 9 10
Finding 1-2 1-3 1-4 neighbors ...
  special bond factors lj:    0        1        1       
  special bond factors coul:  0        1        1       
     2 = max # of 1-2 neighbors
     2 = max # of special neighbors
  special bonds CPU = 0.000 seconds
create_bonds single/bond 1 10 11
Finding 1-2 1-3 1-4 neighbors ...
  special bond factors lj:    0        1        1       
  special bond factors coul:  0        1        1       
     2 = max # of 1-2 neighbors
     2 = max # of special neighbors
  special bonds CPU = 0.000 seconds
create_bonds single/bond 1 11 12
Finding 1-2 1-3 1-4 neighbors ...
  special bond factors lj:    0        1        1       
  special bond factors coul:  0        1        1       
     2 = max # of 1-2 neighbors
     2 = max # of special neighbors
  special bonds CPU = 0.000 seconds
create_bonds single/bond 1 12 13
Finding 1-2 1-3 1-4 neighbors ...
  special bond factors lj:    0        1        1       
  special bond factors coul:  0        1        1       
     2 = max # of 1-2 neighbors
     2 = max # of special neighbors
  special bonds CPU = 0.000 seconds
create_bonds single/bond 1 13 14
Finding 1-2 1-3 1-4 neighbors ...
  special bond factors lj:    0        1        1       
  special bond factors coul:  0        1        1       
     2 = max # of 1-2 neighbors
     2 = max # of special neighbors
  special bonds CPU = 0.000 seconds
create_bonds single/bond 1 14 15
Finding 1-2 1-3 1-4 neighbors ...
  special bond factors lj:    0        1        1       
  special bond factors coul:  0        1        1       
     2 = max # of 1-2 neighbors
     2 = max # of special neighbors
  special bonds CPU = 0.000 seconds
create_bonds single/bond 1 15 16
Finding 1-2 1-3 1-4 neighbors ...
  special bond factors lj:    0        1        1       
  special bond factors coul:  0        1        1       
     2 = max # of 1-2 neighbors
     2 = max # of special neighbors
  special bonds CPU = 0.000 seconds
create_bonds single/bond 1 16 17
Finding 1-2 1-3 1-4 neighbors ...
  special bond factors lj:    0        1        1       
  special bond factors coul:  0        1        1       
     2 = max # of 1-2 neighbors
     2 = max # of special neighbors
  special bonds CPU = 0.000 seconds
create_bonds single/bond 1 17 18
Finding 1-2 1-3 1-4 neighbors ...
  special bond factors lj:    0        1        1       
  special bond factors coul:  0        1        1       
     2 = max # of 1-2 neighbors
     2 = max # of special neighbors
  special bonds CPU = 0.000 seconds
create_bonds single/bond 1 18 19
Finding 1-2 1-3 1-4 neighbors ...
  special bond factors lj:    0        1        1       
  special bond factors coul:  0        1        1       
     2 = max # of 1-2 neighbors
     2 = max # of special neighbors
  special bonds CPU = 0.000 seconds
create_bonds single/bond 1 19 20
Finding 1-2 1-3 1-4 neighbors ...
  special bond factors lj:    0        1        1       
  special bond factors coul:  0        1        1       
     2 = max # of 1-2 neighbors
     2 = max # of special neighbors
  special bonds CPU = 0.000 seconds
create_bonds single/bond 1 20 21
Finding 1-2 1-3 1-4 neighbors ...
  special bond factors lj:    0        1        1       
  special bond factors coul:  0        1        1       
     2 = max # of 1-2 neighbors
     2 = max # of special neighbors
  special bonds CPU = 0.000 seconds
create_bonds single/bond 1 21 22
Finding 1-2 1-3 1-4 neighbors ...
  special bond factors lj:    0        1        1       
  special bond factors coul:  0        1        1       
     2 = max # of 1-2 neighbors
     2 = max # of special neighbors
  special bonds CPU = 0.000 seconds
create_bonds single/bond 1 22 23
Finding 1-2 1-3 1-4 neighbors ...
  special bond factors lj:    0        1        1       
  special bond factors coul:  0        1        1       
     2 = max # of 1-2 neighbors
     2 = max # of special neighbors
  special bonds CPU = 0.000 seconds
create_bonds single/bond 1 23 24
Finding 1-2 1-3 1-4 neighbors ...
  special bond factors lj:    0        1        1       
  special bond factors coul:  0        1        1       
     2 = max # of 1-2 neighbors
     2 = max # of special neighbors
  special bonds CPU = 0.000 seconds
create_bonds single/bond 1 24 25
Finding 1-2 1-3 1-4 neighbors ...
  special bond factors lj:    0        1        1       
  special bond factors coul:  0        1        1       
     2 = max # of 1-2 neighbors
     2 = max # of special neighbors
  special bonds CPU = 0.000 seconds
create_bonds single/bond 1 25 26
Finding 1-2 1-3 1-4 neighbors ...
  special bond factors lj:    0        1        1       
  special bond factors coul:  0        1        1       
     2 = max # of 1-2 neighbors
     2 = max # of special neighbors
  special bonds CPU = 0.000 seconds
create_bonds single/bond 1 26 27
Finding 1-2 1-3 1-4 neighbors ...
  special bond factors lj:    0        1        1       
  special bond factors coul:  0        1        1       
     2 = max # of 1-2 neighbors
     2 = max # of special neighbors
  special bonds CPU = 0.000 seconds
create_bonds single/bond 1 27 28
Finding 1-2 1-3 1-4 neighbors ...
  special bond factors lj:    0        1        1       
  special bond factors coul:  0        1        1       
     2 = max # of 1-2 neighbors
     2 = max # of special neighbors
  special bonds CPU = 0.000 seconds
create_bonds single/bond 1 28 29
Finding 1-2 1-3 1-4 neighbors ...
  special bond factors lj:    0        1        1       
  special bond factors coul:  0        1        1       
     2 = max # of 1-2 neighbors
     2 = max # of special neighbors
  special bonds CPU = 0.000 seconds
create_bonds single/bond 1 29 30
Finding 1-2 1-3 1-4 neighbors ...
  special bond factors lj:    0        1        1       
  special bond factors coul:  0        1        1       
     2 = max # of 1-2 neighbors
     2 = max # of special neighbors
  special bonds CPU = 0.000 seconds
create_bonds single/bond 1 30 31
Finding 1-2 1-3 1-4 neighbors ...
  special bond factors lj:    0        1        1       
  special bond factors coul:  0        1        1       
     2 = max # of 1-2 neighbors
     2 = max # of special neighbors
  special bonds CPU = 0.000 seconds
create_bonds single/bond 1 31 32
Finding 1-2 1-3 1-4 neighbors ...
  special bond factors lj:    0        1        1       
  special bond factors coul:  0        1        1       
     2 = max # of 1-2 neighbors
     2 = max # of special neighbors
  special bonds CPU = 0.000 seconds
create_bonds single/bond 1 32 33
Finding 1-2 1-3 1-4 neighbors ...
  special bond factors lj:    0        1        1       
  special bond factors coul:  0        1        1       
     2 = max # of 1-2 neighbors
     2 = max # of special neighbors
  special bonds CPU = 0.000 seconds
create_bonds single/bond 1 33 34
Finding 1-2 1-3 1-4 neighbors ...
  special bond factors lj:    0        1        1       
  special bond factors coul:  0        1        1       
     2 = max # of 1-2 neighbors
     2 = max # of special neighbors
  special bonds CPU = 0.000 seconds
create_bonds single/bond 1 34 35
Finding 1-2 1-3 1-4 neighbors ...
  special bond factors lj:    0        1        1       
  special bond factors coul:  0        1        1       
     2 = max # of 1-2 neighbors
     2 = max # of special neighbors
  special bonds CPU = 0.000 seconds
create_bonds single/bond 1 35 36
Finding 1-2 1-3 1-4 neighbors ...
  special bond factors lj:    0        1        1       
  special bond factors coul:  0        1        1       
     2 = max # of 1-2 neighbors
     2 = max # of special neighbors
  special bonds CPU = 0.000 seconds
create_bonds single/bond 1 36 37
Finding 1-2 1-3 1-4 neighbors ...
  special bond factors lj:    0        1        1       
  special bond factors coul:  0        1        1       
     2 = max # of 1-2 neighbors
     2 = max # of special neighbors
  special bonds CPU = 0.000 seconds
create_bonds single/bond 1 37 38
Finding 1-2 1-3 1-4 neighbors ...
  special bond factors lj:    0        1        1       
  special bond factors coul:  0        1        1       
     2 = max # of 1-2 neighbors
     2 = max # of special neighbors
  special bonds CPU = 0.000 seconds
create_bonds single/bond 1 38 39
Finding 1-2 1-3 1-4 neighbors ...
  special bond factors lj:    0        1        1       
  special bond factors coul:  0        1        1       
     2 = max # of 1-2 neighbors
     2 = max # of special neighbors
  special bonds CPU = 0.000 seconds
create_bonds single/bond 1 39 40
Finding 1-2 1-3 1-4 neighbors ...
  special bond factors lj:    0        1        1       
  special bond factors coul:  0        1        1       
     2 = max # of 1-2 neighbors
     2 = max # of special neighbors
  special bonds CPU = 0.000 seconds
create_bonds single/bond 1 40 41
Finding 1-2 1-3 1-4 neighbors ...
  special bond factors lj:    0        1        1       
  special bond factors coul:  0        1        1       
     2 = max # of 1-2 neighbors
     2 = max # of special neighbors
  special bonds CPU = 0.000 seconds
create_bonds single/bond 1 41 42
Finding 1-2 1-3 1-4 neighbors ...
  special bond factors lj:    0        1        1       
  special bond factors coul:  0        1        1       
     2 = max # of 1-2 neighbors
     2 = max # of special neighbors
  special bonds CPU = 0.000 seconds
create_bonds single/bond 1 42 43
Finding 1-2 1-3 1-4 neighbors ...
  special bond factors lj:    0        1        1       
  special bond factors coul:  0        1        1       
     2 = max # of 1-2 neighbors
     2 = max # of special neighbors
  special bonds CPU = 0.000 seconds
create_bonds single/bond 1 43 44
Finding 1-2 1-3 1-4 neighbors ...
  special bond factors lj:    0        1        1       
  special bond factors coul:  0        1        1       
     2 = max # of 1-2 neighbors
     2 = max # of special neighbors
  special bonds CPU = 0.000 seconds
create_bonds single/bond 1 44 45
Finding 1-2 1-3 1-4 neighbors ...
  special bond factors lj:    0        1        1       
  special bond factors coul:  0        1        1       
     2 = max # of 1-2 neighbors
     2 = max # of special neighbors
  special bonds CPU = 0.000 seconds
create_bonds single/bond 1 45 46
Finding 1-2 1-3 1-4 neighbors ...
  special bond factors lj:    0        1        1       
  special bond factors coul:  0        1        1       
     2 = max # of 1-2 neighbors
     2 = max # of special neighbors
  special bonds CPU = 0.000 seconds
create_bonds single/bond 1 46 47
Finding 1-2 1-3 1-4 neighbors ...
  special bond factors lj:    0        1        1       
  special bond factors coul:  0        1        1       
     2 = max # of 1-2 neighbors
     2 = max # of special neighbors
  special bonds CPU = 0.000 seconds
create_bonds single/bond 1 47 48
Finding 1-2 1-3 1-4 neighbors ...
  special bond factors lj:    0        1        1       
  special bond factors coul:  0        1        1       
     2 = max # of 1-2 neighbors
     2 = max # of special neighbors
  special bonds CPU = 0.000 seconds
create_bonds single/bond 1 48 49
Finding 1-2 1-3 1-4 neighbors ...
  special bond factors lj:    0        1        1       
  special bond factors coul:  0        1        1       
     2 = max # of 1-2 neighbors
     2 = max # of special neighbors
  special bonds CPU = 0.000 seconds
create_bonds single/bond 1 49 50
Finding 1-2 1-3 1-4 neighbors ...
  special bond factors lj:    0        1        1       
  special bond factors coul:  0        1        1       
     2 = max # of 1-2 neighbors
     2 = max # of special neighbors
  special bonds CPU = 0.000 seconds
create_bonds single/bond 1 50 51
Finding 1-2 1-3 1-4 neighbors ...
  special bond factors lj:    0        1        1       
  special bond factors coul:  0        1        1       
     2 = max # of 1-2 neighbors
     2 = max # of special neighbors
  special bonds CPU = 0.000 seconds
create_bonds single/bond 1 51 52
Finding 1-2 1-3 1-4 neighbors ...
  special bond factors lj:    0        1        1       
  special bond factors coul:  0        1        1       
     2 = max # of 1-2 neighbors
     2 = max # of special neighbors
  special bonds CPU = 0.000 seconds
create_bonds single/bond 1 52 53
Finding 1-2 1-3 1-4 neighbors ...
  special bond factors lj:    0        1        1       
  special bond factors coul:  0        1        1       
     2 = max # of 1-2 neighbors
     2 = max # of special neighbors
  special bonds CPU = 0.000 seconds
create_bonds single/bond 1 53 54
Finding 1-2 1-3 1-4 neighbors ...
  special bond factors lj:    0        1        1       
  special bond factors coul:  0        1        1       
     2 = max # of 1-2 neighbors
     2 = max # of special neighbors
  special bonds CPU = 0.000 seconds
create_bonds single/bond 1 54 55
Finding 1-2 1-3 1-4 neighbors ...
  special bond factors lj:    0        1        1       
  special bond factors coul:  0        1        1       
     2 = max # of 1-2 neighbors
     2 = max # of special neighbors
  special bonds CPU = 0.000 seconds
create_bonds single/bond 1 55 56
Finding 1-2 1-3 1-4 neighbors ...
  special bond factors lj:    0        1        1       
  special bond factors coul:  0        1        1       
     2 = max # of 1-2 neighbors
     2 = max # of special neighbors
  special bonds CPU = 0.000 seconds
create_bonds single/bond 1 56 57
Finding 1-2 1-3 1-4 neighbors ...
  special bond factors lj:    0        1        1       
  special bond factors coul:  0        1        1       
     2 = max # of 1-2 neighbors
     2 = max # of special neighbors
  special bonds CPU = 0.000 seconds
create_bonds single/bond 1 57 58
Finding 1-2 1-3 1-4 neighbors ...
  special bond factors lj:    0        1        1       
  special bond factors coul:  0        1        1       
     2 = max # of 1-2 neighbors
     2 = max # of special neighbors
  special bonds CPU = 0.000 seconds
create_bonds single/bond 1 58 59
Finding 1-2 1-3 1-4 neighbors ...
  special bond factors lj:    0        1        1       
  special bond factors coul:  0        1        1       
     2 = max # of 1-2 neighbors
     2 = max # of special neighbors
  special bonds CPU = 0.000 seconds
create_bonds single/bond 1 59 60
Finding 1-2 1-3 1-4 neighbors ...
  special bond factors lj:    0        1        1       
  special bond factors coul:  0        1        1       
     2 = max # of 1-2 neighbors
     2 = max # of special neighbors
  special bonds CPU = 0.000 seconds
create_bonds single/bond 1 60 61
Finding 1-2 1-3 1-4 neighbors ...
  special bond factors lj:    0        1        1       
  special bond factors coul:  0        1        1       
     2 = max # of 1-2 neighbors
     2 = max # of special neighbors
  special bonds CPU = 0.000 seconds
create_bonds single/bond 1 61 62
Finding 1-2 1-3 1-4 neighbors ...
  special bond factors lj:    0        1        1       
  special bond factors coul:  0        1        1       
     2 = max # of 1-2 neighbors
     2 = max # of special neighbors
  special bonds CPU = 0.000 seconds
create_bonds single/bond 1 62 63
Finding 1-2 1-3 1-4 neighbors ...
  special bond factors lj:    0        1        1       
  special bond factors coul:  0        1        1       
     2 = max # of 1-2 neighbors
     2 = max # of special neighbors
  special bonds CPU = 0.000 seconds
create_bonds single/bond 1 63 64
Finding 1-2 1-3 1-4 neighbors ...
  special bond factors lj:    0        1        1       
  special bond factors coul:  0        1        1       
     2 = max # of 1-2 neighbors
     2 = max # of special neighbors
  special bonds CPU = 0.000 seconds
create_bonds single/bond 1 64 65
Finding 1-2 1-3 1-4 neighbors ...
  special bond factors lj:    0        1        1       
  special bond factors coul:  0        1        1       
     2 = max # of 1-2 neighbors
     2 = max # of special neighbors
  special bonds CPU = 0.000 seconds
create_bonds single/bond 1 65 66
Finding 1-2 1-3 1-4 neighbors ...
  special bond factors lj:    0        1        1       
  special bond factors coul:  0        1        1       
     2 = max # of 1-2 neighbors
     2 = max # of special neighbors
  special bonds CPU = 0.000 seconds
create_bonds single/bond 1 66 67
Finding 1-2 1-3 1-4 neighbors ...
  special bond factors lj:    0        1        1       
  special bond factors coul:  0        1        1       
     2 = max # of 1-2 neighbors
     2 = max # of special neighbors
  special bonds CPU = 0.000 seconds
create_bonds single/bond 1 67 68
Finding 1-2 1-3 1-4 neighbors ...
  special bond factors lj:    0        1        1       
  special bond factors coul:  0        1        1       
     2 = max # of 1-2 neighbors
     2 = max # of special neighbors
  special bonds CPU = 0.000 seconds
create_bonds single/bond 1 68 69
Finding 1-2 1-3 1-4 neighbors ...
  special bond factors lj:    0        1        1       
  special bond factors coul:  0        1        1       
     2 = max # of 1-2 neighbors
     2 = max # of special neighbors
  special bonds CPU = 0.000 seconds
create_bonds single/bond 1 69 70
Finding 1-2 1-3 1-4 neighbors ...
  special bond factors lj:    0        1        1       
  special bond factors coul:  0        1        1       
     2 = max # of 1-2 neighbors
     2 = max # of special neighbors
  special bonds CPU = 0.000 seconds
create_bonds single/bond 1 70 71
Finding 1-2 1-3 1-4 neighbors ...
  special bond factors lj:    0        1        1       
  special bond factors coul:  0        1        1       
     2 = max # of 1-2 neighbors
     2 = max # of special neighbors
  special bonds CPU = 0.000 seconds
create_bonds single/bond 1 71 72
Finding 1-2 1-3 1-4 neighbors ...
  special bond factors lj:    0        1        1       
  special bond factors coul:  0        1        1       
     2 = max # of 1-2 neighbors
     2 = max # of special neighbors
  special bonds CPU = 0.000 seconds
create_bonds single/bond 1 72 73
Finding 1-2 1-3 1-4 neighbors ...
  special bond factors lj:    0        1        1       
  special bond factors coul:  0        1        1       
     2 = max # of 1-2 neighbors
     2 = max # of special neighbors
  special bonds CPU = 0.000 seconds
create_bonds single/bond 1 73 74
Finding 1-2 1-3 1-4 neighbors ...
  special bond factors lj:    0        1        1       
  special bond factors coul:  0        1        1       
     2 = max # of 1-2 neighbors
     2 = max # of special neighbors
  special bonds CPU = 0.000 seconds
create_bonds single/bond 1 74 75
Finding 1-2 1-3 1-4 neighbors ...
  special bond factors lj:    0        1        1       
  special bond factors coul:  0        1        1       
     2 = max # of 1-2 neighbors
     2 = max # of special neighbors
  special bonds CPU = 0.000 seconds
create_bonds single/bond 1 75 76
Finding 1-2 1-3 1-4 neighbors ...
  special bond factors lj:    0        1        1       
  special bond factors coul:  0        1        1       
     2 = max # of 1-2 neighbors
     2 = max # of special neighbors
  special bonds CPU = 0.000 seconds
create_bonds single/bond 1 76 77
Finding 1-2 1-3 1-4 neighbors ...
  special bond factors lj:    0        1        1       
  special bond factors coul:  0        1        1       
     2 = max # of 1-2 neighbors
     2 = max # of special neighbors
  special bonds CPU = 0.000 seconds
create_bonds single/bond 1 77 78
Finding 1-2 1-3 1-4 neighbors ...
  special bond factors lj:    0        1        1       
  special bond factors coul:  0        1        1       
     2 = max # of 1-2 neighbors
     2 = max # of special neighbors
  special bonds CPU = 0.000 seconds
create_bonds single/bond 1 78 79
Finding 1-2 1-3 1-4 neighbors ...
  special bond factors lj:    0        1        1       
  special bond factors coul:  0        1        1       
     2 = max # of 1-2 neighbors
     2 = max # of special neighbors
  special bonds CPU = 0.000 seconds
create_bonds single/bond 1 79 80
Finding 1-2 1-3 1-4 neighbors ...
  special bond factors lj:    0        1        1       
  special bond factors coul:  0        1        1       
     2 = max # of 1-2 neighbors
     2 = max # of special neighbors
  special bonds CPU = 0.000 seconds
create_bonds single/bond 1 80 81
Finding 1-2 1-3 1-4 neighbors ...
  special bond factors lj:    0        1        1       
  special bond factors coul:  0        1        1       
     2 = max # of 1-2 neighbors
     2 = max # of special neighbors
  special bonds CPU = 0.000 seconds
create_bonds single/bond 1 81 82
Finding 1-2 1-3 1-4 neighbors ...
  special bond factors lj:    0        1        1       
  special bond factors coul:  0        1        1       
     2 = max # of 1-2 neighbors
     2 = max # of special neighbors
  special bonds CPU = 0.000 seconds
create_bonds single/bond 1 82 83
Finding 1-2 1-3 1-4 neighbors ...
  special bond factors lj:    0        1        1       
  special bond factors coul:  0        1        1       
     2 = max # of 1-2 neighbors
     2 = max # of special neighbors
  special bonds CPU = 0.000 seconds
create_bonds single/bond 1 83 84
Finding 1-2 1-3 1-4 neighbors ...
  special bond factors lj:    0        1        1       
  special bond factors coul:  0        1        1       
     2 = max # of 1-2 neighbors
     2 = max # of special neighbors
  special bonds CPU = 0.000 seconds
create_bonds single/bond 1 84 85
Finding 1-2 1-3 1-4 neighbors ...
  special bond factors lj:    0        1        1       
  special bond factors coul:  0        1        1       
     2 = max # of 1-2 neighbors
     2 = max # of special neighbors
  special bonds CPU = 0.000 seconds
create_bonds single/bond 1 85 86
Finding 1-2 1-3 1-4 neighbors ...
  special bond factors lj:    0        1        1       
  special bond factors coul:  0        1        1       
     2 = max # of 1-2 neighbors
     2 = max # of special neighbors
  special bonds CPU = 0.000 seconds
create_bonds single/bond 1 86 87
Finding 1-2 1-3 1-4 neighbors ...
  special bond factors lj:    0        1        1       
  special bond factors coul:  0        1        1       
     2 = max # of 1-2 neighbors
     2 = max # of special neighbors
  special bonds CPU = 0.000 seconds
create_bonds single/bond 1 87 88
Finding 1-2 1-3 1-4 neighbors ...
  special bond factors lj:    0        1        1       
  special bond factors coul:  0        1        1       
     2 = max # of 1-2 neighbors
     2 = max # of special neighbors
  special bonds CPU = 0.000 seconds
create_bonds single/bond 1 88 89
Finding 1-2 1-3 1-4 neighbors ...
  special bond factors lj:    0        1        1       
  special bond factors coul:  0        1        1       
     2 = max # of 1-2 neighbors
     2 = max # of special neighbors
  special bonds CPU = 0.000 seconds
create_bonds single/bond 1 89 90
Finding 1-2 1-3 1-4 neighbors ...
  special bond factors lj:    0        1        1       
  special bond factors coul:  0        1        1       
     2 = max # of 1-2 neighbors
     2 = max # of special neighbors
  special bonds CPU = 0.000 seconds
create_bonds single/bond 1 90 91
Finding 1-2 1-3 1-4 neighbors ...
  special bond factors lj:    0        1        1       
  special bond factors coul:  0        1        1       
     2 = max # of 1-2 neighbors
     2 = max # of special neighbors
  special bonds CPU = 0.000 seconds
create_bonds single/bond 1 91 92
Finding 1-2 1-3 1-4 neighbors ...
  special bond factors lj:    0        1        1       
  special bond factors coul:  0        1        1       
     2 = max # of 1-2 neighbors
     2 = max # of special neighbors
  special bonds CPU = 0.000 seconds
create_bonds single/bond 1 92 93
Finding 1-2 1-3 1-4 neighbors ...
  special bond factors lj:    0        1        1       
  special bond factors coul:  0        1        1       
     2 = max # of 1-2 neighbors
     2 = max # of special neighbors
  special bonds CPU = 0.000 seconds
create_bonds single/bond 1 93 94
Finding 1-2 1-3 1-4 neighbors ...
  special bond factors lj:    0        1        1       
  special bond factors coul:  0        1        1       
     2 = max # of 1-2 neighbors
     2 = max # of special neighbors
  special bonds CPU = 0.000 seconds
create_bonds single/bond 1 94 95
Finding 1-2 1-3 1-4 neighbors ...
  special bond factors lj:    0        1        1       
  special bond factors coul:  0        1        1       
     2 = max # of 1-2 neighbors
     2 = max # of special neighbors
  special bonds CPU = 0.000 seconds
create_bonds single/bond 1 95 96
Finding 1-2 1-3 1-4 neighbors ...
  special bond factors lj:    0        1        1       
  special bond factors coul:  0        1        1       
     2 = max # of 1-2 neighbors
     2 = max # of special neighbors
  special bonds CPU = 0.000 seconds
create_bonds single/bond 1 96 97
Finding 1-2 1-3 1-4 neighbors ...
  special bond factors lj:    0        1        1       
  special bond factors coul:  0        1        1       
     2 = max # of 1-2 neighbors
     2 = max # of special neighbors
  special bonds CPU = 0.000 seconds
create_bonds single/bond 1 97 98
Finding 1-2 1-3 1-4 neighbors ...
  special bond factors lj:    0        1        1       
  special bond factors coul:  0        1        1       
     2 = max # of 1-2 neighbors
     2 = max # of special neighbors
  special bonds CPU = 0.000 seconds
create_bonds single/bond 1 98 99
Finding 1-2 1-3 1-4 neighbors ...
  special bond factors lj:    0        1        1       
  special bond factors coul:  0        1        1       
     2 = max # of 1-2 neighbors
     2 = max # of special neighbors
  special bonds CPU = 0.000 seconds
create_bonds single/bond 1 99 100
Finding 1-2 1-3 1-4 neighbors ...
  special bond factors lj:    0        1        1       
  special bond factors coul:  0        1        1       
     2 = max # of 1-2 neighbors
     2 = max # of special neighbors
  special bonds CPU = 0.000 seconds
create_bonds single/bond 1 100 101
Finding 1-2 1-3 1-4 neighbors ...
  special bond factors lj:    0        1        1       
  special bond factors coul:  0        1        1       
     2 = max # of 1-2 neighbors
     2 = max # of special neighbors
  special bonds CPU = 0.000 seconds
create_bonds single/bond 1 101 102
Finding 1-2 1-3 1-4 neighbors ...
  special bond factors lj:    0        1        1       
  special bond factors coul:  0        1        1       
     2 = max # of 1-2 neighbors
     2 = max # of special neighbors
  special bonds CPU = 0.000 seconds
create_bonds single/bond 1 102 103
Finding 1-2 1-3 1-4 neighbors ...
  special bond factors lj:    0        1        1       
  special bond factors coul:  0        1        1       
     2 = max # of 1-2 neighbors
     2 = max # of special neighbors
  special bonds CPU = 0.000 seconds
create_bonds single/bond 1 103 104
Finding 1-2 1-3 1-4 neighbors ...
  special bond factors lj:    0        1        1       
  special bond factors coul:  0        1        1       
     2 = max # of 1-2 neighbors
     2 = max # of special neighbors
  special bonds CPU = 0.000 seconds
create_bonds single/bond 1 104 105
Finding 1-2 1-3 1-4 neighbors ...
  special bond factors lj:    0        1        1       
  special bond factors coul:  0        1        1       
     2 = max # of 1-2 neighbors
     2 = max # of special neighbors
  special bonds CPU = 0.000 seconds
create_bonds single/bond 1 105 106
Finding 1-2 1-3 1-4 neighbors ...
  special bond factors lj:    0        1        1       
  special bond factors coul:  0        1        1       
     2 = max # of 1-2 neighbors
     2 = max # of special neighbors
  special bonds CPU = 0.000 seconds
create_bonds single/bond 1 106 107
Finding 1-2 1-3 1-4 neighbors ...
  special bond factors lj:    0        1        1       
  special bond factors coul:  0        1        1       
     2 = max # of 1-2 neighbors
     2 = max # of special neighbors
  special bonds CPU = 0.000 seconds
create_bonds single/bond 1 107 108
Finding 1-2 1-3 1-4 neighbors ...
  special bond factors lj:    0        1        1       
  special bond factors coul:  0        1        1       
     2 = max # of 1-2 neighbors
     2 = max # of special neighbors
  special bonds CPU = 0.000 seconds
create_bonds single/bond 1 108 109
Finding 1-2 1-3 1-4 neighbors ...
  special bond factors lj:    0        1        1       
  special bond factors coul:  0        1        1       
     2 = max # of 1-2 neighbors
     2 = max # of special neighbors
  special bonds CPU = 0.000 seconds
create_bonds single/bond 1 109 110
Finding 1-2 1-3 1-4 neighbors ...
  special bond factors lj:    0        1        1       
  special bond factors coul:  0        1        1       
     2 = max # of 1-2 neighbors
     2 = max # of special neighbors
  special bonds CPU = 0.000 seconds
create_bonds single/bond 1 110 111
Finding 1-2 1-3 1-4 neighbors ...
  special bond factors lj:    0        1        1       
  special bond factors coul:  0        1        1       
     2 = max # of 1-2 neighbors
     2 = max # of special neighbors
  special bonds CPU = 0.000 seconds
create_bonds single/bond 1 111 112
Finding 1-2 1-3 1-4 neighbors ...
  special bond factors lj:    0        1        1       
  special bond factors coul:  0        1        1       
     2 = max # of 1-2 neighbors
     2 = max # of special neighbors
  special bonds CPU = 0.000 seconds
create_bonds single/bond 1 112 113
Finding 1-2 1-3 1-4 neighbors ...
  special bond factors lj:    0        1        1       
  special bond factors coul:  0        1        1       
     2 = max # of 1-2 neighbors
     2 = max # of special neighbors
  special bonds CPU = 0.000 seconds
create_bonds single/bond 1 113 114
Finding 1-2 1-3 1-4 neighbors ...
  special bond factors lj:    0        1        1       
  special bond factors coul:  0        1        1       
     2 = max # of 1-2 neighbors
     2 = max # of special neighbors
  special bonds CPU = 0.000 seconds
create_bonds single/bond 1 114 115
Finding 1-2 1-3 1-4 neighbors ...
  special bond factors lj:    0        1        1       
  special bond factors coul:  0        1        1       
     2 = max # of 1-2 neighbors
     2 = max # of special neighbors
  special bonds CPU = 0.000 seconds
create_bonds single/bond 1 115 116
Finding 1-2 1-3 1-4 neighbors ...
  special bond factors lj:    0        1        1       
  special bond factors coul:  0        1        1       
     2 = max # of 1-2 neighbors
     2 = max # of special neighbors
  special bonds CPU = 0.000 seconds
create_bonds single/bond 1 116 117
Finding 1-2 1-3 1-4 neighbors ...
  special bond factors lj:    0        1        1       
  special bond factors coul:  0        1        1       
     2 = max # of 1-2 neighbors
     2 = max # of special neighbors
  special bonds CPU = 0.000 seconds
create_bonds single/bond 1 117 118
Finding 1-2 1-3 1-4 neighbors ...
  special bond factors lj:    0        1        1       
  special bond factors coul:  0        1        1       
     2 = max # of 1-2 neighbors
     2 = max # of special neighbors
  special bonds CPU = 0.000 seconds
create_bonds single/bond 1 118 119
Finding 1-2 1-3 1-4 neighbors ...
  special bond factors lj:    0        1        1       
  special bond factors coul:  0        1        1       
     2 = max # of 1-2 neighbors
     2 = max # of special neighbors
  special bonds CPU = 0.000 seconds
create_bonds single/bond 1 119 120
Finding 1-2 1-3 1-4 neighbors ...
  special bond factors lj:    0        1        1       
  special bond factors coul:  0        1        1       
     2 = max # of 1-2 neighbors
     2 = max # of special neighbors
  special bonds CPU = 0.000 seconds
create_bonds single/bond 1 120 121
Finding 1-2 1-3 1-4 neighbors ...
  special bond factors lj:    0        1        1       
  special bond factors coul:  0        1        1       
     2 = max # of 1-2 neighbors
     2 = max # of special neighbors
  special bonds CPU = 0.000 seconds
create_bonds single/bond 1 121 122
Finding 1-2 1-3 1-4 neighbors ...
  special bond factors lj:    0        1        1       
  special bond factors coul:  0        1        1       
     2 = max # of 1-2 neighbors
     2 = max # of special neighbors
  special bonds CPU = 0.000 seconds
create_bonds single/bond 1 122 123
Finding 1-2 1-3 1-4 neighbors ...
  special bond factors lj:    0        1        1       
  special bond factors coul:  0        1        1       
     2 = max # of 1-2 neighbors
     2 = max # of special neighbors
  special bonds CPU = 0.000 seconds
create_bonds single/bond 1 123 124
Finding 1-2 1-3 1-4 neighbors ...
  special bond factors lj:    0        1        1       
  special bond factors coul:  0        1        1       
     2 = max # of 1-2 neighbors
     2 = max # of special neighbors
  special bonds CPU = 0.000 seconds
create_bonds single/bond 1 124 125
Finding 1-2 1-3 1-4 neighbors ...
  special bond factors lj:    0        1        1       
  special bond factors coul:  0        1        1       
     2 = max # of 1-2 neighbors
     2 = max # of special neighbors
  special bonds CPU = 0.000 seconds
create_bonds single/bond 1 125 126
Finding 1-2 1-3 1-4 neighbors ...
  special bond factors lj:    0        1        1       
  special bond factors coul:  0        1        1       
     2 = max # of 1-2 neighbors
     2 = max # of special neighbors
  special bonds CPU = 0.000 seconds
create_bonds single/bond 1 126 127
Finding 1-2 1-3 1-4 neighbors ...
  special bond factors lj:    0        1        1       
  special bond factors coul:  0        1        1       
     2 = max # of 1-2 neighbors
     2 = max # of special neighbors
  special bonds CPU = 0.000 seconds
create_bonds single/bond 1 127 128
Finding 1-2 1-3 1-4 neighbors ...
  special bond factors lj:    0        1        1       
  special bond factors coul:  0        1        1       
     2 = max # of 1-2 neighbors
     2 = max # of special neighbors
  special bonds CPU = 0.000 seconds
create_bonds single/bond 1 128 129
Finding 1-2 1-3 1-4 neighbors ...
  special bond factors lj:    0        1        1       
  special bond factors coul:  0        1        1       
     2 = max # of 1-2 neighbors
     2 = max # of special neighbors
  special bonds CPU = 0.000 seconds
create_bonds single/bond 1 129 130
Finding 1-2 1-3 1-4 neighbors ...
  special bond factors lj:    0        1        1       
  special bond factors coul:  0        1        1       
     2 = max # of 1-2 neighbors
     2 = max # of special neighbors
  special bonds CPU = 0.000 seconds
create_bonds single/bond 1 130 131
Finding 1-2 1-3 1-4 neighbors ...
  special bond factors lj:    0        1        1       
  special bond factors coul:  0        1        1       
     2 = max # of 1-2 neighbors
     2 = max # of special neighbors
  special bonds CPU = 0.000 seconds
create_bonds single/bond 1 131 132
Finding 1-2 1-3 1-4 neighbors ...
  special bond factors lj:    0        1        1       
  special bond factors coul:  0        1        1       
     2 = max # of 1-2 neighbors
     2 = max # of special neighbors
  special bonds CPU = 0.000 seconds
create_bonds single/bond 1 132 133
Finding 1-2 1-3 1-4 neighbors ...
  special bond factors lj:    0        1        1       
  special bond factors coul:  0        1        1       
     2 = max # of 1-2 neighbors
     2 = max # of special neighbors
  special bonds CPU = 0.000 seconds
create_bonds single/bond 1 133 134
Finding 1-2 1-3 1-4 neighbors ...
  special bond factors lj:    0        1        1       
  special bond factors coul:  0        1        1       
     2 = max # of 1-2 neighbors
     2 = max # of special neighbors
  special bonds CPU = 0.000 seconds
create_bonds single/bond 1 134 135
Finding 1-2 1-3 1-4 neighbors ...
  special bond factors lj:    0        1        1       
  special bond factors coul:  0        1        1       
     2 = max # of 1-2 neighbors
     2 = max # of special neighbors
  special bonds CPU = 0.000 seconds
create_bonds single/bond 1 135 136
Finding 1-2 1-3 1-4 neighbors ...
  special bond factors lj:    0        1        1       
  special bond factors coul:  0        1        1       
     2 = max # of 1-2 neighbors
     2 = max # of special neighbors
  special bonds CPU = 0.000 seconds
create_bonds single/bond 1 136 137
Finding 1-2 1-3 1-4 neighbors ...
  special bond factors lj:    0        1        1       
  special bond factors coul:  0        1        1       
     2 = max # of 1-2 neighbors
     2 = max # of special neighbors
  special bonds CPU = 0.000 seconds
create_bonds single/bond 1 137 138
Finding 1-2 1-3 1-4 neighbors ...
  special bond factors lj:    0        1        1       
  special bond factors coul:  0        1        1       
     2 = max # of 1-2 neighbors
     2 = max # of special neighbors
  special bonds CPU = 0.000 seconds
create_bonds single/bond 1 138 139
Finding 1-2 1-3 1-4 neighbors ...
  special bond factors lj:    0        1        1       
  special bond factors coul:  0        1        1       
     2 = max # of 1-2 neighbors
     2 = max # of special neighbors
  special bonds CPU = 0.000 seconds
create_bonds single/bond 1 139 140
Finding 1-2 1-3 1-4 neighbors ...
  special bond factors lj:    0        1        1       
  special bond factors coul:  0        1        1       
     2 = max # of 1-2 neighbors
     2 = max # of special neighbors
  special bonds CPU = 0.000 seconds
create_bonds single/bond 1 140 141
Finding 1-2 1-3 1-4 neighbors ...
  special bond factors lj:    0        1        1       
  special bond factors coul:  0        1        1       
     2 = max # of 1-2 neighbors
     2 = max # of special neighbors
  special bonds CPU = 0.000 seconds
create_bonds single/bond 1 141 142
Finding 1-2 1-3 1-4 neighbors ...
  special bond factors lj:    0        1        1       
  special bond factors coul:  0        1        1       
     2 = max # of 1-2 neighbors
     2 = max # of special neighbors
  special bonds CPU = 0.000 seconds
create_bonds single/bond 1 142 143
Finding 1-2 1-3 1-4 neighbors ...
  special bond factors lj:    0        1        1       
  special bond factors coul:  0        1        1       
     2 = max # of 1-2 neighbors
     2 = max # of special neighbors
  special bonds CPU = 0.000 seconds
create_bonds single/bond 1 143 144
Finding 1-2 1-3 1-4 neighbors ...
  special bond factors lj:    0        1        1       
  special bond factors coul:  0        1        1       
     2 = max # of 1-2 neighbors
     2 = max # of special neighbors
  special bonds CPU = 0.000 seconds
create_bonds single/bond 1 144 145
Finding 1-2 1-3 1-4 neighbors ...
  special bond factors lj:    0        1        1       
  special bond factors coul:  0        1        1       
     2 = max # of 1-2 neighbors
     2 = max # of special neighbors
  special bonds CPU = 0.000 seconds
create_bonds single/bond 1 145 146
Finding 1-2 1-3 1-4 neighbors ...
  special bond factors lj:    0        1        1       
  special bond factors coul:  0        1        1       
     2 = max # of 1-2 neighbors
     2 = max # of special neighbors
  special bonds CPU = 0.000 seconds
create_bonds single/bond 1 146 147
Finding 1-2 1-3 1-4 neighbors ...
  special bond factors lj:    0        1        1       
  special bond factors coul:  0        1        1       
     2 = max # of 1-2 neighbors
     2 = max # of special neighbors
  special bonds CPU = 0.000 seconds
create_bonds single/bond 1 147 148
Finding 1-2 1-3 1-4 neighbors ...
  special bond factors lj:    0        1        1       
  special bond factors coul:  0        1        1       
     2 = max # of 1-2 neighbors
     2 = max # of special neighbors
  special bonds CPU = 0.000 seconds
create_bonds single/bond 1 148 149
Finding 1-2 1-3 1-4 neighbors ...
  special bond factors lj:    0        1        1       
  special bond factors coul:  0        1        1       
     2 = max # of 1-2 neighbors
     2 = max # of special neighbors
  special bonds CPU = 0.000 seconds
create_bonds single/bond 1 149 150
Finding 1-2 1-3 1-4 neighbors ...
  special bond factors lj:    0        1        1       
  special bond factors coul:  0        1        1       
     2 = max # of 1-2 neighbors
     2 = max # of special neighbors
  special bonds CPU = 0.000 seconds
create_bonds single/bond 1 150 151
Finding 1-2 1-3 1-4 neighbors ...
  special bond factors lj:    0        1        1       
  special bond factors coul:  0        1        1       
     2 = max # of 1-2 neighbors
     2 = max # of special neighbors
  special bonds CPU = 0.000 seconds
create_bonds single/bond 1 1 3
Finding 1-2 1-3 1-4 neighbors ...
  special bond factors lj:    0        1        1       
  special bond factors coul:  0        1        1       
     2 = max # of 1-2 neighbors
     2 = max # of special neighbors
  special bonds CPU = 0.000 seconds
create_bonds single/bond 1 151 2
Finding 1-2 1-3 1-4 neighbors ...
  special bond factors lj:    0        1        1       
  special bond factors coul:  0        1        1       
     2 = max # of 1-2 neighbors
     2 = max # of special neighbors
  special bonds CPU = 0.000 seconds
dihedral_coeff 2 3 0.0 1 0.0 1 1 90 0 1 90 0 0.0009600000000000001 0 0 0 1 180.0 1 0 0 0 0.0009600000000000001 0 0 0 0 0 0 1 180.0 1
include structure/dihedral_2.txt
create_bonds single/dihedral 2 1 3 4 5
Finding 1-2 1-3 1-4 neighbors ...
  special bond factors lj:    0        1        1       
  special bond factors coul:  0        1        1       
     2 = max # of 1-2 neighbors
     2 = max # of special neighbors
  special bonds CPU = 0.000 seconds
create_bonds single/dihedral 2 3 4 5 6
Finding 1-2 1-3 1-4 neighbors ...
  special bond factors lj:    0        1        1       
  special bond factors coul:  0        1        1       
     2 = max # of 1-2 neighbors
     2 = max # of special neighbors
  special bonds CPU = 0.000 seconds
create_bonds single/dihedral 2 4 5 6 7
Finding 1-2 1-3 1-4 neighbors ...
  special bond factors lj:    0        1        1       
  special bond factors coul:  0        1        1       
     2 = max # of 1-2 neighbors
     2 = max # of special neighbors
  special bonds CPU = 0.000 seconds
create_bonds single/dihedral 2 5 6 7 8
Finding 1-2 1-3 1-4 neighbors ...
  special bond factors lj:    0        1        1       
  special bond factors coul:  0        1        1       
     2 = max # of 1-2 neighbors
     2 = max # of special neighbors
  special bonds CPU = 0.000 seconds
create_bonds single/dihedral 2 6 7 8 9
Finding 1-2 1-3 1-4 neighbors ...
  special bond factors lj:    0        1        1       
  special bond factors coul:  0        1        1       
     2 = max # of 1-2 neighbors
     2 = max # of special neighbors
  special bonds CPU = 0.000 seconds
create_bonds single/dihedral 2 7 8 9 10
Finding 1-2 1-3 1-4 neighbors ...
  special bond factors lj:    0        1        1       
  special bond factors coul:  0        1        1       
     2 = max # of 1-2 neighbors
     2 = max # of special neighbors
  special bonds CPU = 0.000 seconds
create_bonds single/dihedral 2 8 9 10 11
Finding 1-2 1-3 1-4 neighbors ...
  special bond factors lj:    0        1        1       
  special bond factors coul:  0        1        1       
     2 = max # of 1-2 neighbors
     2 = max # of special neighbors
  special bonds CPU = 0.000 seconds
create_bonds single/dihedral 2 9 10 11 12
Finding 1-2 1-3 1-4 neighbors ...
  special bond factors lj:    0        1        1       
  special bond factors coul:  0        1        1       
     2 = max # of 1-2 neighbors
     2 = max # of special neighbors
  special bonds CPU = 0.000 seconds
create_bonds single/dihedral 2 10 11 12 13
Finding 1-2 1-3 1-4 neighbors ...
  special bond factors lj:    0        1        1       
  special bond factors coul:  0        1        1       
     2 = max # of 1-2 neighbors
     2 = max # of special neighbors
  special bonds CPU = 0.000 seconds
create_bonds single/dihedral 2 11 12 13 14
Finding 1-2 1-3 1-4 neighbors ...
  special bond factors lj:    0        1        1       
  special bond factors coul:  0        1        1       
     2 = max # of 1-2 neighbors
     2 = max # of special neighbors
  special bonds CPU = 0.000 seconds
create_bonds single/dihedral 2 12 13 14 15
Finding 1-2 1-3 1-4 neighbors ...
  special bond factors lj:    0        1        1       
  special bond factors coul:  0        1        1       
     2 = max # of 1-2 neighbors
     2 = max # of special neighbors
  special bonds CPU = 0.000 seconds
create_bonds single/dihedral 2 13 14 15 16
Finding 1-2 1-3 1-4 neighbors ...
  special bond factors lj:    0        1        1       
  special bond factors coul:  0        1        1       
     2 = max # of 1-2 neighbors
     2 = max # of special neighbors
  special bonds CPU = 0.000 seconds
create_bonds single/dihedral 2 14 15 16 17
Finding 1-2 1-3 1-4 neighbors ...
  special bond factors lj:    0        1        1       
  special bond factors coul:  0        1        1       
     2 = max # of 1-2 neighbors
     2 = max # of special neighbors
  special bonds CPU = 0.000 seconds
create_bonds single/dihedral 2 15 16 17 18
Finding 1-2 1-3 1-4 neighbors ...
  special bond factors lj:    0        1        1       
  special bond factors coul:  0        1        1       
     2 = max # of 1-2 neighbors
     2 = max # of special neighbors
  special bonds CPU = 0.000 seconds
create_bonds single/dihedral 2 16 17 18 19
Finding 1-2 1-3 1-4 neighbors ...
  special bond factors lj:    0        1        1       
  special bond factors coul:  0        1        1       
     2 = max # of 1-2 neighbors
     2 = max # of special neighbors
  special bonds CPU = 0.000 seconds
create_bonds single/dihedral 2 17 18 19 20
Finding 1-2 1-3 1-4 neighbors ...
  special bond factors lj:    0        1        1       
  special bond factors coul:  0        1        1       
     2 = max # of 1-2 neighbors
     2 = max # of special neighbors
  special bonds CPU = 0.000 seconds
create_bonds single/dihedral 2 18 19 20 21
Finding 1-2 1-3 1-4 neighbors ...
  special bond factors lj:    0        1        1       
  special bond factors coul:  0        1        1       
     2 = max # of 1-2 neighbors
     2 = max # of special neighbors
  special bonds CPU = 0.000 seconds
create_bonds single/dihedral 2 19 20 21 22
Finding 1-2 1-3 1-4 neighbors ...
  special bond factors lj:    0        1        1       
  special bond factors coul:  0        1        1       
     2 = max # of 1-2 neighbors
     2 = max # of special neighbors
  special bonds CPU = 0.000 seconds
create_bonds single/dihedral 2 20 21 22 23
Finding 1-2 1-3 1-4 neighbors ...
  special bond factors lj:    0        1        1       
  special bond factors coul:  0        1        1       
     2 = max # of 1-2 neighbors
     2 = max # of special neighbors
  special bonds CPU = 0.000 seconds
create_bonds single/dihedral 2 21 22 23 24
Finding 1-2 1-3 1-4 neighbors ...
  special bond factors lj:    0        1        1       
  special bond factors coul:  0        1        1       
     2 = max # of 1-2 neighbors
     2 = max # of special neighbors
[...]
  special bonds CPU = 0.000 seconds
create_bonds single/dihedral 2 92 93 94 95
Finding 1-2 1-3 1-4 neighbors ...
  special bond factors lj:    0        1        1       
  special bond factors coul:  0        1        1       
     2 = max # of 1-2 neighbors
     2 = max # of special neighbors
  special bonds CPU = 0.000 seconds
create_bonds single/dihedral 2 93 94 95 96
Finding 1-2 1-3 1-4 neighbors ...
  special bond factors lj:    0        1        1       
  special bond factors coul:  0        1        1       
     2 = max # of 1-2 neighbors
     2 = max # of special neighbors
  special bonds CPU = 0.000 seconds
create_bonds single/dihedral 2 94 95 96 97
Finding 1-2 1-3 1-4 neighbors ...
  special bond factors lj:    0        1        1       
  special bond factors coul:  0        1        1       
     2 = max # of 1-2 neighbors
     2 = max # of special neighbors
  special bonds CPU = 0.000 seconds
create_bonds single/dihedral 2 95 96 97 98
Finding 1-2 1-3 1-4 neighbors ...
  special bond factors lj:    0        1        1       
  special bond factors coul:  0        1        1       
     2 = max # of 1-2 neighbors
     2 = max # of special neighbors
  special bonds CPU = 0.000 seconds
create_bonds single/dihedral 2 96 97 98 99
Finding 1-2 1-3 1-4 neighbors ...
  special bond factors lj:    0        1        1       
  special bond factors coul:  0        1        1       
     2 = max # of 1-2 neighbors
     2 = max # of special neighbors
  special bonds CPU = 0.000 seconds
create_bonds single/dihedral 2 97 98 99 100
Finding 1-2 1-3 1-4 neighbors ...
  special bond factors lj:    0        1        1       
  special bond factors coul:  0        1        1       
     2 = max # of 1-2 neighbors
     2 = max # of special neighbors
  special bonds CPU = 0.000 seconds
create_bonds single/dihedral 2 98 99 100 101
Finding 1-2 1-3 1-4 neighbors ...
  special bond factors lj:    0        1        1       
  special bond factors coul:  0        1        1       
     2 = max # of 1-2 neighbors
     2 = max # of special neighbors
  special bonds CPU = 0.000 seconds
create_bonds single/dihedral 2 99 100 101 102
Finding 1-2 1-3 1-4 neighbors ...
  special bond factors lj:    0        1        1       
  special bond factors coul:  0        1        1       
     2 = max # of 1-2 neighbors
     2 = max # of special neighbors
  special bonds CPU = 0.000 seconds
create_bonds single/dihedral 2 100 101 102 103
Finding 1-2 1-3 1-4 neighbors ...
  special bond factors lj:    0        1        1       
  special bond factors coul:  0        1        1       
     2 = max # of 1-2 neighbors
     2 = max # of special neighbors
  special bonds CPU = 0.000 seconds
create_bonds single/dihedral 2 101 102 103 104
Finding 1-2 1-3 1-4 neighbors ...
  special bond factors lj:    0        1        1       
  special bond factors coul:  0        1        1       
     2 = max # of 1-2 neighbors
     2 = max # of special neighbors
  special bonds CPU = 0.000 seconds
create_bonds single/dihedral 2 102 103 104 105
Finding 1-2 1-3 1-4 neighbors ...
  special bond factors lj:    0        1        1       
  special bond factors coul:  0        1        1       
     2 = max # of 1-2 neighbors
     2 = max # of special neighbors
  special bonds CPU = 0.000 seconds
create_bonds single/dihedral 2 103 104 105 106
Finding 1-2 1-3 1-4 neighbors ...
  special bond factors lj:    0        1        1       
  special bond factors coul:  0        1        1       
     2 = max # of 1-2 neighbors
     2 = max # of special neighbors
  special bonds CPU = 0.000 seconds
create_bonds single/dihedral 2 104 105 106 107
Finding 1-2 1-3 1-4 neighbors ...
  special bond factors lj:    0        1        1       
  special bond factors coul:  0        1        1       
     2 = max # of 1-2 neighbors
     2 = max # of special neighbors
  special bonds CPU = 0.000 seconds
create_bonds single/dihedral 2 105 106 107 108
Finding 1-2 1-3 1-4 neighbors ...
  special bond factors lj:    0        1        1       
  special bond factors coul:  0        1        1       
     2 = max # of 1-2 neighbors
     2 = max # of special neighbors
  special bonds CPU = 0.000 seconds
create_bonds single/dihedral 2 106 107 108 109
Finding 1-2 1-3 1-4 neighbors ...
  special bond factors lj:    0        1        1       
  special bond factors coul:  0        1        1       
     2 = max # of 1-2 neighbors
     2 = max # of special neighbors
  special bonds CPU = 0.000 seconds
create_bonds single/dihedral 2 107 108 109 110
Finding 1-2 1-3 1-4 neighbors ...
  special bond factors lj:    0        1        1       
  special bond factors coul:  0        1        1       
     2 = max # of 1-2 neighbors
     2 = max # of special neighbors
  special bonds CPU = 0.000 seconds
create_bonds single/dihedral 2 108 109 110 111
Finding 1-2 1-3 1-4 neighbors ...
  special bond factors lj:    0        1        1       
  special bond factors coul:  0        1        1       
     2 = max # of 1-2 neighbors
     2 = max # of special neighbors
  special bonds CPU = 0.000 seconds
create_bonds single/dihedral 2 109 110 111 112
Finding 1-2 1-3 1-4 neighbors ...
  special bond factors lj:    0        1        1       
  special bond factors coul:  0        1        1       
     2 = max # of 1-2 neighbors
     2 = max # of special neighbors
  special bonds CPU = 0.000 seconds
create_bonds single/dihedral 2 110 111 112 113
Finding 1-2 1-3 1-4 neighbors ...
  special bond factors lj:    0        1        1       
  special bond factors coul:  0        1        1       
     2 = max # of 1-2 neighbors
     2 = max # of special neighbors
  special bonds CPU = 0.000 seconds
create_bonds single/dihedral 2 111 112 113 114
Finding 1-2 1-3 1-4 neighbors ...
  special bond factors lj:    0        1        1       
  special bond factors coul:  0        1        1       
     2 = max # of 1-2 neighbors
     2 = max # of special neighbors
  special bonds CPU = 0.000 seconds
create_bonds single/dihedral 2 112 113 114 115
Finding 1-2 1-3 1-4 neighbors ...
  special bond factors lj:    0        1        1       
  special bond factors coul:  0        1        1       
     2 = max # of 1-2 neighbors
     2 = max # of special neighbors
  special bonds CPU = 0.000 seconds
create_bonds single/dihedral 2 113 114 115 116
Finding 1-2 1-3 1-4 neighbors ...
  special bond factors lj:    0        1        1       
  special bond factors coul:  0        1        1       
     2 = max # of 1-2 neighbors
     2 = max # of special neighbors
  special bonds CPU = 0.000 seconds
create_bonds single/dihedral 2 114 115 116 117
Finding 1-2 1-3 1-4 neighbors ...
  special bond factors lj:    0        1        1       
  special bond factors coul:  0        1        1       
     2 = max # of 1-2 neighbors
     2 = max # of special neighbors
  special bonds CPU = 0.000 seconds
create_bonds single/dihedral 2 115 116 117 118
Finding 1-2 1-3 1-4 neighbors ...
  special bond factors lj:    0        1        1       
  special bond factors coul:  0        1        1       
     2 = max # of 1-2 neighbors
     2 = max # of special neighbors
  special bonds CPU = 0.000 seconds
create_bonds single/dihedral 2 116 117 118 119
Finding 1-2 1-3 1-4 neighbors ...
  special bond factors lj:    0        1        1       
  special bond factors coul:  0        1        1       
     2 = max # of 1-2 neighbors
     2 = max # of special neighbors
  special bonds CPU = 0.000 seconds
create_bonds single/dihedral 2 117 118 119 120
Finding 1-2 1-3 1-4 neighbors ...
  special bond factors lj:    0        1        1       
  special bond factors coul:  0        1        1       
     2 = max # of 1-2 neighbors
     2 = max # of special neighbors
  special bonds CPU = 0.000 seconds
create_bonds single/dihedral 2 118 119 120 121
Finding 1-2 1-3 1-4 neighbors ...
  special bond factors lj:    0        1        1       
  special bond factors coul:  0        1        1       
     2 = max # of 1-2 neighbors
     2 = max # of special neighbors
  special bonds CPU = 0.000 seconds
create_bonds single/dihedral 2 119 120 121 122
Finding 1-2 1-3 1-4 neighbors ...
  special bond factors lj:    0        1        1       
  special bond factors coul:  0        1        1       
     2 = max # of 1-2 neighbors
     2 = max # of special neighbors
  special bonds CPU = 0.000 seconds
create_bonds single/dihedral 2 120 121 122 123
Finding 1-2 1-3 1-4 neighbors ...
  special bond factors lj:    0        1        1       
  special bond factors coul:  0        1        1       
     2 = max # of 1-2 neighbors
     2 = max # of special neighbors
  special bonds CPU = 0.000 seconds
create_bonds single/dihedral 2 121 122 123 124
Finding 1-2 1-3 1-4 neighbors ...
  special bond factors lj:    0        1        1       
  special bond factors coul:  0        1        1       
     2 = max # of 1-2 neighbors
     2 = max # of special neighbors
  special bonds CPU = 0.000 seconds
create_bonds single/dihedral 2 122 123 124 125
Finding 1-2 1-3 1-4 neighbors ...
  special bond factors lj:    0        1        1       
  special bond factors coul:  0        1        1       
     2 = max # of 1-2 neighbors
     2 = max # of special neighbors
  special bonds CPU = 0.000 seconds
create_bonds single/dihedral 2 123 124 125 126
Finding 1-2 1-3 1-4 neighbors ...
  special bond factors lj:    0        1        1       
  special bond factors coul:  0        1        1       
     2 = max # of 1-2 neighbors
     2 = max # of special neighbors
  special bonds CPU = 0.000 seconds
create_bonds single/dihedral 2 124 125 126 127
Finding 1-2 1-3 1-4 neighbors ...
  special bond factors lj:    0        1        1       
  special bond factors coul:  0        1        1       
     2 = max # of 1-2 neighbors
     2 = max # of special neighbors
  special bonds CPU = 0.000 seconds
create_bonds single/dihedral 2 125 126 127 128
Finding 1-2 1-3 1-4 neighbors ...
  special bond factors lj:    0        1        1       
  special bond factors coul:  0        1        1       
     2 = max # of 1-2 neighbors
     2 = max # of special neighbors
  special bonds CPU = 0.000 seconds
create_bonds single/dihedral 2 126 127 128 129
Finding 1-2 1-3 1-4 neighbors ...
  special bond factors lj:    0        1        1       
  special bond factors coul:  0        1        1       
     2 = max # of 1-2 neighbors
     2 = max # of special neighbors
  special bonds CPU = 0.000 seconds
create_bonds single/dihedral 2 127 128 129 130
Finding 1-2 1-3 1-4 neighbors ...
  special bond factors lj:    0        1        1       
  special bond factors coul:  0        1        1       
     2 = max # of 1-2 neighbors
     2 = max # of special neighbors
  special bonds CPU = 0.000 seconds
create_bonds single/dihedral 2 128 129 130 131
Finding 1-2 1-3 1-4 neighbors ...
  special bond factors lj:    0        1        1       
  special bond factors coul:  0        1        1       
     2 = max # of 1-2 neighbors
     2 = max # of special neighbors
  special bonds CPU = 0.000 seconds
create_bonds single/dihedral 2 129 130 131 132
Finding 1-2 1-3 1-4 neighbors ...
  special bond factors lj:    0        1        1       
  special bond factors coul:  0        1        1       
     2 = max # of 1-2 neighbors
     2 = max # of special neighbors
  special bonds CPU = 0.000 seconds
create_bonds single/dihedral 2 130 131 132 133
Finding 1-2 1-3 1-4 neighbors ...
  special bond factors lj:    0        1        1       
  special bond factors coul:  0        1        1       
     2 = max # of 1-2 neighbors
     2 = max # of special neighbors
  special bonds CPU = 0.000 seconds
create_bonds single/dihedral 2 131 132 133 134
Finding 1-2 1-3 1-4 neighbors ...
  special bond factors lj:    0        1        1       
  special bond factors coul:  0        1        1       
     2 = max # of 1-2 neighbors
     2 = max # of special neighbors
  special bonds CPU = 0.000 seconds
create_bonds single/dihedral 2 132 133 134 135
Finding 1-2 1-3 1-4 neighbors ...
  special bond factors lj:    0        1        1       
  special bond factors coul:  0        1        1       
     2 = max # of 1-2 neighbors
     2 = max # of special neighbors
  special bonds CPU = 0.000 seconds
create_bonds single/dihedral 2 133 134 135 136
Finding 1-2 1-3 1-4 neighbors ...
  special bond factors lj:    0        1        1       
  special bond factors coul:  0        1        1       
     2 = max # of 1-2 neighbors
     2 = max # of special neighbors
  special bonds CPU = 0.000 seconds
create_bonds single/dihedral 2 134 135 136 137
Finding 1-2 1-3 1-4 neighbors ...
  special bond factors lj:    0        1        1       
  special bond factors coul:  0        1        1       
     2 = max # of 1-2 neighbors
     2 = max # of special neighbors
  special bonds CPU = 0.000 seconds
create_bonds single/dihedral 2 135 136 137 138
Finding 1-2 1-3 1-4 neighbors ...
  special bond factors lj:    0        1        1       
  special bond factors coul:  0        1        1       
     2 = max # of 1-2 neighbors
     2 = max # of special neighbors
  special bonds CPU = 0.000 seconds
create_bonds single/dihedral 2 136 137 138 139
Finding 1-2 1-3 1-4 neighbors ...
  special bond factors lj:    0        1        1       
  special bond factors coul:  0        1        1       
     2 = max # of 1-2 neighbors
     2 = max # of special neighbors
  special bonds CPU = 0.000 seconds
create_bonds single/dihedral 2 137 138 139 140
Finding 1-2 1-3 1-4 neighbors ...
  special bond factors lj:    0        1        1       
  special bond factors coul:  0        1        1       
     2 = max # of 1-2 neighbors
     2 = max # of special neighbors
  special bonds CPU = 0.000 seconds
create_bonds single/dihedral 2 138 139 140 141
Finding 1-2 1-3 1-4 neighbors ...
  special bond factors lj:    0        1        1       
  special bond factors coul:  0        1        1       
     2 = max # of 1-2 neighbors
     2 = max # of special neighbors
  special bonds CPU = 0.000 seconds
create_bonds single/dihedral 2 139 140 141 142
Finding 1-2 1-3 1-4 neighbors ...
  special bond factors lj:    0        1        1       
  special bond factors coul:  0        1        1       
     2 = max # of 1-2 neighbors
     2 = max # of special neighbors
  special bonds CPU = 0.000 seconds
create_bonds single/dihedral 2 140 141 142 143
Finding 1-2 1-3 1-4 neighbors ...
  special bond factors lj:    0        1        1       
  special bond factors coul:  0        1        1       
     2 = max # of 1-2 neighbors
     2 = max # of special neighbors
  special bonds CPU = 0.000 seconds
create_bonds single/dihedral 2 141 142 143 144
Finding 1-2 1-3 1-4 neighbors ...
  special bond factors lj:    0        1        1       
  special bond factors coul:  0        1        1       
     2 = max # of 1-2 neighbors
     2 = max # of special neighbors
  special bonds CPU = 0.000 seconds
create_bonds single/dihedral 2 142 143 144 145
Finding 1-2 1-3 1-4 neighbors ...
  special bond factors lj:    0        1        1       
  special bond factors coul:  0        1        1       
     2 = max # of 1-2 neighbors
     2 = max # of special neighbors
  special bonds CPU = 0.000 seconds
create_bonds single/dihedral 2 143 144 145 146
Finding 1-2 1-3 1-4 neighbors ...
  special bond factors lj:    0        1        1       
  special bond factors coul:  0        1        1       
     2 = max # of 1-2 neighbors
     2 = max # of special neighbors
  special bonds CPU = 0.000 seconds
create_bonds single/dihedral 2 144 145 146 147
Finding 1-2 1-3 1-4 neighbors ...
  special bond factors lj:    0        1        1       
  special bond factors coul:  0        1        1       
     2 = max # of 1-2 neighbors
     2 = max # of special neighbors
  special bonds CPU = 0.000 seconds
create_bonds single/dihedral 2 145 146 147 148
Finding 1-2 1-3 1-4 neighbors ...
  special bond factors lj:    0        1        1       
  special bond factors coul:  0        1        1       
     2 = max # of 1-2 neighbors
     2 = max # of special neighbors
  special bonds CPU = 0.000 seconds
create_bonds single/dihedral 2 146 147 148 149
Finding 1-2 1-3 1-4 neighbors ...
  special bond factors lj:    0        1        1       
  special bond factors coul:  0        1        1       
     2 = max # of 1-2 neighbors
     2 = max # of special neighbors
  special bonds CPU = 0.000 seconds
create_bonds single/dihedral 2 147 148 149 150
Finding 1-2 1-3 1-4 neighbors ...
  special bond factors lj:    0        1        1       
  special bond factors coul:  0        1        1       
     2 = max # of 1-2 neighbors
     2 = max # of special neighbors
  special bonds CPU = 0.000 seconds
create_bonds single/dihedral 2 148 149 150 151
Finding 1-2 1-3 1-4 neighbors ...
  special bond factors lj:    0        1        1       
  special bond factors coul:  0        1        1       
     2 = max # of 1-2 neighbors
     2 = max # of special neighbors
  special bonds CPU = 0.000 seconds
create_bonds single/dihedral 2 149 150 151 2
Finding 1-2 1-3 1-4 neighbors ...
  special bond factors lj:    0        1        1       
  special bond factors coul:  0        1        1       
     2 = max # of 1-2 neighbors
     2 = max # of special neighbors
  special bonds CPU = 0.000 seconds

group group_move_4 id 2
1 atoms in group group_move_4
fix fix_move_4 group_move_4 move linear 0 0 -0.010000000000000002

fix fix_viscosity_1 all viscous 2e-07

compute bendingE all pe/atom angle
compute stretchingE all pe/atom bond
dump pump all custom 1 raw/out*.dump id type radius x y z fx fy fz c_bendingE c_stretchingE
dump_modify pump pad 11

timestep 1e-07
dump_modify pump every 100000
run 10000000
Generated 0 of 4950 mixed pair_coeff terms from geometric mixing rule
WARNING: One or more atoms are time integrated more than once (src/src/modify.cpp:296)
Neighbor list info ...
  update: every = 1 steps, delay = 0 steps, check = yes
  max neighbors/atom: 50000, page size: 500000
  master list distance cutoff = 0.003
  ghost atom cutoff = 0.01
  binsize = 0.0015, bins = 74 8 34
  2 neighbor lists, perpetual/occasional/extra = 2 0 0
  (1) pair granular, perpetual
      attributes: half, newton on, size
      pair build: half/size/bin/newton
      stencil: half/bin/3d
      bin: standard
  (2) pair lj/cut, perpetual
      attributes: half, newton on
      pair build: half/bin/newton
      stencil: half/bin/3d
      bin: standard
Per MPI rank memory allocation (min/avg/max) = 82.13 | 82.13 | 82.13 Mbytes
   Step          Temp          E_pair         E_mol          TotEng         Press     
         0   0              0              1.1839504e-29  1.1839504e-29  0.046078585  
  10000000   6.3669313e+11  0              5.6429094e-06  5.6448872e-06 -10.044829    
Loop time of 701.569 on 1 procs for 10000000 steps with 151 atoms

99.9% CPU use with 1 MPI tasks x 1 OpenMP threads

MPI task timing breakdown:
Section |  min time  |  avg time  |  max time  |%varavg| %total
---------------------------------------------------------------
Pair    | 204.7      | 204.7      | 204.7      |   0.0 | 29.18
Bond    | 412.12     | 412.12     | 412.12     |   0.0 | 58.74
Neigh   | 0.0051472  | 0.0051472  | 0.0051472  |   0.0 |  0.00
Comm    | 0.79089    | 0.79089    | 0.79089    |   0.0 |  0.11
Output  | 0.58752    | 0.58752    | 0.58752    |   0.0 |  0.08
Modify  | 76.581     | 76.581     | 76.581     |   0.0 | 10.92
Other   |            | 6.788      |            |       |  0.97

Nlocal:            151 ave         151 max         151 min
Histogram: 1 0 0 0 0 0 0 0 0 0
Nghost:              0 ave           0 max           0 min
Histogram: 1 0 0 0 0 0 0 0 0 0
Neighs:            444 ave         444 max         444 min
Histogram: 1 0 0 0 0 0 0 0 0 0

Total # of neighbors = 444
Ave neighs/atom = 2.9403974
Ave special neighs/atom = 1.986755
Neighbor list builds = 19
Dangerous builds = 0
Total wall time: 0:11:41
