LAMMPS (29 Aug 2024 - Update 1)
  using 1 OpenMP thread(s) per MPI task
atom_style hybrid molecular sphere
WARNING: Atom style hybrid defines both, per-type and per-atom masses; both must be set, but only per-atom masses will be used (src/src/atom_vec_hybrid.cpp:132)
units si
processors	* * 1
comm_modify vel yes
comm_modify cutoff 0.01

region simulationStation block -0.060000000000000005 0.060000000000000005 -0.006 0.006 -0.055 0.055
create_box 100 simulationStation bond/types 100000 extra/bond/per/atom 100 angle/types 10000 extra/angle/per/atom 100 dihedral/types 1000 extra/dihedral/per/atom 100
Created orthogonal box = (-0.06 -0.006 -0.055) to (0.06 0.006 0.055)
  1 by 1 by 1 MPI processor grid
change_box	all boundary f f f
Changing box ...

pair_style hybrid/overlay granular lj/cut 0
pair_coeff  * * granular hertz/material 0 0 0 tangential linear_nohistory 0 0
pair_coeff  * * lj/cut 0 0 0

special_bonds lj/coul 0 1.0 1.0
Finding 1-2 1-3 1-4 neighbors ...
  special bond factors lj:    0        1        1       
  special bond factors coul:  0        1        1       
     0 = max # of 1-2 neighbors
     1 = max # of special neighbors
  special bonds CPU = 0.000 seconds
bond_style harmonic
angle_style cosine/shift
dihedral_style spherical

bond_coeff * 0 0
angle_coeff * 0 0
dihedral_coeff * 1 0 1 0 1 1 90 0 1 90 0
fix integration all nve/sphere
neigh_modify page 500000 one 50000


### Here we will begin to include particles ###


fix fix_walls_1 all wall/gran/region granular hertz/material 10000 0.25 0.25 tangential linear_nohistory 0 0 region simulationStation
pair_coeff * * granular hertz/material 10000 0 0.5 tangential linear_nohistory 0 0

include structure/node_1.txt
create_atoms 1 single -0.05 0.0 0.05
Created 1 atoms
  using lattice units in orthogonal box = (-0.06 -0.006 -0.055) to (0.06 0.006 0.055)
  create_atoms CPU = 0.000 seconds
set type 1 diameter 0.002
Setting atom values ...
  1 settings made for diameter
set type 1 density 0.5
Setting atom values ...
  1 settings made for density

include structure/node_2.txt
create_atoms 2 single -0.05 -4.3117471020172245e-17 -0.05
Created 1 atoms
  using lattice units in orthogonal box = (-0.06 -0.006 -0.055) to (0.06 0.006 0.055)
  create_atoms CPU = 0.002 seconds
set type 2 diameter 0.002
Setting atom values ...
  1 settings made for diameter
set type 2 density 0.5
Setting atom values ...
  1 settings made for density

include structure/node_3.txt
create_atoms 3 single -0.030000000000000002 0.0 0.05
Created 1 atoms
  using lattice units in orthogonal box = (-0.06 -0.006 -0.055) to (0.06 0.006 0.055)
  create_atoms CPU = 0.000 seconds
set type 3 diameter 0.002
Setting atom values ...
  1 settings made for diameter
set type 3 density 0.5
Setting atom values ...
  1 settings made for density

include structure/node_4.txt
create_atoms 4 single -0.030000000000000002 -4.3117471020172245e-17 -0.05
Created 1 atoms
  using lattice units in orthogonal box = (-0.06 -0.006 -0.055) to (0.06 0.006 0.055)
  create_atoms CPU = 0.000 seconds
set type 4 diameter 0.002
Setting atom values ...
  1 settings made for diameter
set type 4 density 0.5
Setting atom values ...
  1 settings made for density

include structure/node_5.txt
create_atoms 5 single -0.010000000000000002 0.0 0.05
Created 1 atoms
  using lattice units in orthogonal box = (-0.06 -0.006 -0.055) to (0.06 0.006 0.055)
  create_atoms CPU = 0.000 seconds
set type 5 diameter 0.002
Setting atom values ...
  1 settings made for diameter
set type 5 density 0.5
Setting atom values ...
  1 settings made for density

include structure/node_6.txt
create_atoms 6 single -0.010000000000000002 -4.3117471020172245e-17 -0.05
Created 1 atoms
  using lattice units in orthogonal box = (-0.06 -0.006 -0.055) to (0.06 0.006 0.055)
  create_atoms CPU = 0.000 seconds
set type 6 diameter 0.002
Setting atom values ...
  1 settings made for diameter
set type 6 density 0.5
Setting atom values ...
  1 settings made for density

include structure/node_7.txt
create_atoms 7 single 0.009999999999999998 0.0 0.05
Created 1 atoms
  using lattice units in orthogonal box = (-0.06 -0.006 -0.055) to (0.06 0.006 0.055)
  create_atoms CPU = 0.000 seconds
set type 7 diameter 0.002
Setting atom values ...
  1 settings made for diameter
set type 7 density 0.5
Setting atom values ...
  1 settings made for density

include structure/node_8.txt
create_atoms 8 single 0.009999999999999998 -4.3117471020172245e-17 -0.05
Created 1 atoms
  using lattice units in orthogonal box = (-0.06 -0.006 -0.055) to (0.06 0.006 0.055)
  create_atoms CPU = 0.000 seconds
set type 8 diameter 0.002
Setting atom values ...
  1 settings made for diameter
set type 8 density 0.5
Setting atom values ...
  1 settings made for density

include structure/node_9.txt
create_atoms 9 single 0.03 0.0 0.05
Created 1 atoms
  using lattice units in orthogonal box = (-0.06 -0.006 -0.055) to (0.06 0.006 0.055)
  create_atoms CPU = 0.000 seconds
set type 9 diameter 0.002
Setting atom values ...
  1 settings made for diameter
set type 9 density 0.5
Setting atom values ...
  1 settings made for density

include structure/node_10.txt
create_atoms 10 single 0.03 -4.3117471020172245e-17 -0.05
Created 1 atoms
  using lattice units in orthogonal box = (-0.06 -0.006 -0.055) to (0.06 0.006 0.055)
  create_atoms CPU = 0.000 seconds
set type 10 diameter 0.002
Setting atom values ...
  1 settings made for diameter
set type 10 density 0.5
Setting atom values ...
  1 settings made for density

include structure/element_11.txt
create_atoms 11 single -0.050124344484748805 0.0009895930108397976 0.049734748010610084
Created 1 atoms
  using lattice units in orthogonal box = (-0.06 -0.006 -0.055) to (0.06 0.006 0.055)
  create_atoms CPU = 0.000 seconds
create_atoms 11 single -0.05048964716355149 0.0019176608051576494 0.04946949602122016
Created 1 atoms
  using lattice units in orthogonal box = (-0.06 -0.006 -0.055) to (0.06 0.006 0.055)
  create_atoms CPU = 0.000 seconds
create_atoms 11 single -0.05107319634972152 0.0027265033271053505 0.04920424403183024
Created 1 atoms
  using lattice units in orthogonal box = (-0.06 -0.006 -0.055) to (0.06 0.006 0.055)
  create_atoms CPU = 0.000 seconds
create_atoms 11 single -0.05183871148181894 0.003365833023365646 0.04893899204244032
Created 1 atoms
  using lattice units in orthogonal box = (-0.06 -0.006 -0.055) to (0.06 0.006 0.055)
  create_atoms CPU = 0.000 seconds
create_atoms 11 single -0.052738598767509734 0.0037959013331054893 0.0486737400530504
Created 1 atoms
  using lattice units in orthogonal box = (-0.06 -0.006 -0.055) to (0.06 0.006 0.055)
  create_atoms CPU = 0.000 seconds
create_atoms 11 single -0.053716910196358277 0.003989969945134185 0.04840848806366048
Created 1 atoms
  using lattice units in orthogonal box = (-0.06 -0.006 -0.055) to (0.06 0.006 0.055)
  create_atoms CPU = 0.000 seconds
create_atoms 11 single -0.05471282195309255 0.003935973178667421 0.04814323607427056
Created 1 atoms
  using lattice units in orthogonal box = (-0.06 -0.006 -0.055) to (0.06 0.006 0.055)
  create_atoms CPU = 0.000 seconds
create_atoms 11 single -0.05566441597058937 0.003637268133757404 0.04787798408488064
Created 1 atoms
  using lattice units in orthogonal box = (-0.06 -0.006 -0.055) to (0.06 0.006 0.055)
  create_atoms CPU = 0.000 seconds
create_atoms 11 single -0.05651252951495087 0.003112425972854736 0.04761273209549072
Created 1 atoms
  using lattice units in orthogonal box = (-0.06 -0.006 -0.055) to (0.06 0.006 0.055)
  create_atoms CPU = 0.000 seconds
create_atoms 11 single -0.05720443346533602 0.00239407730999536 0.0473474801061008
Created 1 atoms
  using lattice units in orthogonal box = (-0.06 -0.006 -0.055) to (0.06 0.006 0.055)
  create_atoms CPU = 0.000 seconds
create_atoms 11 single -0.05769711060164165 0.0015268834923559003 0.04708222811671088
Created 1 atoms
  using lattice units in orthogonal box = (-0.06 -0.006 -0.055) to (0.06 0.006 0.055)
  create_atoms CPU = 0.000 seconds
create_atoms 11 single -0.05795993008153705 0.0005647599041522135 0.046816976127320956
Created 1 atoms
  using lattice units in orthogonal box = (-0.06 -0.006 -0.055) to (0.06 0.006 0.055)
  create_atoms CPU = 0.000 seconds
create_atoms 11 single -0.05797655182861744 -0.000432476073695765 0.04655172413793104
Created 1 atoms
  using lattice units in orthogonal box = (-0.06 -0.006 -0.055) to (0.06 0.006 0.055)
  create_atoms CPU = 0.000 seconds
create_atoms 11 single -0.057745942431594664 -0.0014028240442688028 0.04628647214854112
Created 1 atoms
  using lattice units in orthogonal box = (-0.06 -0.006 -0.055) to (0.06 0.006 0.055)
  create_atoms CPU = 0.000 seconds
create_atoms 11 single -0.05728243939379423 -0.002285955298352921 0.046021220159151194
Created 1 atoms
  using lattice units in orthogonal box = (-0.06 -0.006 -0.055) to (0.06 0.006 0.055)
  create_atoms CPU = 0.000 seconds
create_atoms 11 single -0.056614859738423534 -0.0030269635855707964 0.045755968169761276
Created 1 atoms
  using lattice units in orthogonal box = (-0.06 -0.006 -0.055) to (0.06 0.006 0.055)
  create_atoms CPU = 0.000 seconds
create_atoms 11 single -0.05578470838962051 -0.003579778759088076 0.04549071618037136
Created 1 atoms
  using lattice units in orthogonal box = (-0.06 -0.006 -0.055) to (0.06 0.006 0.055)
  create_atoms CPU = 0.000 seconds
create_atoms 11 single -0.05484359771825038 -0.003910031059948599 0.04522546419098143
Created 1 atoms
  using lattice units in orthogonal box = (-0.06 -0.006 -0.055) to (0.06 0.006 0.055)
  create_atoms CPU = 0.000 seconds
create_atoms 11 single -0.05385003868507468 -0.0039971879620585606 0.044960212201591514
Created 1 atoms
  using lattice units in orthogonal box = (-0.06 -0.006 -0.055) to (0.06 0.006 0.055)
  create_atoms CPU = 0.000 seconds
create_atoms 11 single -0.052865803083117315 -0.0038358307253753784 0.044694960212201595
Created 1 atoms
  using lattice units in orthogonal box = (-0.06 -0.006 -0.055) to (0.06 0.006 0.055)
  create_atoms CPU = 0.000 seconds
create_atoms 11 single -0.051952083046776676 -0.003435991291126983 0.04442970822281167
Created 1 atoms
  using lattice units in orthogonal box = (-0.06 -0.006 -0.055) to (0.06 0.006 0.055)
  create_atoms CPU = 0.000 seconds
create_atoms 11 single -0.05116568659961448 -0.0028225285735303095 0.04416445623342175
Created 1 atoms
  using lattice units in orthogonal box = (-0.06 -0.006 -0.055) to (0.06 0.006 0.055)
  create_atoms CPU = 0.000 seconds
create_atoms 11 single -0.05055550577214606 -0.002033582925351434 0.043899204244031834
Created 1 atoms
  using lattice units in orthogonal box = (-0.06 -0.006 -0.055) to (0.06 0.006 0.055)
  create_atoms CPU = 0.000 seconds
create_atoms 11 single -0.05015947687466901 -0.001118204866649164 0.04363395225464191
Created 1 atoms
  using lattice units in orthogonal box = (-0.06 -0.006 -0.055) to (0.06 0.006 0.055)
  create_atoms CPU = 0.000 seconds
create_atoms 11 single -0.05000222191178453 -0.00013330550395335418 0.04336870026525199
Created 1 atoms
  using lattice units in orthogonal box = (-0.06 -0.006 -0.055) to (0.06 0.006 0.055)
  create_atoms CPU = 0.000 seconds
create_atoms 11 single -0.05009351777715965 0.0008598817608440922 0.04310344827586207
Created 1 atoms
  using lattice units in orthogonal box = (-0.06 -0.006 -0.055) to (0.06 0.006 0.055)
  create_atoms CPU = 0.000 seconds
create_atoms 11 single -0.0504276884021245 0.0017996082483930091 0.042838196286472154
Created 1 atoms
  using lattice units in orthogonal box = (-0.06 -0.006 -0.055) to (0.06 0.006 0.055)
  create_atoms CPU = 0.000 seconds
create_atoms 11 single -0.050983957649589344 0.0026274490557438674 0.04257294429708223
Created 1 atoms
  using lattice units in orthogonal box = (-0.06 -0.006 -0.055) to (0.06 0.006 0.055)
  create_atoms CPU = 0.000 seconds
create_atoms 11 single -0.051727741013075375 0.003291935463574621 0.04230769230769231
Created 1 atoms
  using lattice units in orthogonal box = (-0.06 -0.006 -0.055) to (0.06 0.006 0.055)
  create_atoms CPU = 0.000 seconds
create_atoms 11 single -0.0526127958130339 0.0037517548618831308 0.04204244031830239
Created 1 atoms
  using lattice units in orthogonal box = (-0.06 -0.006 -0.055) to (0.06 0.006 0.055)
  create_atoms CPU = 0.000 seconds
create_atoms 11 single -0.05358409620792726 0.0039783192475893025 0.041777188328912473
Created 1 atoms
  using lattice units in orthogonal box = (-0.06 -0.006 -0.055) to (0.06 0.006 0.055)
  create_atoms CPU = 0.000 seconds
create_atoms 11 single -0.05458125427418581 0.003957542604791606 0.04151193633952255
Created 1 atoms
  using lattice units in orthogonal box = (-0.06 -0.006 -0.055) to (0.06 0.006 0.055)
  create_atoms CPU = 0.000 seconds
create_atoms 11 single -0.05554227445882852 0.0036907166639617863 0.04124668435013263
Created 1 atoms
  using lattice units in orthogonal box = (-0.06 -0.006 -0.055) to (0.06 0.006 0.055)
  create_atoms CPU = 0.000 seconds
create_atoms 11 single -0.056407407982009085 0.003194430592164895 0.04098143236074271
Created 1 atoms
  using lattice units in orthogonal box = (-0.06 -0.006 -0.055) to (0.06 0.006 0.055)
  create_atoms CPU = 0.000 seconds
create_atoms 11 single -0.057122867552638124 0.002499539607343722 0.040716180371352786
Created 1 atoms
  using lattice units in orthogonal box = (-0.06 -0.006 -0.055) to (0.06 0.006 0.055)
  create_atoms CPU = 0.000 seconds
create_atoms 11 single -0.05764417144488138 0.0016492466402303649 0.04045092838196287
Created 1 atoms
  using lattice units in orthogonal box = (-0.06 -0.006 -0.055) to (0.06 0.006 0.055)
  create_atoms CPU = 0.000 seconds
create_atoms 11 single -0.057938909026799615 0.0006964163112654329 0.04018567639257295
Created 1 atoms
  using lattice units in orthogonal box = (-0.06 -0.006 -0.055) to (0.06 0.006 0.055)
  create_atoms CPU = 0.000 seconds
create_atoms 11 single -0.05798875580201294 -0.0002997117813969806 0.039920424403183025
Created 1 atoms
  using lattice units in orthogonal box = (-0.06 -0.006 -0.055) to (0.06 0.006 0.055)
  create_atoms CPU = 0.000 seconds
create_atoms 11 single -0.057790612684731214 -0.0012772061205439174 0.039655172413793106
Created 1 atoms
  using lattice units in orthogonal box = (-0.06 -0.006 -0.055) to (0.06 0.006 0.055)
  create_atoms CPU = 0.000 seconds
create_atoms 11 single -0.0573567986768669 -0.0021752936912023224 0.03938992042440319
Created 1 atoms
  using lattice units in orthogonal box = (-0.06 -0.006 -0.055) to (0.06 0.006 0.055)
  create_atoms CPU = 0.000 seconds
create_atoms 11 single -0.056714284968062356 -0.0029381383752557968 0.03912466843501326
Created 1 atoms
  using lattice units in orthogonal box = (-0.06 -0.006 -0.055) to (0.06 0.006 0.055)
  create_atoms CPU = 0.000 seconds
create_atoms 11 single -0.05590301807635024 -0.003518312408113334 0.038859416445623345
Created 1 atoms
  using lattice units in orthogonal box = (-0.06 -0.006 -0.055) to (0.06 0.006 0.055)
  create_atoms CPU = 0.000 seconds
create_atoms 11 single -0.054973436283552404 -0.0038797450691847894 0.038594164456233426
Created 1 atoms
  using lattice units in orthogonal box = (-0.06 -0.006 -0.055) to (0.06 0.006 0.055)
  create_atoms CPU = 0.000 seconds
create_atoms 11 single -0.05398333377419753 -0.003999965279463998 0.0383289124668435
Created 1 atoms
  using lattice units in orthogonal box = (-0.06 -0.006 -0.055) to (0.06 0.006 0.055)
  create_atoms CPU = 0.000 seconds
create_atoms 11 single -0.052994267441472696 -0.0038714986788991822 0.03806366047745358
Created 1 atoms
  using lattice units in orthogonal box = (-0.06 -0.006 -0.055) to (0.06 0.006 0.055)
  create_atoms CPU = 0.000 seconds
create_atoms 11 single -0.05206772975714045 -0.003502332324117671 0.037798408488063664
Created 1 atoms
  using lattice units in orthogonal box = (-0.06 -0.006 -0.055) to (0.06 0.006 0.055)
  create_atoms CPU = 0.000 seconds
create_atoms 11 single -0.051261325646680116 -0.0029154181152054146 0.03753315649867374
Created 1 atoms
  using lattice units in orthogonal box = (-0.06 -0.006 -0.055) to (0.06 0.006 0.055)
  create_atoms CPU = 0.000 seconds
create_atoms 11 single -0.05062519106189894 -0.002147245824611886 0.03726790450928382
Created 1 atoms
  using lattice units in orthogonal box = (-0.06 -0.006 -0.055) to (0.06 0.006 0.055)
  create_atoms CPU = 0.000 seconds
create_atoms 11 single -0.05019887591638469 -0.0012455744461731721 0.0370026525198939
Created 1 atoms
  using lattice units in orthogonal box = (-0.06 -0.006 -0.055) to (0.06 0.006 0.055)
  create_atoms CPU = 0.000 seconds
create_atoms 11 single -0.05000888517869213 -0.0002664629113716201 0.036737400530503984
Created 1 atoms
  using lattice units in orthogonal box = (-0.06 -0.006 -0.055) to (0.06 0.006 0.055)
  create_atoms CPU = 0.000 seconds
create_atoms 11 single -0.050067030999013995 0.0007292152201395308 0.03647214854111406
Created 1 atoms
  using lattice units in orthogonal box = (-0.06 -0.006 -0.055) to (0.06 0.006 0.055)
  create_atoms CPU = 0.000 seconds
create_atoms 11 single -0.05036969832131617 0.0016795564062410506 0.03620689655172414
Created 1 atoms
  using lattice units in orthogonal box = (-0.06 -0.006 -0.055) to (0.06 0.006 0.055)
  create_atoms CPU = 0.000 seconds
create_atoms 11 single -0.050898069639477676 0.0025254758043722803 0.03594164456233422
Created 1 atoms
  using lattice units in orthogonal box = (-0.06 -0.006 -0.055) to (0.06 0.006 0.055)
  create_atoms CPU = 0.000 seconds
create_atoms 11 single -0.05161929492384208 0.003214380708683385 0.035676392572944304
Created 1 atoms
  using lattice units in orthogonal box = (-0.06 -0.006 -0.055) to (0.06 0.006 0.055)
  create_atoms CPU = 0.000 seconds
create_atoms 11 single -0.052488533981223356 0.003703440356490634 0.03541114058355438
Created 1 atoms
  using lattice units in orthogonal box = (-0.06 -0.006 -0.055) to (0.06 0.006 0.055)
  create_atoms CPU = 0.000 seconds
create_atoms 11 single -0.053451744270264674 0.003962248812835002 0.03514588859416446
Created 1 atoms
  using lattice units in orthogonal box = (-0.06 -0.006 -0.055) to (0.06 0.006 0.055)
  create_atoms CPU = 0.000 seconds
create_atoms 11 single -0.05444904084741825 0.00397471537564011 0.03488063660477454
Created 1 atoms
  using lattice units in orthogonal box = (-0.06 -0.006 -0.055) to (0.06 0.006 0.055)
  create_atoms CPU = 0.000 seconds
create_atoms 11 single -0.05541841954817013 0.003740064970741665 0.03461538461538462
Created 1 atoms
  using lattice units in orthogonal box = (-0.06 -0.006 -0.055) to (0.06 0.006 0.055)
  create_atoms CPU = 0.000 seconds
create_atoms 11 single -0.0562996119249846 0.0032728863399862545 0.03435013262599469
Created 1 atoms
  using lattice units in orthogonal box = (-0.06 -0.006 -0.055) to (0.06 0.006 0.055)
  create_atoms CPU = 0.000 seconds
create_atoms 11 single -0.05703783227183186 0.002602225026437359 0.03408488063660478
Created 1 atoms
  using lattice units in orthogonal box = (-0.06 -0.006 -0.055) to (0.06 0.006 0.055)
  create_atoms CPU = 0.000 seconds
create_atoms 11 single -0.05758718377438201 0.0017697775478320618 0.033819628647214856
Created 1 atoms
  using lattice units in orthogonal box = (-0.06 -0.006 -0.055) to (0.06 0.006 0.055)
  create_atoms CPU = 0.000 seconds
create_atoms 11 single -0.05791351201786976 0.0008272990305741824 0.03355437665782494
Created 1 atoms
  using lattice units in orthogonal box = (-0.06 -0.006 -0.055) to (0.06 0.006 0.055)
  create_atoms CPU = 0.000 seconds
create_atoms 11 single -0.05799652844364738 -0.00016661452252867572 0.03328912466843502
Created 1 atoms
  using lattice units in orthogonal box = (-0.06 -0.006 -0.055) to (0.06 0.006 0.055)
  create_atoms CPU = 0.000 seconds
create_atoms 11 single -0.05783107173437037 -0.001150169277153772 0.033023872679045094
Created 1 atoms
  using lattice units in orthogonal box = (-0.06 -0.006 -0.055) to (0.06 0.006 0.055)
  create_atoms CPU = 0.000 seconds
create_atoms 11 single -0.057427428704670366 -0.0020622154287080812 0.032758620689655175
Created 1 atoms
  using lattice units in orthogonal box = (-0.06 -0.006 -0.055) to (0.06 0.006 0.055)
  create_atoms CPU = 0.000 seconds
create_atoms 11 single -0.05681069474682261 -0.0028460490228005204 0.03249336870026526
Created 1 atoms
  using lattice units in orthogonal box = (-0.06 -0.006 -0.055) to (0.06 0.006 0.055)
  create_atoms CPU = 0.000 seconds
create_atoms 11 single -0.05601921359393494 -0.0034529373672379775 0.03222811671087533
Created 1 atoms
  using lattice units in orthogonal box = (-0.06 -0.006 -0.055) to (0.06 0.006 0.055)
  create_atoms CPU = 0.000 seconds
create_atoms 11 single -0.055102193404079486 -0.003845148852775883 0.031962864721485414
Created 1 atoms
  using lattice units in orthogonal box = (-0.06 -0.006 -0.055) to (0.06 0.006 0.055)
  create_atoms CPU = 0.000 seconds
create_atoms 11 single -0.054116647378762116 -0.003998298811873361 0.031697612732095495
Created 1 atoms
  using lattice units in orthogonal box = (-0.06 -0.006 -0.055) to (0.06 0.006 0.055)
  create_atoms CPU = 0.000 seconds
create_atoms 11 single -0.053123849124340004 -0.0039028655681537664 0.03143236074270557
Created 1 atoms
  using lattice units in orthogonal box = (-0.06 -0.006 -0.055) to (0.06 0.006 0.055)
  create_atoms CPU = 0.000 seconds
create_atoms 11 single -0.05218552313451598 -0.0035647824203762094 0.031167108753315652
Created 1 atoms
  using lattice units in orthogonal box = (-0.06 -0.006 -0.055) to (0.06 0.006 0.055)
  create_atoms CPU = 0.000 seconds
create_atoms 11 single -0.051360007240155575 -0.0030050687559470264 0.030901856763925734
Created 1 atoms
  using lattice units in orthogonal box = (-0.06 -0.006 -0.055) to (0.06 0.006 0.055)
  create_atoms CPU = 0.000 seconds
create_atoms 11 single -0.05069862561552688 -0.002258523228471357 0.030636604774535812
Created 1 atoms
  using lattice units in orthogonal box = (-0.06 -0.006 -0.055) to (0.06 0.006 0.055)
  create_atoms CPU = 0.000 seconds
create_atoms 11 single -0.05024249783929828 -0.00137156024742695 0.03037135278514589
Created 1 atoms
  using lattice units in orthogonal box = (-0.06 -0.006 -0.055) to (0.06 0.006 0.055)
  create_atoms CPU = 0.000 seconds
create_atoms 11 single -0.05001998239812717 -0.0003993242902484206 0.030106100795755972
Created 1 atoms
  using lattice units in orthogonal box = (-0.06 -0.006 -0.055) to (0.06 0.006 0.055)
  create_atoms CPU = 0.000 seconds
create_atoms 11 single -0.05004491357595408 0.0005977385534894194 0.02984084880636605
Created 1 atoms
  using lattice units in orthogonal box = (-0.06 -0.006 -0.055) to (0.06 0.006 0.055)
  create_atoms CPU = 0.000 seconds
create_atoms 11 single -0.050315741345548476 0.0015576386510031779 0.02957559681697613
Created 1 atoms
  using lattice units in orthogonal box = (-0.06 -0.006 -0.055) to (0.06 0.006 0.055)
  create_atoms CPU = 0.000 seconds
create_atoms 11 single -0.050815627737177425 0.0024206968607750562 0.02931034482758621
Created 1 atoms
  using lattice units in orthogonal box = (-0.06 -0.006 -0.055) to (0.06 0.006 0.055)
  create_atoms CPU = 0.000 seconds
create_atoms 11 single -0.051513493692940886 0.003133254918603853 0.029045092838196288
Created 1 atoms
  using lattice units in orthogonal box = (-0.06 -0.006 -0.055) to (0.06 0.006 0.055)
  create_atoms CPU = 0.000 seconds
create_atoms 11 single -0.05236595132149231 0.003651011492212436 0.02877984084880637
Created 1 atoms
  using lattice units in orthogonal box = (-0.06 -0.006 -0.055) to (0.06 0.006 0.055)
  create_atoms CPU = 0.000 seconds
create_atoms 11 single -0.053320001420535494 0.003941776494415463 0.028514588859416448
Created 1 atoms
  using lattice units in orthogonal box = (-0.06 -0.006 -0.055) to (0.06 0.006 0.055)
  create_atoms CPU = 0.000 seconds
create_atoms 11 single -0.05431632855607539 0.003987472413021971 0.028249336870026526
Created 1 atoms
  using lattice units in orthogonal box = (-0.06 -0.006 -0.055) to (0.06 0.006 0.055)
  create_atoms CPU = 0.000 seconds
create_atoms 11 single -0.05529298883595702 0.0037852582303048382 0.027984084880636608
Created 1 atoms
  using lattice units in orthogonal box = (-0.06 -0.006 -0.055) to (0.06 0.006 0.055)
  create_atoms CPU = 0.000 seconds
create_atoms 11 single -0.05618926110054213 0.003347706055443502 0.027718832891246686
Created 1 atoms
  using lattice units in orthogonal box = (-0.06 -0.006 -0.055) to (0.06 0.006 0.055)
  create_atoms CPU = 0.000 seconds
create_atoms 11 single -0.0569494220933635 0.0027020194883048652 0.027453580901856765
Created 1 atoms
  using lattice units in orthogonal box = (-0.06 -0.006 -0.055) to (0.06 0.006 0.055)
  create_atoms CPU = 0.000 seconds
create_atoms 11 single -0.057526210900931844 0.0018883423106390027 0.027188328912466846
Created 1 atoms
  using lattice units in orthogonal box = (-0.06 -0.006 -0.055) to (0.06 0.006 0.055)
  create_atoms CPU = 0.000 seconds
create_atoms 11 single -0.057883767269704206 0.000957262657150244 0.026923076923076925
Created 1 atoms
  using lattice units in orthogonal box = (-0.06 -0.006 -0.055) to (0.06 0.006 0.055)
  create_atoms CPU = 0.000 seconds
create_atoms 11 single -0.057999861118458756 -3.333216227480941e-05 0.026657824933687006
Created 1 atoms
  using lattice units in orthogonal box = (-0.06 -0.006 -0.055) to (0.06 0.006 0.055)
  create_atoms CPU = 0.000 seconds
create_atoms 11 single -0.057867274632292534 -0.001021854646428078 0.026392572944297085
Created 1 atoms
  using lattice units in orthogonal box = (-0.06 -0.006 -0.055) to (0.06 0.006 0.055)
  create_atoms CPU = 0.000 seconds
create_atoms 11 single -0.05749425101035906 -0.001946846135832185 0.026127320954907163
Created 1 atoms
  using lattice units in orthogonal box = (-0.06 -0.006 -0.055) to (0.06 0.006 0.055)
  create_atoms CPU = 0.000 seconds
create_atoms 11 single -0.056903981967692537 -0.00275079783541368 0.025862068965517244
Created 1 atoms
  using lattice units in orthogonal box = (-0.06 -0.006 -0.055) to (0.06 0.006 0.055)
  create_atoms CPU = 0.000 seconds
create_atoms 11 single -0.05613316585427974 -0.0033837262652488564 0.025596816976127326
Created 1 atoms
  using lattice units in orthogonal box = (-0.06 -0.006 -0.055) to (0.06 0.006 0.055)
  create_atoms CPU = 0.000 seconds
create_atoms 11 single -0.055229726036349874 -0.003806280845592352 0.0253315649867374
Created 1 atoms
  using lattice units in orthogonal box = (-0.06 -0.006 -0.055) to (0.06 0.006 0.055)
  create_atoms CPU = 0.000 seconds
create_atoms 11 single -0.05424983139323395 -0.003992190410658638 0.025066312997347483
Created 1 atoms
  using lattice units in orthogonal box = (-0.06 -0.006 -0.055) to (0.06 0.006 0.055)
  create_atoms CPU = 0.000 seconds
create_atoms 11 single -0.053254404172185146 -0.003929896545908694 0.02480106100795756
Created 1 atoms
  using lattice units in orthogonal box = (-0.06 -0.006 -0.055) to (0.06 0.006 0.055)
  create_atoms CPU = 0.000 seconds
create_atoms 11 single -0.052305332315656594 -0.00362327220060019 0.02453580901856764
Created 1 atoms
  using lattice units in orthogonal box = (-0.06 -0.006 -0.055) to (0.06 0.006 0.055)
  create_atoms CPU = 0.000 seconds
create_atoms 11 single -0.051461621749143115 -0.003091380897847549 0.02427055702917772
Created 1 atoms
  using lattice units in orthogonal box = (-0.06 -0.006 -0.055) to (0.06 0.006 0.055)
  create_atoms CPU = 0.000 seconds
create_atoms 11 single -0.050775727850479804 -0.0023672915126423284 0.024005305039787803
Created 1 atoms
  using lattice units in orthogonal box = (-0.06 -0.006 -0.055) to (0.06 0.006 0.055)
  create_atoms CPU = 0.000 seconds
create_atoms 11 single -0.0502902941813775 -0.001496022305742246 0.02374005305039788
Created 1 atoms
  using lattice units in orthogonal box = (-0.06 -0.006 -0.055) to (0.06 0.006 0.055)
  create_atoms CPU = 0.000 seconds
create_atoms 11 single -0.050035501241568324 -0.0005317420374520593 0.023474801061007963
Created 1 atoms
  using lattice units in orthogonal box = (-0.06 -0.006 -0.055) to (0.06 0.006 0.055)
  create_atoms CPU = 0.000 seconds
create_atoms 11 single -0.05002719007946137 0.000465597825671268 0.02320954907161804
Created 1 atoms
  using lattice units in orthogonal box = (-0.06 -0.006 -0.055) to (0.06 0.006 0.055)
  create_atoms CPU = 0.000 seconds
create_atoms 11 single -0.05026587741864157 0.0014339904279279804 0.022944297082228116
Created 1 atoms
  using lattice units in orthogonal box = (-0.06 -0.006 -0.055) to (0.06 0.006 0.055)
  create_atoms CPU = 0.000 seconds
create_atoms 11 single -0.05073672353200572 0.002313228629736968 0.022679045092838197
Created 1 atoms
  using lattice units in orthogonal box = (-0.06 -0.006 -0.055) to (0.06 0.006 0.055)
  create_atoms CPU = 0.000 seconds
create_atoms 11 single -0.05141045486087268 0.0030486482205105353 0.02241379310344828
Created 1 atoms
  using lattice units in orthogonal box = (-0.06 -0.006 -0.055) to (0.06 0.006 0.055)
  create_atoms CPU = 0.000 seconds
create_atoms 11 single -0.052245184017768925 0.0035945265152042445 0.022148541114058357
Created 1 atoms
  using lattice units in orthogonal box = (-0.06 -0.006 -0.055) to (0.06 0.006 0.055)
  create_atoms CPU = 0.000 seconds
create_atoms 11 single -0.05318901401923491 0.003916925036173463 0.02188328912466844
Created 1 atoms
  using lattice units in orthogonal box = (-0.06 -0.006 -0.055) to (0.06 0.006 0.055)
  create_atoms CPU = 0.000 seconds
create_atoms 11 single -0.054183264837659256 0.003995799544431343 0.021618037135278517
Created 1 atoms
  using lattice units in orthogonal box = (-0.06 -0.006 -0.055) to (0.06 0.006 0.055)
  create_atoms CPU = 0.000 seconds
create_atoms 11 single -0.05516612167017795 0.0038262462349333178 0.0213527851458886
Created 1 atoms
  using lattice units in orthogonal box = (-0.06 -0.006 -0.055) to (0.06 0.006 0.055)
  create_atoms CPU = 0.000 seconds
create_atoms 11 single -0.056076478103580296 0.0034188066171328834 0.02108753315649868
Created 1 atoms
  using lattice units in orthogonal box = (-0.06 -0.006 -0.055) to (0.06 0.006 0.055)
  create_atoms CPU = 0.000 seconds
create_atoms 11 single -0.05685773523704174 0.002798812125700832 0.020822281167108755
Created 1 atoms
  using lattice units in orthogonal box = (-0.06 -0.006 -0.055) to (0.06 0.006 0.055)
  create_atoms CPU = 0.000 seconds
create_atoms 11 single -0.05746132056270393 0.002004809208429321 0.020557029177718834
Created 1 atoms
  using lattice units in orthogonal box = (-0.06 -0.006 -0.055) to (0.06 0.006 0.055)
  create_atoms CPU = 0.000 seconds
create_atoms 11 single -0.05784970782740619 0.0010861628071368993 0.020291777188328915
Created 1 atoms
  using lattice units in orthogonal box = (-0.06 -0.006 -0.055) to (0.06 0.006 0.055)
  create_atoms CPU = 0.000 seconds
create_atoms 11 single -0.05799875012399233 9.998722854111673e-05 0.020026525198938994
Created 1 atoms
  using lattice units in orthogonal box = (-0.06 -0.006 -0.055) to (0.06 0.006 0.055)
  create_atoms CPU = 0.000 seconds
create_atoms 11 single -0.057899181158674956 -0.0008924047802618826 0.019761273209549075
Created 1 atoms
  using lattice units in orthogonal box = (-0.06 -0.006 -0.055) to (0.06 0.006 0.055)
  create_atoms CPU = 0.000 seconds
create_atoms 11 single -0.05755719135729874 -0.0018293139827703657 0.019496021220159157
Created 1 atoms
  using lattice units in orthogonal box = (-0.06 -0.006 -0.055) to (0.06 0.006 0.055)
  create_atoms CPU = 0.000 seconds
create_atoms 11 single -0.05699404299268443 -0.0026524906329631567 0.019230769230769235
Created 1 atoms
  using lattice units in orthogonal box = (-0.06 -0.006 -0.055) to (0.06 0.006 0.055)
  create_atoms CPU = 0.000 seconds
create_atoms 11 single -0.05624474826144955 -0.003310755992627554 0.01896551724137931
Created 1 atoms
  using lattice units in orthogonal box = (-0.06 -0.006 -0.055) to (0.06 0.006 0.055)
  create_atoms CPU = 0.000 seconds
create_atoms 11 single -0.05535589249723431 -0.003763184228275797 0.01870026525198939
Created 1 atoms
  using lattice units in orthogonal box = (-0.06 -0.006 -0.055) to (0.06 0.006 0.055)
  create_atoms CPU = 0.000 seconds
create_atoms 11 single -0.0543827378560474 -0.003981646861984152 0.01843501326259947
Created 1 atoms
  using lattice units in orthogonal box = (-0.06 -0.006 -0.055) to (0.06 0.006 0.055)
  create_atoms CPU = 0.000 seconds
create_atoms 11 single -0.05338578754410846 -0.003952561581939955 0.018169761273209552
Created 1 atoms
  using lattice units in orthogonal box = (-0.06 -0.006 -0.055) to (0.06 0.006 0.055)
  create_atoms CPU = 0.000 seconds
create_atoms 11 single -0.05242702419784657 -0.00367773668522364 0.017904509283819633
Created 1 atoms
  using lattice units in orthogonal box = (-0.06 -0.006 -0.055) to (0.06 0.006 0.055)
  create_atoms CPU = 0.000 seconds
create_atoms 11 single -0.051566056284405234 -0.003174258651924373 0.017639257294429715
Created 1 atoms
  using lattice units in orthogonal box = (-0.06 -0.006 -0.055) to (0.06 0.006 0.055)
  create_atoms CPU = 0.000 seconds
create_atoms 11 single -0.05085641210957552 -0.002473429840358634 0.01737400530503979
Created 1 atoms
  using lattice units in orthogonal box = (-0.06 -0.006 -0.055) to (0.06 0.006 0.055)
  create_atoms CPU = 0.000 seconds
create_atoms 11 single -0.05034221184299449 -0.0016188223492620314 0.01710875331564987
Created 1 atoms
  using lattice units in orthogonal box = (-0.06 -0.006 -0.055) to (0.06 0.006 0.055)
  create_atoms CPU = 0.000 seconds
create_atoms 11 single -0.05005542446826503 -0.0006635690427059977 0.016843501326259946
Created 1 atoms
  using lattice units in orthogonal box = (-0.06 -0.006 -0.055) to (0.06 0.006 0.055)
  create_atoms CPU = 0.000 seconds
create_atoms 11 single -0.050013880199558734 0.0003329398392052898 0.016578249336870028
Created 1 atoms
  using lattice units in orthogonal box = (-0.06 -0.006 -0.055) to (0.06 0.006 0.055)
  create_atoms CPU = 0.000 seconds
create_atoms 11 single -0.050220161937218864 0.0013087491047373983 0.01631299734748011
Created 1 atoms
  using lattice units in orthogonal box = (-0.06 -0.006 -0.055) to (0.06 0.006 0.055)
  create_atoms CPU = 0.000 seconds
create_atoms 11 single -0.05066144468305422 0.0022031905037225063 0.01604774535809019
Created 1 atoms
  using lattice units in orthogonal box = (-0.06 -0.006 -0.055) to (0.06 0.006 0.055)
  create_atoms CPU = 0.000 seconds
create_atoms 11 single -0.05131029289923507 0.002960654608713199 0.015782493368700266
Created 1 atoms
  using lattice units in orthogonal box = (-0.06 -0.006 -0.055) to (0.06 0.006 0.055)
  create_atoms CPU = 0.000 seconds
create_atoms 11 single -0.05212636623720083 0.0035340481777840853 0.015517241379310348
Created 1 atoms
  using lattice units in orthogonal box = (-0.06 -0.006 -0.055) to (0.06 0.006 0.055)
  create_atoms CPU = 0.000 seconds
create_atoms 11 single -0.05305892758758817 0.00388772204698296 0.01525198938992043
Created 1 atoms
  using lattice units in orthogonal box = (-0.06 -0.006 -0.055) to (0.06 0.006 0.055)
  create_atoms CPU = 0.000 seconds
create_atoms 11 single -0.0540499975200919 0.003999687518792519 0.014986737400530505
Created 1 atoms
  using lattice units in orthogonal box = (-0.06 -0.006 -0.055) to (0.06 0.006 0.055)
  create_atoms CPU = 0.000 seconds
create_atoms 11 single -0.05503795899465833 0.003862983448761834 0.014721485411140586
Created 1 atoms
  using lattice units in orthogonal box = (-0.06 -0.006 -0.055) to (0.06 0.006 0.055)
  create_atoms CPU = 0.000 seconds
create_atoms 11 single -0.05596138823103417 0.0034861090354664265 0.014456233421750668
Created 1 atoms
  using lattice units in orthogonal box = (-0.06 -0.006 -0.055) to (0.06 0.006 0.055)
  create_atoms CPU = 0.000 seconds
create_atoms 11 single -0.056762873562919834 0.0028924954062744287 0.014190981432360743
Created 1 atoms
  using lattice units in orthogonal box = (-0.06 -0.006 -0.055) to (0.06 0.006 0.055)
  create_atoms CPU = 0.000 seconds
create_atoms 11 single -0.05739258485000184 0.0021190488516166796 0.013925729442970824
Created 1 atoms
  using lattice units in orthogonal box = (-0.06 -0.006 -0.055) to (0.06 0.006 0.055)
  create_atoms CPU = 0.000 seconds
create_atoms 11 single -0.05781137152951382 0.0012138562781530212 0.013660477453580906
Created 1 atoms
  using lattice units in orthogonal box = (-0.06 -0.006 -0.055) to (0.06 0.006 0.055)
  create_atoms CPU = 0.000 seconds
create_atoms 11 single -0.05799319669451397 0.00023319553795634392 0.013395225464190988
Created 1 atoms
  using lattice units in orthogonal box = (-0.06 -0.006 -0.055) to (0.06 0.006 0.055)
  create_atoms CPU = 0.000 seconds
create_atoms 11 single -0.057926755866774135 -0.0007619634917467841 0.01312997347480107
Created 1 atoms
  using lattice units in orthogonal box = (-0.06 -0.006 -0.055) to (0.06 0.006 0.055)
  create_atoms CPU = 0.000 seconds
create_atoms 11 single -0.05761617982154012 -0.0017097495425605856 0.012864721485411144
Created 1 atoms
  using lattice units in orthogonal box = (-0.06 -0.006 -0.055) to (0.06 0.006 0.055)
  create_atoms CPU = 0.000 seconds
create_atoms 11 single -0.05708077776797188 -0.002551236630414788 0.01259946949602122
Created 1 atoms
  using lattice units in orthogonal box = (-0.06 -0.006 -0.055) to (0.06 0.006 0.055)
  create_atoms CPU = 0.000 seconds
create_atoms 11 single -0.056353836852311635 -0.003234107616128391 0.012334217506631301
Created 1 atoms
  using lattice units in orthogonal box = (-0.06 -0.006 -0.055) to (0.06 0.006 0.055)
  create_atoms CPU = 0.000 seconds
create_atoms 11 single -0.055480552621359674 -0.0037159068792671614 0.012068965517241383
Created 1 atoms
  using lattice units in orthogonal box = (-0.06 -0.006 -0.055) to (0.06 0.006 0.055)
  create_atoms CPU = 0.000 seconds
create_atoms 11 single -0.054515219113984506 -0.0039666798792674235 0.011803713527851464
Created 1 atoms
  using lattice units in orthogonal box = (-0.06 -0.006 -0.055) to (0.06 0.006 0.055)
  create_atoms CPU = 0.000 seconds
create_atoms 11 single -0.05351785327897875 -0.0039708354963922205 0.011538461538461539
Created 1 atoms
  using lattice units in orthogonal box = (-0.06 -0.006 -0.055) to (0.06 0.006 0.055)
  create_atoms CPU = 0.000 seconds
create_atoms 11 single -0.052550463586772345 -0.003728115366606443 0.01127320954907162
Created 1 atoms
  using lattice units in orthogonal box = (-0.06 -0.006 -0.055) to (0.06 0.006 0.055)
  create_atoms CPU = 0.000 seconds
create_atoms 11 single -0.051673194823779627 -0.0032536099446482617 0.011007957559681696
Created 1 atoms
  using lattice units in orthogonal box = (-0.06 -0.006 -0.055) to (0.06 0.006 0.055)
  create_atoms CPU = 0.000 seconds
create_atoms 11 single -0.05094058875616094 -0.0025768202966196777 0.010742705570291777
Created 1 atoms
  using lattice units in orthogonal box = (-0.06 -0.006 -0.055) to (0.06 0.006 0.055)
  create_atoms CPU = 0.000 seconds
create_atoms 11 single -0.05039819314591716 -0.001739823952554361 0.010477453580901859
Created 1 atoms
  using lattice units in orthogonal box = (-0.06 -0.006 -0.055) to (0.06 0.006 0.055)
  create_atoms CPU = 0.000 seconds
create_atoms 11 single -0.05007972994439121 -0.0007946588520220455 0.01021220159151194
Created 1 atoms
  using lattice units in orthogonal box = (-0.06 -0.006 -0.055) to (0.06 0.006 0.055)
  create_atoms CPU = 0.000 seconds
create_atoms 11 single -0.050004998722935665 0.00019991197126314848 0.009946949602122016
Created 1 atoms
  using lattice units in orthogonal box = (-0.06 -0.006 -0.055) to (0.06 0.006 0.055)
  create_atoms CPU = 0.000 seconds
create_atoms 11 single -0.05017864568916382 0.0011820538190174257 0.009681697612732097
Created 1 atoms
  using lattice units in orthogonal box = (-0.06 -0.006 -0.055) to (0.06 0.006 0.055)
  create_atoms CPU = 0.000 seconds
create_atoms 11 single -0.05058987482180372 0.0020907047302361403 0.009416445623342179
Created 1 atoms
  using lattice units in orthogonal box = (-0.06 -0.006 -0.055) to (0.06 0.006 0.055)
  create_atoms CPU = 0.000 seconds
create_atoms 11 single -0.0512131190835495 0.0028693718402333325 0.00915119363395226
Created 1 atoms
  using lattice units in orthogonal box = (-0.06 -0.006 -0.055) to (0.06 0.006 0.055)
  create_atoms CPU = 0.000 seconds
create_atoms 11 single -0.052009629981101466 0.0034696436687172696 0.008885941644562335
Created 1 atoms
  using lattice units in orthogonal box = (-0.06 -0.006 -0.055) to (0.06 0.006 0.055)
  create_atoms CPU = 0.000 seconds
create_atoms 11 single -0.052929886645883106 0.003854199970076889 0.008620689655172417
Created 1 atoms
  using lattice units in orthogonal box = (-0.06 -0.006 -0.055) to (0.06 0.006 0.055)
  create_atoms CPU = 0.000 seconds
create_atoms 11 single -0.05391667465748497 0.003999132016737476 0.008355437665782492
Created 1 atoms
  using lattice units in orthogonal box = (-0.06 -0.006 -0.055) to (0.06 0.006 0.055)
  create_atoms CPU = 0.000 seconds
create_atoms 11 single -0.054908643192477624 0.003895429058366239 0.008090185676392574
Created 1 atoms
  using lattice units in orthogonal box = (-0.06 -0.006 -0.055) to (0.06 0.006 0.055)
  create_atoms CPU = 0.000 seconds
create_atoms 11 single -0.05584411934267571 0.003549538540425969 0.007824933687002655
Created 1 atoms
  using lattice units in orthogonal box = (-0.06 -0.006 -0.055) to (0.06 0.006 0.055)
  create_atoms CPU = 0.000 seconds
create_atoms 11 single -0.056664942458133645 0.002982965252033056 0.007559681697612737
Created 1 atoms
  using lattice units in orthogonal box = (-0.06 -0.006 -0.055) to (0.06 0.006 0.055)
  create_atoms CPU = 0.000 seconds
create_atoms 11 single -0.05732008012517066 0.002230934324996326 0.007294429708222819
Created 1 atoms
  using lattice units in orthogonal box = (-0.06 -0.006 -0.055) to (0.06 0.006 0.055)
  create_atoms CPU = 0.000 seconds
create_atoms 11 single -0.05776880096596313 0.0013402012083845525 0.0070291777188328936
Created 1 atoms
  using lattice units in orthogonal box = (-0.06 -0.006 -0.055) to (0.06 0.006 0.055)
  create_atoms CPU = 0.000 seconds
create_atoms 11 single -0.05798320699963886 0.00036614477741462865 0.006763925729442968
Created 1 atoms
  using lattice units in orthogonal box = (-0.06 -0.006 -0.055) to (0.06 0.006 0.055)
  create_atoms CPU = 0.000 seconds
create_atoms 11 single -0.057949968122305635 -0.0006306756954008388 0.00649867374005305
Created 1 atoms
  using lattice units in orthogonal box = (-0.06 -0.006 -0.055) to (0.06 0.006 0.055)
  create_atoms CPU = 0.000 seconds
create_atoms 11 single -0.05767115086950126 -0.001588285646022201 0.006233421750663132
Created 1 atoms
  using lattice units in orthogonal box = (-0.06 -0.006 -0.055) to (0.06 0.006 0.055)
  create_atoms CPU = 0.000 seconds
create_atoms 11 single -0.05716408993504526 -0.002447148316499288 0.0059681697612732135
Created 1 atoms
  using lattice units in orthogonal box = (-0.06 -0.006 -0.055) to (0.06 0.006 0.055)
  create_atoms CPU = 0.000 seconds
create_atoms 11 single -0.056460310434253244 -0.0031538662887168546 0.005702917771883295
Created 1 atoms
  using lattice units in orthogonal box = (-0.06 -0.006 -0.055) to (0.06 0.006 0.055)
  create_atoms CPU = 0.000 seconds
create_atoms 11 single -0.05560356791682655 -0.0036645013216158855 0.00543766578249337
Created 1 atoms
  using lattice units in orthogonal box = (-0.06 -0.006 -0.055) to (0.06 0.006 0.055)
  create_atoms CPU = 0.000 seconds
create_atoms 11 single -0.0546471279862111 -0.003947306090166099 0.005172413793103452
Created 1 atoms
  using lattice units in orthogonal box = (-0.06 -0.006 -0.055) to (0.06 0.006 0.055)
  create_atoms CPU = 0.000 seconds
create_atoms 11 single -0.05365045465758965 -0.0039846979877525505 0.0049071618037135264
Created 1 atoms
  using lattice units in orthogonal box = (-0.06 -0.006 -0.055) to (0.06 0.006 0.055)
  create_atoms CPU = 0.000 seconds
create_atoms 11 single -0.052675513346717426 -0.003774352276255666 0.004641909814323608
Created 1 atoms
  using lattice units in orthogonal box = (-0.06 -0.006 -0.055) to (0.06 0.006 0.055)
  create_atoms CPU = 0.000 seconds
create_atoms 11 single -0.05178291834107473 -0.003329346620233037 0.00437665782493369
Created 1 atoms
  using lattice units in orthogonal box = (-0.06 -0.006 -0.055) to (0.06 0.006 0.055)
  create_atoms CPU = 0.000 seconds
create_atoms 11 single -0.05102816427369457 -0.0026773480191888853 0.004111405835543772
Created 1 atoms
  using lattice units in orthogonal box = (-0.06 -0.006 -0.055) to (0.06 0.006 0.055)
  create_atoms CPU = 0.000 seconds
create_atoms 11 single -0.05045817589738717 -0.0018588926881750976 0.0038461538461538464
Created 1 atoms
  using lattice units in orthogonal box = (-0.06 -0.006 -0.055) to (0.06 0.006 0.055)
  create_atoms CPU = 0.000 seconds
create_atoms 11 single -0.05010839066763492 -0.0009248658304040851 0.003580901856763928
Created 1 atoms
  using lattice units in orthogonal box = (-0.06 -0.006 -0.055) to (0.06 0.006 0.055)
  create_atoms CPU = 0.000 seconds
create_atoms 11 single -0.05000055551652096 6.666200993858387e-05 0.00331564986737401
Created 1 atoms
  using lattice units in orthogonal box = (-0.06 -0.006 -0.055) to (0.06 0.006 0.055)
  create_atoms CPU = 0.000 seconds
create_atoms 11 single -0.05014137479719682 0.0010540453236422417 0.0030503978779840846
Created 1 atoms
  using lattice units in orthogonal box = (-0.06 -0.006 -0.055) to (0.06 0.006 0.055)
  create_atoms CPU = 0.000 seconds
create_atoms 11 single -0.05052209345921333 0.0019758962760107806 0.0027851458885941663
Created 1 atoms
  using lattice units in orthogonal box = (-0.06 -0.006 -0.055) to (0.06 0.006 0.055)
  create_atoms CPU = 0.000 seconds
create_atoms 11 single -0.05111904136963914 0.0027749013262005004 0.002519893899204248
Created 1 atoms
  using lattice units in orthogonal box = (-0.06 -0.006 -0.055) to (0.06 0.006 0.055)
  create_atoms CPU = 0.000 seconds
create_atoms 11 single -0.05189510493830236 0.003401384538572619 0.0022546419098143228
Created 1 atoms
  using lattice units in orthogonal box = (-0.06 -0.006 -0.055) to (0.06 0.006 0.055)
  create_atoms CPU = 0.000 seconds
create_atoms 11 single -0.052802034552914136 0.003816396047004079 0.0019893899204244045
Created 1 atoms
  using lattice units in orthogonal box = (-0.06 -0.006 -0.055) to (0.06 0.006 0.055)
  create_atoms CPU = 0.000 seconds
create_atoms 11 single -0.053783444365658295 0.003994133655404493 0.0017241379310344862
Created 1 atoms
  using lattice units in orthogonal box = (-0.06 -0.006 -0.055) to (0.06 0.006 0.055)
  create_atoms CPU = 0.000 seconds
create_atoms 11 single -0.05477831792778829 0.003923547018105346 0.001458885941644568
Created 1 atoms
  using lattice units in orthogonal box = (-0.06 -0.006 -0.055) to (0.06 0.006 0.055)
  create_atoms CPU = 0.000 seconds
create_atoms 11 single -0.05572480171906749 0.003609024664629191 0.0011936339522546496
Created 1 atoms
  using lattice units in orthogonal box = (-0.06 -0.006 -0.055) to (0.06 0.006 0.055)
  create_atoms CPU = 0.000 seconds
create_atoms 11 single -0.05656405071982104 0.0030701211549685166 0.0009283819628647244
Created 1 atoms
  using lattice units in orthogonal box = (-0.06 -0.006 -0.055) to (0.06 0.006 0.055)
  create_atoms CPU = 0.000 seconds
create_atoms 11 single -0.05724388693776162 0.0023403413287423624 0.0006631299734747992
Created 1 atoms
  using lattice units in orthogonal box = (-0.06 -0.006 -0.055) to (0.06 0.006 0.055)
  create_atoms CPU = 0.000 seconds
create_atoms 11 single -0.05772204343077253 0.001465057234186809 0.0003978779840848809
Created 1 atoms
  using lattice units in orthogonal box = (-0.06 -0.006 -0.055) to (0.06 0.006 0.055)
  create_atoms CPU = 0.000 seconds
create_atoms 11 single -0.057968792137477396 0.0004986872461750227 0.0001326259946949626
Created 1 atoms
  using lattice units in orthogonal box = (-0.06 -0.006 -0.055) to (0.06 0.006 0.055)
  create_atoms CPU = 0.000 seconds
create_atoms 11 single -0.0579687921374774 -0.0004986872461749799 -0.00013262599469495567
Created 1 atoms
  using lattice units in orthogonal box = (-0.06 -0.006 -0.055) to (0.06 0.006 0.055)
  create_atoms CPU = 0.000 seconds
create_atoms 11 single -0.05772204343077254 -0.0014650572341867688 -0.0003978779840848809
Created 1 atoms
  using lattice units in orthogonal box = (-0.06 -0.006 -0.055) to (0.06 0.006 0.055)
  create_atoms CPU = 0.000 seconds
create_atoms 11 single -0.05724388693776166 -0.0023403413287423043 -0.0006631299734747992
Created 1 atoms
  using lattice units in orthogonal box = (-0.06 -0.006 -0.055) to (0.06 0.006 0.055)
  create_atoms CPU = 0.000 seconds
create_atoms 11 single -0.056564050719821075 -0.0030701211549684893 -0.0009283819628647244
Created 1 atoms
  using lattice units in orthogonal box = (-0.06 -0.006 -0.055) to (0.06 0.006 0.055)
  create_atoms CPU = 0.000 seconds
create_atoms 11 single -0.05572480171906755 -0.00360902466462916 -0.0011936339522546358
Created 1 atoms
  using lattice units in orthogonal box = (-0.06 -0.006 -0.055) to (0.06 0.006 0.055)
  create_atoms CPU = 0.000 seconds
create_atoms 11 single -0.05477831792778836 -0.003923547018105331 -0.001458885941644561
Created 1 atoms
  using lattice units in orthogonal box = (-0.06 -0.006 -0.055) to (0.06 0.006 0.055)
  create_atoms CPU = 0.000 seconds
create_atoms 11 single -0.0537834443656584 -0.003994133655404499 -0.0017241379310344723
Created 1 atoms
  using lattice units in orthogonal box = (-0.06 -0.006 -0.055) to (0.06 0.006 0.055)
  create_atoms CPU = 0.000 seconds
create_atoms 11 single -0.052802034552914205 -0.0038163960470041004 -0.0019893899204243976
Created 1 atoms
  using lattice units in orthogonal box = (-0.06 -0.006 -0.055) to (0.06 0.006 0.055)
  create_atoms CPU = 0.000 seconds
create_atoms 11 single -0.05189510493830239 -0.0034013845385726417 -0.0022546419098143228
Created 1 atoms
  using lattice units in orthogonal box = (-0.06 -0.006 -0.055) to (0.06 0.006 0.055)
  create_atoms CPU = 0.000 seconds
create_atoms 11 single -0.05111904136963918 -0.002774901326200531 -0.002519893899204241
Created 1 atoms
  using lattice units in orthogonal box = (-0.06 -0.006 -0.055) to (0.06 0.006 0.055)
  create_atoms CPU = 0.000 seconds
create_atoms 11 single -0.05052209345921335 -0.0019758962760108184 -0.0027851458885941663
Created 1 atoms
  using lattice units in orthogonal box = (-0.06 -0.006 -0.055) to (0.06 0.006 0.055)
  create_atoms CPU = 0.000 seconds
create_atoms 11 single -0.05014137479719684 -0.0010540453236423106 -0.0030503978779840776
Created 1 atoms
  using lattice units in orthogonal box = (-0.06 -0.006 -0.055) to (0.06 0.006 0.055)
  create_atoms CPU = 0.000 seconds
create_atoms 11 single -0.05000055551652096 -6.66620099386554e-05 -0.003315649867374003
Created 1 atoms
  using lattice units in orthogonal box = (-0.06 -0.006 -0.055) to (0.06 0.006 0.055)
  create_atoms CPU = 0.000 seconds
create_atoms 11 single -0.05010839066763491 0.0009248658304040156 -0.003580901856763921
Created 1 atoms
  using lattice units in orthogonal box = (-0.06 -0.006 -0.055) to (0.06 0.006 0.055)
  create_atoms CPU = 0.000 seconds
create_atoms 11 single -0.050458175897387145 0.0018588926881750343 -0.0038461538461538464
Created 1 atoms
  using lattice units in orthogonal box = (-0.06 -0.006 -0.055) to (0.06 0.006 0.055)
  create_atoms CPU = 0.000 seconds
create_atoms 11 single -0.05102816427369454 0.002677348019188853 -0.004111405835543772
Created 1 atoms
  using lattice units in orthogonal box = (-0.06 -0.006 -0.055) to (0.06 0.006 0.055)
  create_atoms CPU = 0.000 seconds
create_atoms 11 single -0.051782918341074666 0.0033293466202329977 -0.004376657824933683
Created 1 atoms
  using lattice units in orthogonal box = (-0.06 -0.006 -0.055) to (0.06 0.006 0.055)
  create_atoms CPU = 0.000 seconds
create_atoms 11 single -0.05267551334671739 0.0037743522762556515 -0.004641909814323608
Created 1 atoms
  using lattice units in orthogonal box = (-0.06 -0.006 -0.055) to (0.06 0.006 0.055)
  create_atoms CPU = 0.000 seconds
create_atoms 11 single -0.0536504546575896 0.003984697987752547 -0.0049071618037135195
Created 1 atoms
  using lattice units in orthogonal box = (-0.06 -0.006 -0.055) to (0.06 0.006 0.055)
  create_atoms CPU = 0.000 seconds
create_atoms 11 single -0.054647127986211026 0.00394730609016611 -0.005172413793103445
Created 1 atoms
  using lattice units in orthogonal box = (-0.06 -0.006 -0.055) to (0.06 0.006 0.055)
  create_atoms CPU = 0.000 seconds
create_atoms 11 single -0.055603567916826455 0.0036645013216159254 -0.005437665782493363
Created 1 atoms
  using lattice units in orthogonal box = (-0.06 -0.006 -0.055) to (0.06 0.006 0.055)
  create_atoms CPU = 0.000 seconds
create_atoms 11 single -0.05646031043425319 0.003153866288716899 -0.005702917771883288
Created 1 atoms
  using lattice units in orthogonal box = (-0.06 -0.006 -0.055) to (0.06 0.006 0.055)
  create_atoms CPU = 0.000 seconds
create_atoms 11 single -0.05716408993504524 0.002447148316499322 -0.0059681697612732135
Created 1 atoms
  using lattice units in orthogonal box = (-0.06 -0.006 -0.055) to (0.06 0.006 0.055)
  create_atoms CPU = 0.000 seconds
create_atoms 11 single -0.05767115086950124 0.0015882856460222405 -0.006233421750663125
Created 1 atoms
  using lattice units in orthogonal box = (-0.06 -0.006 -0.055) to (0.06 0.006 0.055)
  create_atoms CPU = 0.000 seconds
create_atoms 11 single -0.05794996812230563 0.0006306756954008814 -0.00649867374005305
Created 1 atoms
  using lattice units in orthogonal box = (-0.06 -0.006 -0.055) to (0.06 0.006 0.055)
  create_atoms CPU = 0.000 seconds
create_atoms 11 single -0.05798320699963887 -0.0003661447774145574 -0.006763925729442968
Created 1 atoms
  using lattice units in orthogonal box = (-0.06 -0.006 -0.055) to (0.06 0.006 0.055)
  create_atoms CPU = 0.000 seconds
create_atoms 11 single -0.057768800965963145 -0.001340201208384512 -0.0070291777188328936
Created 1 atoms
  using lattice units in orthogonal box = (-0.06 -0.006 -0.055) to (0.06 0.006 0.055)
  create_atoms CPU = 0.000 seconds
create_atoms 11 single -0.057320080125170696 -0.002230934324996267 -0.007294429708222805
Created 1 atoms
  using lattice units in orthogonal box = (-0.06 -0.006 -0.055) to (0.06 0.006 0.055)
  create_atoms CPU = 0.000 seconds
create_atoms 11 single -0.056664942458133694 -0.0029829652520330084 -0.00755968169761273
Created 1 atoms
  using lattice units in orthogonal box = (-0.06 -0.006 -0.055) to (0.06 0.006 0.055)
  create_atoms CPU = 0.000 seconds
create_atoms 11 single -0.0558441193426758 -0.003549538540425923 -0.007824933687002641
Created 1 atoms
  using lattice units in orthogonal box = (-0.06 -0.006 -0.055) to (0.06 0.006 0.055)
  create_atoms CPU = 0.000 seconds
create_atoms 11 single -0.054908643192477694 -0.0038954290583662226 -0.008090185676392567
Created 1 atoms
  using lattice units in orthogonal box = (-0.06 -0.006 -0.055) to (0.06 0.006 0.055)
  create_atoms CPU = 0.000 seconds
create_atoms 11 single -0.05391667465748501 -0.003999132016737477 -0.008355437665782492
Created 1 atoms
  using lattice units in orthogonal box = (-0.06 -0.006 -0.055) to (0.06 0.006 0.055)
  create_atoms CPU = 0.000 seconds
create_atoms 11 single -0.05292988664588315 -0.0038541999700769007 -0.00862068965517241
Created 1 atoms
  using lattice units in orthogonal box = (-0.06 -0.006 -0.055) to (0.06 0.006 0.055)
  create_atoms CPU = 0.000 seconds
create_atoms 11 single -0.0520096299811015 -0.003469643668717291 -0.008885941644562335
Created 1 atoms
  using lattice units in orthogonal box = (-0.06 -0.006 -0.055) to (0.06 0.006 0.055)
  create_atoms CPU = 0.000 seconds
create_atoms 11 single -0.05121311908354957 -0.0028693718402334023 -0.009151193633952247
Created 1 atoms
  using lattice units in orthogonal box = (-0.06 -0.006 -0.055) to (0.06 0.006 0.055)
  create_atoms CPU = 0.000 seconds
create_atoms 11 single -0.05058987482180376 -0.002090704730236201 -0.009416445623342172
Created 1 atoms
  using lattice units in orthogonal box = (-0.06 -0.006 -0.055) to (0.06 0.006 0.055)
  create_atoms CPU = 0.000 seconds
create_atoms 11 single -0.05017864568916384 -0.0011820538190174938 -0.00968169761273209
Created 1 atoms
  using lattice units in orthogonal box = (-0.06 -0.006 -0.055) to (0.06 0.006 0.055)
  create_atoms CPU = 0.000 seconds
create_atoms 11 single -0.05000499872293567 -0.0001999119712632199 -0.009946949602122016
Created 1 atoms
  using lattice units in orthogonal box = (-0.06 -0.006 -0.055) to (0.06 0.006 0.055)
  create_atoms CPU = 0.000 seconds
create_atoms 11 single -0.050079729944391194 0.0007946588520220033 -0.01021220159151194
Created 1 atoms
  using lattice units in orthogonal box = (-0.06 -0.006 -0.055) to (0.06 0.006 0.055)
  create_atoms CPU = 0.000 seconds
create_atoms 11 single -0.05039819314591713 0.0017398239525542967 -0.010477453580901852
Created 1 atoms
  using lattice units in orthogonal box = (-0.06 -0.006 -0.055) to (0.06 0.006 0.055)
  create_atoms CPU = 0.000 seconds
create_atoms 11 single -0.050940588756160914 0.0025768202966196447 -0.010742705570291777
Created 1 atoms
  using lattice units in orthogonal box = (-0.06 -0.006 -0.055) to (0.06 0.006 0.055)
  create_atoms CPU = 0.000 seconds
create_atoms 11 single -0.05167319482377959 0.0032536099446482366 -0.011007957559681689
Created 1 atoms
  using lattice units in orthogonal box = (-0.06 -0.006 -0.055) to (0.06 0.006 0.055)
  create_atoms CPU = 0.000 seconds
create_atoms 11 single -0.052550463586772275 0.003728115366606417 -0.011273209549071614
Created 1 atoms
  using lattice units in orthogonal box = (-0.06 -0.006 -0.055) to (0.06 0.006 0.055)
  create_atoms CPU = 0.000 seconds
create_atoms 11 single -0.05351785327897865 0.003970835496392208 -0.011538461538461532
Created 1 atoms
  using lattice units in orthogonal box = (-0.06 -0.006 -0.055) to (0.06 0.006 0.055)
  create_atoms CPU = 0.000 seconds
create_atoms 11 single -0.05451521911398444 0.003966679879267433 -0.011803713527851457
Created 1 atoms
  using lattice units in orthogonal box = (-0.06 -0.006 -0.055) to (0.06 0.006 0.055)
  create_atoms CPU = 0.000 seconds
create_atoms 11 single -0.05548055262135963 0.0037159068792671775 -0.012068965517241383
Created 1 atoms
  using lattice units in orthogonal box = (-0.06 -0.006 -0.055) to (0.06 0.006 0.055)
  create_atoms CPU = 0.000 seconds
create_atoms 11 single -0.05635383685231158 0.003234107616128433 -0.012334217506631294
Created 1 atoms
  using lattice units in orthogonal box = (-0.06 -0.006 -0.055) to (0.06 0.006 0.055)
  create_atoms CPU = 0.000 seconds
create_atoms 11 single -0.05708077776797185 0.0025512366304148216 -0.012599469496021226
Created 1 atoms
  using lattice units in orthogonal box = (-0.06 -0.006 -0.055) to (0.06 0.006 0.055)
  create_atoms CPU = 0.000 seconds
create_atoms 11 single -0.05761617982154008 0.0017097495425606503 -0.012864721485411137
Created 1 atoms
  using lattice units in orthogonal box = (-0.06 -0.006 -0.055) to (0.06 0.006 0.055)
  create_atoms CPU = 0.000 seconds
create_atoms 11 single -0.05792675586677412 0.0007619634917468264 -0.013129973474801063
Created 1 atoms
  using lattice units in orthogonal box = (-0.06 -0.006 -0.055) to (0.06 0.006 0.055)
  create_atoms CPU = 0.000 seconds
create_atoms 11 single -0.05799319669451397 -0.0002331955379562725 -0.013395225464190974
Created 1 atoms
  using lattice units in orthogonal box = (-0.06 -0.006 -0.055) to (0.06 0.006 0.055)
  create_atoms CPU = 0.000 seconds
create_atoms 11 single -0.05781137152951384 -0.001213856278152953 -0.0136604774535809
Created 1 atoms
  using lattice units in orthogonal box = (-0.06 -0.006 -0.055) to (0.06 0.006 0.055)
  create_atoms CPU = 0.000 seconds
create_atoms 11 single -0.05739258485000187 -0.0021190488516166428 -0.013925729442970824
Created 1 atoms
  using lattice units in orthogonal box = (-0.06 -0.006 -0.055) to (0.06 0.006 0.055)
  create_atoms CPU = 0.000 seconds
create_atoms 11 single -0.05676287356291989 -0.0028924954062743793 -0.014190981432360736
Created 1 atoms
  using lattice units in orthogonal box = (-0.06 -0.006 -0.055) to (0.06 0.006 0.055)
  create_atoms CPU = 0.000 seconds
create_atoms 11 single -0.055961388231034206 -0.0034861090354664052 -0.014456233421750661
Created 1 atoms
  using lattice units in orthogonal box = (-0.06 -0.006 -0.055) to (0.06 0.006 0.055)
  create_atoms CPU = 0.000 seconds
create_atoms 11 single -0.055037958994658374 -0.0038629834487618232 -0.014721485411140572
Created 1 atoms
  using lattice units in orthogonal box = (-0.06 -0.006 -0.055) to (0.06 0.006 0.055)
  create_atoms CPU = 0.000 seconds
create_atoms 11 single -0.054049997520091944 -0.003999687518792519 -0.014986737400530498
Created 1 atoms
  using lattice units in orthogonal box = (-0.06 -0.006 -0.055) to (0.06 0.006 0.055)
  create_atoms CPU = 0.000 seconds
create_atoms 11 single -0.05305892758758827 -0.003887722046982984 -0.015251989389920423
Created 1 atoms
  using lattice units in orthogonal box = (-0.06 -0.006 -0.055) to (0.06 0.006 0.055)
  create_atoms CPU = 0.000 seconds
create_atoms 11 single -0.05212636623720087 -0.0035340481777841057 -0.015517241379310348
Created 1 atoms
  using lattice units in orthogonal box = (-0.06 -0.006 -0.055) to (0.06 0.006 0.055)
  create_atoms CPU = 0.000 seconds
create_atoms 11 single -0.051310292899235124 -0.002960654608713247 -0.01578249336870026
Created 1 atoms
  using lattice units in orthogonal box = (-0.06 -0.006 -0.055) to (0.06 0.006 0.055)
  create_atoms CPU = 0.000 seconds
create_atoms 11 single -0.05066144468305426 -0.002203190503722566 -0.016047745358090185
Created 1 atoms
  using lattice units in orthogonal box = (-0.06 -0.006 -0.055) to (0.06 0.006 0.055)
  create_atoms CPU = 0.000 seconds
create_atoms 11 single -0.05022016193721888 -0.001308749104737439 -0.01631299734748011
Created 1 atoms
  using lattice units in orthogonal box = (-0.06 -0.006 -0.055) to (0.06 0.006 0.055)
  create_atoms CPU = 0.000 seconds
create_atoms 11 single -0.050013880199558734 -0.0003329398392053469 -0.01657824933687002
Created 1 atoms
  using lattice units in orthogonal box = (-0.06 -0.006 -0.055) to (0.06 0.006 0.055)
  create_atoms CPU = 0.000 seconds
create_atoms 11 single -0.050055424468265025 0.0006635690427059692 -0.016843501326259946
Created 1 atoms
  using lattice units in orthogonal box = (-0.06 -0.006 -0.055) to (0.06 0.006 0.055)
  create_atoms CPU = 0.000 seconds
create_atoms 11 single -0.050342211842994464 0.0016188223492619657 -0.017108753315649858
Created 1 atoms
  using lattice units in orthogonal box = (-0.06 -0.006 -0.055) to (0.06 0.006 0.055)
  create_atoms CPU = 0.000 seconds
create_atoms 11 single -0.05085641210957547 0.0024734298403585775 -0.017374005305039783
Created 1 atoms
  using lattice units in orthogonal box = (-0.06 -0.006 -0.055) to (0.06 0.006 0.055)
  create_atoms CPU = 0.000 seconds
create_atoms 11 single -0.051566056284405165 0.0031742586519243206 -0.017639257294429694
Created 1 atoms
  using lattice units in orthogonal box = (-0.06 -0.006 -0.055) to (0.06 0.006 0.055)
  create_atoms CPU = 0.000 seconds
create_atoms 11 single -0.05242702419784652 0.003677736685223618 -0.01790450928381962
Created 1 atoms
  using lattice units in orthogonal box = (-0.06 -0.006 -0.055) to (0.06 0.006 0.055)
  create_atoms CPU = 0.000 seconds
create_atoms 11 single -0.0533857875441084 0.003952561581939946 -0.018169761273209545
Created 1 atoms
  using lattice units in orthogonal box = (-0.06 -0.006 -0.055) to (0.06 0.006 0.055)
  create_atoms CPU = 0.000 seconds
create_atoms 11 single -0.05438273785604736 0.003981646861984156 -0.01843501326259947
Created 1 atoms
  using lattice units in orthogonal box = (-0.06 -0.006 -0.055) to (0.06 0.006 0.055)
  create_atoms CPU = 0.000 seconds
create_atoms 11 single -0.05535589249723427 0.0037631842282758116 -0.018700265251989395
Created 1 atoms
  using lattice units in orthogonal box = (-0.06 -0.006 -0.055) to (0.06 0.006 0.055)
  create_atoms CPU = 0.000 seconds
create_atoms 11 single -0.05624474826144951 0.003310755992627578 -0.018965517241379307
Created 1 atoms
  using lattice units in orthogonal box = (-0.06 -0.006 -0.055) to (0.06 0.006 0.055)
  create_atoms CPU = 0.000 seconds
create_atoms 11 single -0.05699404299268439 0.0026524906329632 -0.019230769230769232
Created 1 atoms
  using lattice units in orthogonal box = (-0.06 -0.006 -0.055) to (0.06 0.006 0.055)
  create_atoms CPU = 0.000 seconds
create_atoms 11 single -0.05755719135729869 0.0018293139827704546 -0.019496021220159143
Created 1 atoms
  using lattice units in orthogonal box = (-0.06 -0.006 -0.055) to (0.06 0.006 0.055)
  create_atoms CPU = 0.000 seconds
create_atoms 11 single -0.05789918115867494 0.0008924047802619247 -0.01976127320954907
Created 1 atoms
  using lattice units in orthogonal box = (-0.06 -0.006 -0.055) to (0.06 0.006 0.055)
  create_atoms CPU = 0.000 seconds
create_atoms 11 single -0.05799875012399233 -9.998722854107362e-05 -0.020026525198938994
Created 1 atoms
  using lattice units in orthogonal box = (-0.06 -0.006 -0.055) to (0.06 0.006 0.055)
  create_atoms CPU = 0.000 seconds
create_atoms 11 single -0.05784970782740621 -0.001086162807136817 -0.020291777188328905
Created 1 atoms
  using lattice units in orthogonal box = (-0.06 -0.006 -0.055) to (0.06 0.006 0.055)
  create_atoms CPU = 0.000 seconds
create_atoms 11 single -0.05746132056270394 -0.0020048092084292953 -0.02055702917771883
Created 1 atoms
  using lattice units in orthogonal box = (-0.06 -0.006 -0.055) to (0.06 0.006 0.055)
  create_atoms CPU = 0.000 seconds
create_atoms 11 single -0.05685773523704179 -0.002798812125700781 -0.02082228116710874
Created 1 atoms
  using lattice units in orthogonal box = (-0.06 -0.006 -0.055) to (0.06 0.006 0.055)
  create_atoms CPU = 0.000 seconds
create_atoms 11 single -0.05607647810358033 -0.0034188066171328612 -0.021087533156498667
Created 1 atoms
  using lattice units in orthogonal box = (-0.06 -0.006 -0.055) to (0.06 0.006 0.055)
  create_atoms CPU = 0.000 seconds
create_atoms 11 single -0.05516612167017804 -0.0038262462349332926 -0.021352785145888592
Created 1 atoms
  using lattice units in orthogonal box = (-0.06 -0.006 -0.055) to (0.06 0.006 0.055)
  create_atoms CPU = 0.000 seconds
create_atoms 11 single -0.05418326483765934 -0.003995799544431339 -0.021618037135278517
Created 1 atoms
  using lattice units in orthogonal box = (-0.06 -0.006 -0.055) to (0.06 0.006 0.055)
  create_atoms CPU = 0.000 seconds
create_atoms 11 single -0.05318901401923498 -0.003916925036173477 -0.02188328912466843
Created 1 atoms
  using lattice units in orthogonal box = (-0.06 -0.006 -0.055) to (0.06 0.006 0.055)
  create_atoms CPU = 0.000 seconds
create_atoms 11 single -0.05224518401776899 -0.0035945265152042757 -0.022148541114058354
Created 1 atoms
  using lattice units in orthogonal box = (-0.06 -0.006 -0.055) to (0.06 0.006 0.055)
  create_atoms CPU = 0.000 seconds
create_atoms 11 single -0.051410454860872735 -0.0030486482205105813 -0.02241379310344828
Created 1 atoms
  using lattice units in orthogonal box = (-0.06 -0.006 -0.055) to (0.06 0.006 0.055)
  create_atoms CPU = 0.000 seconds
create_atoms 11 single -0.050736723532005756 -0.0023132286297370148 -0.02267904509283819
Created 1 atoms
  using lattice units in orthogonal box = (-0.06 -0.006 -0.055) to (0.06 0.006 0.055)
  create_atoms CPU = 0.000 seconds
create_atoms 11 single -0.050265877418641594 -0.0014339904279280337 -0.022944297082228116
Created 1 atoms
  using lattice units in orthogonal box = (-0.06 -0.006 -0.055) to (0.06 0.006 0.055)
  create_atoms CPU = 0.000 seconds
create_atoms 11 single -0.050027190079461374 -0.0004655978256713391 -0.023209549071618027
Created 1 atoms
  using lattice units in orthogonal box = (-0.06 -0.006 -0.055) to (0.06 0.006 0.055)
  create_atoms CPU = 0.000 seconds
create_atoms 11 single -0.05003550124156831 0.0005317420374519884 -0.023474801061007952
Created 1 atoms
  using lattice units in orthogonal box = (-0.06 -0.006 -0.055) to (0.06 0.006 0.055)
  create_atoms CPU = 0.000 seconds
create_atoms 11 single -0.05029029418137748 0.001496022305742193 -0.023740053050397864
Created 1 atoms
  using lattice units in orthogonal box = (-0.06 -0.006 -0.055) to (0.06 0.006 0.055)
  create_atoms CPU = 0.000 seconds
create_atoms 11 single -0.05077572785047977 0.0023672915126422825 -0.02400530503978779
Created 1 atoms
  using lattice units in orthogonal box = (-0.06 -0.006 -0.055) to (0.06 0.006 0.055)
  create_atoms CPU = 0.000 seconds
create_atoms 11 single -0.051461621749143066 0.0030913808978475124 -0.024270557029177714
Created 1 atoms
  using lattice units in orthogonal box = (-0.06 -0.006 -0.055) to (0.06 0.006 0.055)
  create_atoms CPU = 0.000 seconds
create_atoms 11 single -0.05230533231565655 0.0036232722006001718 -0.02453580901856764
Created 1 atoms
  using lattice units in orthogonal box = (-0.06 -0.006 -0.055) to (0.06 0.006 0.055)
  create_atoms CPU = 0.000 seconds
create_atoms 11 single -0.053254404172185105 0.003929896545908685 -0.024801061007957564
Created 1 atoms
  using lattice units in orthogonal box = (-0.06 -0.006 -0.055) to (0.06 0.006 0.055)
  create_atoms CPU = 0.000 seconds
create_atoms 11 single -0.0542498313932339 0.003992190410658641 -0.025066312997347476
Created 1 atoms
  using lattice units in orthogonal box = (-0.06 -0.006 -0.055) to (0.06 0.006 0.055)
  create_atoms CPU = 0.000 seconds
create_atoms 11 single -0.05522972603634983 0.0038062808455923657 -0.0253315649867374
Created 1 atoms
  using lattice units in orthogonal box = (-0.06 -0.006 -0.055) to (0.06 0.006 0.055)
  create_atoms CPU = 0.000 seconds
create_atoms 11 single -0.05613316585427966 0.0033837262652489097 -0.025596816976127312
Created 1 atoms
  using lattice units in orthogonal box = (-0.06 -0.006 -0.055) to (0.06 0.006 0.055)
  create_atoms CPU = 0.000 seconds
create_atoms 11 single -0.05690398196769251 0.002750797835413711 -0.025862068965517238
Created 1 atoms
  using lattice units in orthogonal box = (-0.06 -0.006 -0.055) to (0.06 0.006 0.055)
  create_atoms CPU = 0.000 seconds
create_atoms 11 single -0.05749425101035904 0.0019468461358322228 -0.026127320954907163
Created 1 atoms
  using lattice units in orthogonal box = (-0.06 -0.006 -0.055) to (0.06 0.006 0.055)
  create_atoms CPU = 0.000 seconds
create_atoms 11 single -0.05786727463229251 0.0010218546464281608 -0.026392572944297074
Created 1 atoms
  using lattice units in orthogonal box = (-0.06 -0.006 -0.055) to (0.06 0.006 0.055)
  create_atoms CPU = 0.000 seconds
create_atoms 11 single -0.057999861118458756 3.333216227485253e-05 -0.026657824933687
Created 1 atoms
  using lattice units in orthogonal box = (-0.06 -0.006 -0.055) to (0.06 0.006 0.055)
  create_atoms CPU = 0.000 seconds
create_atoms 11 single -0.05788376726970423 -0.0009572626571501607 -0.026923076923076925
Created 1 atoms
  using lattice units in orthogonal box = (-0.06 -0.006 -0.055) to (0.06 0.006 0.055)
  create_atoms CPU = 0.000 seconds
create_atoms 11 single -0.05752621090093186 -0.0018883423106389775 -0.02718832891246685
Created 1 atoms
  using lattice units in orthogonal box = (-0.06 -0.006 -0.055) to (0.06 0.006 0.055)
  create_atoms CPU = 0.000 seconds
create_atoms 11 single -0.056949422093363546 -0.002702019488304813 -0.02745358090185676
Created 1 atoms
  using lattice units in orthogonal box = (-0.06 -0.006 -0.055) to (0.06 0.006 0.055)
  create_atoms CPU = 0.000 seconds
create_atoms 11 single -0.0561892611005422 -0.003347706055443455 -0.027718832891246686
Created 1 atoms
  using lattice units in orthogonal box = (-0.06 -0.006 -0.055) to (0.06 0.006 0.055)
  create_atoms CPU = 0.000 seconds
create_atoms 11 single -0.055292988835957034 -0.0037852582303048335 -0.02798408488063661
Created 1 atoms
  using lattice units in orthogonal box = (-0.06 -0.006 -0.055) to (0.06 0.006 0.055)
  create_atoms CPU = 0.000 seconds
create_atoms 11 single -0.05431632855607546 -0.003987472413021965 -0.028249336870026523
Created 1 atoms
  using lattice units in orthogonal box = (-0.06 -0.006 -0.055) to (0.06 0.006 0.055)
  create_atoms CPU = 0.000 seconds
create_atoms 11 single -0.053320001420535564 -0.003941776494415474 -0.028514588859416448
Created 1 atoms
  using lattice units in orthogonal box = (-0.06 -0.006 -0.055) to (0.06 0.006 0.055)
  create_atoms CPU = 0.000 seconds
create_atoms 11 single -0.05236595132149238 -0.0036510114922124657 -0.02877984084880636
Created 1 atoms
  using lattice units in orthogonal box = (-0.06 -0.006 -0.055) to (0.06 0.006 0.055)
  create_atoms CPU = 0.000 seconds
create_atoms 11 single -0.05151349369294094 -0.0031332549186038976 -0.029045092838196285
Created 1 atoms
  using lattice units in orthogonal box = (-0.06 -0.006 -0.055) to (0.06 0.006 0.055)
  create_atoms CPU = 0.000 seconds
create_atoms 11 single -0.05081562773717746 -0.0024206968607751018 -0.029310344827586196
Created 1 atoms
  using lattice units in orthogonal box = (-0.06 -0.006 -0.055) to (0.06 0.006 0.055)
  create_atoms CPU = 0.000 seconds
create_atoms 11 single -0.050315741345548504 -0.0015576386510032438 -0.02957559681697612
Created 1 atoms
  using lattice units in orthogonal box = (-0.06 -0.006 -0.055) to (0.06 0.006 0.055)
  create_atoms CPU = 0.000 seconds
create_atoms 11 single -0.050044913575954086 -0.0005977385534894762 -0.029840848806366047
Created 1 atoms
  using lattice units in orthogonal box = (-0.06 -0.006 -0.055) to (0.06 0.006 0.055)
  create_atoms CPU = 0.000 seconds
create_atoms 11 single -0.05001998239812716 0.0003993242902483636 -0.030106100795755972
Created 1 atoms
  using lattice units in orthogonal box = (-0.06 -0.006 -0.055) to (0.06 0.006 0.055)
  create_atoms CPU = 0.000 seconds
create_atoms 11 single -0.05024249783929826 0.001371560247426896 -0.030371352785145897
Created 1 atoms
  using lattice units in orthogonal box = (-0.06 -0.006 -0.055) to (0.06 0.006 0.055)
  create_atoms CPU = 0.000 seconds
create_atoms 11 single -0.05069862561552684 0.0022585232284713093 -0.03063660477453581
Created 1 atoms
  using lattice units in orthogonal box = (-0.06 -0.006 -0.055) to (0.06 0.006 0.055)
  create_atoms CPU = 0.000 seconds
create_atoms 11 single -0.051360007240155534 0.0030050687559469887 -0.030901856763925734
Created 1 atoms
  using lattice units in orthogonal box = (-0.06 -0.006 -0.055) to (0.06 0.006 0.055)
  create_atoms CPU = 0.000 seconds
create_atoms 11 single -0.05218552313451589 0.0035647824203761643 -0.031167108753315645
Created 1 atoms
  using lattice units in orthogonal box = (-0.06 -0.006 -0.055) to (0.06 0.006 0.055)
  create_atoms CPU = 0.000 seconds
create_atoms 11 single -0.05312384912433996 0.0039028655681537573 -0.03143236074270557
Created 1 atoms
  using lattice units in orthogonal box = (-0.06 -0.006 -0.055) to (0.06 0.006 0.055)
  create_atoms CPU = 0.000 seconds
create_atoms 11 single -0.05411664737876201 0.003998298811873364 -0.03169761273209548
Created 1 atoms
  using lattice units in orthogonal box = (-0.06 -0.006 -0.055) to (0.06 0.006 0.055)
  create_atoms CPU = 0.000 seconds
create_atoms 11 single -0.055102193404079444 0.003845148852775895 -0.03196286472148541
Created 1 atoms
  using lattice units in orthogonal box = (-0.06 -0.006 -0.055) to (0.06 0.006 0.055)
  create_atoms CPU = 0.000 seconds
create_atoms 11 single -0.05601921359393492 0.003452937367237992 -0.03222811671087533
Created 1 atoms
  using lattice units in orthogonal box = (-0.06 -0.006 -0.055) to (0.06 0.006 0.055)
  create_atoms CPU = 0.000 seconds
create_atoms 11 single -0.05681069474682255 0.0028460490228005807 -0.03249336870026524
Created 1 atoms
  using lattice units in orthogonal box = (-0.06 -0.006 -0.055) to (0.06 0.006 0.055)
  create_atoms CPU = 0.000 seconds
create_atoms 11 single -0.05742742870467035 0.0020622154287081055 -0.03275862068965517
Created 1 atoms
  using lattice units in orthogonal box = (-0.06 -0.006 -0.055) to (0.06 0.006 0.055)
  create_atoms CPU = 0.000 seconds
create_atoms 11 single -0.05783107173437035 0.0011501692771538543 -0.033023872679045094
Created 1 atoms
  using lattice units in orthogonal box = (-0.06 -0.006 -0.055) to (0.06 0.006 0.055)
  create_atoms CPU = 0.000 seconds
create_atoms 11 single -0.05799652844364738 0.0001666145225287543 -0.03328912466843502
Created 1 atoms
  using lattice units in orthogonal box = (-0.06 -0.006 -0.055) to (0.06 0.006 0.055)
  create_atoms CPU = 0.000 seconds
create_atoms 11 single -0.057913512017869775 -0.0008272990305740986 -0.03355437665782493
Created 1 atoms
  using lattice units in orthogonal box = (-0.06 -0.006 -0.055) to (0.06 0.006 0.055)
  create_atoms CPU = 0.000 seconds
create_atoms 11 single -0.057587183774382045 -0.001769777547831991 -0.033819628647214856
Created 1 atoms
  using lattice units in orthogonal box = (-0.06 -0.006 -0.055) to (0.06 0.006 0.055)
  create_atoms CPU = 0.000 seconds
create_atoms 11 single -0.05703783227183187 -0.0026022250264373424 -0.03408488063660478
Created 1 atoms
  using lattice units in orthogonal box = (-0.06 -0.006 -0.055) to (0.06 0.006 0.055)
  create_atoms CPU = 0.000 seconds
create_atoms 11 single -0.05629961192498466 -0.0032728863399862137 -0.03435013262599469
Created 1 atoms
  using lattice units in orthogonal box = (-0.06 -0.006 -0.055) to (0.06 0.006 0.055)
  create_atoms CPU = 0.000 seconds
create_atoms 11 single -0.0554184195481702 -0.0037400649707416372 -0.03461538461538462
Created 1 atoms
  using lattice units in orthogonal box = (-0.06 -0.006 -0.055) to (0.06 0.006 0.055)
  create_atoms CPU = 0.000 seconds
create_atoms 11 single -0.05444904084741832 -0.0039747153756401025 -0.03488063660477453
Created 1 atoms
  using lattice units in orthogonal box = (-0.06 -0.006 -0.055) to (0.06 0.006 0.055)
  create_atoms CPU = 0.000 seconds
create_atoms 11 single -0.05345174427026474 -0.003962248812835011 -0.035145888594164454
Created 1 atoms
  using lattice units in orthogonal box = (-0.06 -0.006 -0.055) to (0.06 0.006 0.055)
  create_atoms CPU = 0.000 seconds
create_atoms 11 single -0.05248853398122341 -0.0037034403564906557 -0.035411140583554365
Created 1 atoms
  using lattice units in orthogonal box = (-0.06 -0.006 -0.055) to (0.06 0.006 0.055)
  create_atoms CPU = 0.000 seconds
create_atoms 11 single -0.05161929492384213 -0.0032143807086834233 -0.03567639257294429
Created 1 atoms
  using lattice units in orthogonal box = (-0.06 -0.006 -0.055) to (0.06 0.006 0.055)
  create_atoms CPU = 0.000 seconds
create_atoms 11 single -0.05089806963947771 -0.0025254758043723245 -0.035941644562334216
Created 1 atoms
  using lattice units in orthogonal box = (-0.06 -0.006 -0.055) to (0.06 0.006 0.055)
  create_atoms CPU = 0.000 seconds
create_atoms 11 single -0.05036969832131619 -0.0016795564062411028 -0.03620689655172414
Created 1 atoms
  using lattice units in orthogonal box = (-0.06 -0.006 -0.055) to (0.06 0.006 0.055)
  create_atoms CPU = 0.000 seconds
create_atoms 11 single -0.05006703099901401 -0.0007292152201395802 -0.036472148541114066
Created 1 atoms
  using lattice units in orthogonal box = (-0.06 -0.006 -0.055) to (0.06 0.006 0.055)
  create_atoms CPU = 0.000 seconds
create_atoms 11 single -0.050008885178692127 0.00026646291137156293 -0.03673740053050398
Created 1 atoms
  using lattice units in orthogonal box = (-0.06 -0.006 -0.055) to (0.06 0.006 0.055)
  create_atoms CPU = 0.000 seconds
create_atoms 11 single -0.050198875916384667 0.0012455744461731244 -0.0370026525198939
Created 1 atoms
  using lattice units in orthogonal box = (-0.06 -0.006 -0.055) to (0.06 0.006 0.055)
  create_atoms CPU = 0.000 seconds
create_atoms 11 single -0.05062519106189889 0.002147245824611802 -0.037267904509283814
Created 1 atoms
  using lattice units in orthogonal box = (-0.06 -0.006 -0.055) to (0.06 0.006 0.055)
  create_atoms CPU = 0.000 seconds
create_atoms 11 single -0.05126132564668008 0.002915418115205385 -0.03753315649867374
Created 1 atoms
  using lattice units in orthogonal box = (-0.06 -0.006 -0.055) to (0.06 0.006 0.055)
  create_atoms CPU = 0.000 seconds
create_atoms 11 single -0.052067729757140364 0.0035023323241176224 -0.03779840848806365
Created 1 atoms
  using lattice units in orthogonal box = (-0.06 -0.006 -0.055) to (0.06 0.006 0.055)
  create_atoms CPU = 0.000 seconds
create_atoms 11 single -0.052994267441472655 0.0038714986788991714 -0.038063660477453576
Created 1 atoms
[...]
     3 = max # of 1-2 neighbors
     3 = max # of special neighbors
  special bonds CPU = 0.000 seconds
create_bonds single/dihedral 4 1164 1165 1166 1167
Finding 1-2 1-3 1-4 neighbors ...
  special bond factors lj:    0        1        1       
  special bond factors coul:  0        1        1       
     3 = max # of 1-2 neighbors
     3 = max # of special neighbors
  special bonds CPU = 0.000 seconds
create_bonds single/dihedral 4 1165 1166 1167 1168
Finding 1-2 1-3 1-4 neighbors ...
  special bond factors lj:    0        1        1       
  special bond factors coul:  0        1        1       
     3 = max # of 1-2 neighbors
     3 = max # of special neighbors
  special bonds CPU = 0.000 seconds
create_bonds single/dihedral 4 1166 1167 1168 1169
Finding 1-2 1-3 1-4 neighbors ...
  special bond factors lj:    0        1        1       
  special bond factors coul:  0        1        1       
     3 = max # of 1-2 neighbors
     3 = max # of special neighbors
  special bonds CPU = 0.000 seconds
create_bonds single/dihedral 4 1167 1168 1169 1170
Finding 1-2 1-3 1-4 neighbors ...
  special bond factors lj:    0        1        1       
  special bond factors coul:  0        1        1       
     3 = max # of 1-2 neighbors
     3 = max # of special neighbors
  special bonds CPU = 0.000 seconds
create_bonds single/dihedral 4 1168 1169 1170 1171
Finding 1-2 1-3 1-4 neighbors ...
  special bond factors lj:    0        1        1       
  special bond factors coul:  0        1        1       
     3 = max # of 1-2 neighbors
     3 = max # of special neighbors
  special bonds CPU = 0.000 seconds
create_bonds single/dihedral 4 1169 1170 1171 1172
Finding 1-2 1-3 1-4 neighbors ...
  special bond factors lj:    0        1        1       
  special bond factors coul:  0        1        1       
     3 = max # of 1-2 neighbors
     3 = max # of special neighbors
  special bonds CPU = 0.000 seconds
create_bonds single/dihedral 4 1170 1171 1172 1173
Finding 1-2 1-3 1-4 neighbors ...
  special bond factors lj:    0        1        1       
  special bond factors coul:  0        1        1       
     3 = max # of 1-2 neighbors
     3 = max # of special neighbors
  special bonds CPU = 0.000 seconds
create_bonds single/dihedral 4 1171 1172 1173 1174
Finding 1-2 1-3 1-4 neighbors ...
  special bond factors lj:    0        1        1       
  special bond factors coul:  0        1        1       
     3 = max # of 1-2 neighbors
     3 = max # of special neighbors
  special bonds CPU = 0.000 seconds
create_bonds single/dihedral 4 1172 1173 1174 1175
Finding 1-2 1-3 1-4 neighbors ...
  special bond factors lj:    0        1        1       
  special bond factors coul:  0        1        1       
     3 = max # of 1-2 neighbors
     3 = max # of special neighbors
  special bonds CPU = 0.000 seconds
create_bonds single/dihedral 4 1173 1174 1175 1176
Finding 1-2 1-3 1-4 neighbors ...
  special bond factors lj:    0        1        1       
  special bond factors coul:  0        1        1       
     3 = max # of 1-2 neighbors
     3 = max # of special neighbors
  special bonds CPU = 0.000 seconds
create_bonds single/dihedral 4 1174 1175 1176 1177
Finding 1-2 1-3 1-4 neighbors ...
  special bond factors lj:    0        1        1       
  special bond factors coul:  0        1        1       
     3 = max # of 1-2 neighbors
     3 = max # of special neighbors
  special bonds CPU = 0.000 seconds
create_bonds single/dihedral 4 1175 1176 1177 1178
Finding 1-2 1-3 1-4 neighbors ...
  special bond factors lj:    0        1        1       
  special bond factors coul:  0        1        1       
     3 = max # of 1-2 neighbors
     3 = max # of special neighbors
  special bonds CPU = 0.000 seconds
create_bonds single/dihedral 4 1176 1177 1178 5
Finding 1-2 1-3 1-4 neighbors ...
  special bond factors lj:    0        1        1       
  special bond factors coul:  0        1        1       
     3 = max # of 1-2 neighbors
     3 = max # of special neighbors
  special bonds CPU = 0.000 seconds
create_bonds single/dihedral 4 5 1555 1556 1557
Finding 1-2 1-3 1-4 neighbors ...
  special bond factors lj:    0        1        1       
  special bond factors coul:  0        1        1       
     3 = max # of 1-2 neighbors
     3 = max # of special neighbors
  special bonds CPU = 0.000 seconds
create_bonds single/dihedral 4 1555 1556 1557 1558
Finding 1-2 1-3 1-4 neighbors ...
  special bond factors lj:    0        1        1       
  special bond factors coul:  0        1        1       
     3 = max # of 1-2 neighbors
     3 = max # of special neighbors
  special bonds CPU = 0.000 seconds
create_bonds single/dihedral 4 1556 1557 1558 1559
Finding 1-2 1-3 1-4 neighbors ...
  special bond factors lj:    0        1        1       
  special bond factors coul:  0        1        1       
     3 = max # of 1-2 neighbors
     3 = max # of special neighbors
  special bonds CPU = 0.000 seconds
create_bonds single/dihedral 4 1557 1558 1559 1560
Finding 1-2 1-3 1-4 neighbors ...
  special bond factors lj:    0        1        1       
  special bond factors coul:  0        1        1       
     3 = max # of 1-2 neighbors
     3 = max # of special neighbors
  special bonds CPU = 0.000 seconds
create_bonds single/dihedral 4 1558 1559 1560 1561
Finding 1-2 1-3 1-4 neighbors ...
  special bond factors lj:    0        1        1       
  special bond factors coul:  0        1        1       
     3 = max # of 1-2 neighbors
     3 = max # of special neighbors
  special bonds CPU = 0.000 seconds
create_bonds single/dihedral 4 1559 1560 1561 1562
Finding 1-2 1-3 1-4 neighbors ...
  special bond factors lj:    0        1        1       
  special bond factors coul:  0        1        1       
     3 = max # of 1-2 neighbors
     3 = max # of special neighbors
  special bonds CPU = 0.000 seconds
create_bonds single/dihedral 4 1560 1561 1562 1563
Finding 1-2 1-3 1-4 neighbors ...
  special bond factors lj:    0        1        1       
  special bond factors coul:  0        1        1       
     3 = max # of 1-2 neighbors
     3 = max # of special neighbors
  special bonds CPU = 0.000 seconds
create_bonds single/dihedral 4 1561 1562 1563 1564
Finding 1-2 1-3 1-4 neighbors ...
  special bond factors lj:    0        1        1       
  special bond factors coul:  0        1        1       
     3 = max # of 1-2 neighbors
     3 = max # of special neighbors
  special bonds CPU = 0.000 seconds
create_bonds single/dihedral 4 1562 1563 1564 1565
Finding 1-2 1-3 1-4 neighbors ...
  special bond factors lj:    0        1        1       
  special bond factors coul:  0        1        1       
     3 = max # of 1-2 neighbors
     3 = max # of special neighbors
  special bonds CPU = 0.000 seconds
create_bonds single/dihedral 4 1563 1564 1565 1566
Finding 1-2 1-3 1-4 neighbors ...
  special bond factors lj:    0        1        1       
  special bond factors coul:  0        1        1       
     3 = max # of 1-2 neighbors
     3 = max # of special neighbors
  special bonds CPU = 0.000 seconds
create_bonds single/dihedral 4 1564 1565 1566 1567
Finding 1-2 1-3 1-4 neighbors ...
  special bond factors lj:    0        1        1       
  special bond factors coul:  0        1        1       
     3 = max # of 1-2 neighbors
     3 = max # of special neighbors
  special bonds CPU = 0.000 seconds
create_bonds single/dihedral 4 1565 1566 1567 1568
Finding 1-2 1-3 1-4 neighbors ...
  special bond factors lj:    0        1        1       
  special bond factors coul:  0        1        1       
     3 = max # of 1-2 neighbors
     3 = max # of special neighbors
  special bonds CPU = 0.000 seconds
create_bonds single/dihedral 4 1566 1567 1568 1569
Finding 1-2 1-3 1-4 neighbors ...
  special bond factors lj:    0        1        1       
  special bond factors coul:  0        1        1       
     3 = max # of 1-2 neighbors
     3 = max # of special neighbors
  special bonds CPU = 0.000 seconds
create_bonds single/dihedral 4 1567 1568 1569 1570
Finding 1-2 1-3 1-4 neighbors ...
  special bond factors lj:    0        1        1       
  special bond factors coul:  0        1        1       
     3 = max # of 1-2 neighbors
     3 = max # of special neighbors
  special bonds CPU = 0.000 seconds
create_bonds single/dihedral 4 1568 1569 1570 1571
Finding 1-2 1-3 1-4 neighbors ...
  special bond factors lj:    0        1        1       
  special bond factors coul:  0        1        1       
     3 = max # of 1-2 neighbors
     3 = max # of special neighbors
  special bonds CPU = 0.000 seconds
create_bonds single/dihedral 4 1569 1570 1571 1572
Finding 1-2 1-3 1-4 neighbors ...
  special bond factors lj:    0        1        1       
  special bond factors coul:  0        1        1       
     3 = max # of 1-2 neighbors
     3 = max # of special neighbors
  special bonds CPU = 0.000 seconds
create_bonds single/dihedral 4 1570 1571 1572 1573
Finding 1-2 1-3 1-4 neighbors ...
  special bond factors lj:    0        1        1       
  special bond factors coul:  0        1        1       
     3 = max # of 1-2 neighbors
     3 = max # of special neighbors
  special bonds CPU = 0.000 seconds
create_bonds single/dihedral 4 1571 1572 1573 1574
Finding 1-2 1-3 1-4 neighbors ...
  special bond factors lj:    0        1        1       
  special bond factors coul:  0        1        1       
     3 = max # of 1-2 neighbors
     3 = max # of special neighbors
  special bonds CPU = 0.000 seconds
create_bonds single/dihedral 4 1572 1573 1574 7
Finding 1-2 1-3 1-4 neighbors ...
  special bond factors lj:    0        1        1       
  special bond factors coul:  0        1        1       
     3 = max # of 1-2 neighbors
     3 = max # of special neighbors
  special bonds CPU = 0.000 seconds
create_bonds single/dihedral 4 7 1951 1952 1953
Finding 1-2 1-3 1-4 neighbors ...
  special bond factors lj:    0        1        1       
  special bond factors coul:  0        1        1       
     3 = max # of 1-2 neighbors
     3 = max # of special neighbors
  special bonds CPU = 0.000 seconds
create_bonds single/dihedral 4 1951 1952 1953 1954
Finding 1-2 1-3 1-4 neighbors ...
  special bond factors lj:    0        1        1       
  special bond factors coul:  0        1        1       
     3 = max # of 1-2 neighbors
     3 = max # of special neighbors
  special bonds CPU = 0.000 seconds
create_bonds single/dihedral 4 1952 1953 1954 1955
Finding 1-2 1-3 1-4 neighbors ...
  special bond factors lj:    0        1        1       
  special bond factors coul:  0        1        1       
     3 = max # of 1-2 neighbors
     3 = max # of special neighbors
  special bonds CPU = 0.000 seconds
create_bonds single/dihedral 4 1953 1954 1955 1956
Finding 1-2 1-3 1-4 neighbors ...
  special bond factors lj:    0        1        1       
  special bond factors coul:  0        1        1       
     3 = max # of 1-2 neighbors
     3 = max # of special neighbors
  special bonds CPU = 0.000 seconds
create_bonds single/dihedral 4 1954 1955 1956 1957
Finding 1-2 1-3 1-4 neighbors ...
  special bond factors lj:    0        1        1       
  special bond factors coul:  0        1        1       
     3 = max # of 1-2 neighbors
     3 = max # of special neighbors
  special bonds CPU = 0.000 seconds
create_bonds single/dihedral 4 1955 1956 1957 1958
Finding 1-2 1-3 1-4 neighbors ...
  special bond factors lj:    0        1        1       
  special bond factors coul:  0        1        1       
     3 = max # of 1-2 neighbors
     3 = max # of special neighbors
  special bonds CPU = 0.000 seconds
create_bonds single/dihedral 4 1956 1957 1958 1959
Finding 1-2 1-3 1-4 neighbors ...
  special bond factors lj:    0        1        1       
  special bond factors coul:  0        1        1       
     3 = max # of 1-2 neighbors
     3 = max # of special neighbors
  special bonds CPU = 0.000 seconds
create_bonds single/dihedral 4 1957 1958 1959 1960
Finding 1-2 1-3 1-4 neighbors ...
  special bond factors lj:    0        1        1       
  special bond factors coul:  0        1        1       
     3 = max # of 1-2 neighbors
     3 = max # of special neighbors
  special bonds CPU = 0.000 seconds
create_bonds single/dihedral 4 1958 1959 1960 1961
Finding 1-2 1-3 1-4 neighbors ...
  special bond factors lj:    0        1        1       
  special bond factors coul:  0        1        1       
     3 = max # of 1-2 neighbors
     3 = max # of special neighbors
  special bonds CPU = 0.000 seconds
create_bonds single/dihedral 4 1959 1960 1961 1962
Finding 1-2 1-3 1-4 neighbors ...
  special bond factors lj:    0        1        1       
  special bond factors coul:  0        1        1       
     3 = max # of 1-2 neighbors
     3 = max # of special neighbors
  special bonds CPU = 0.000 seconds
create_bonds single/dihedral 4 1960 1961 1962 1963
Finding 1-2 1-3 1-4 neighbors ...
  special bond factors lj:    0        1        1       
  special bond factors coul:  0        1        1       
     3 = max # of 1-2 neighbors
     3 = max # of special neighbors
  special bonds CPU = 0.000 seconds
create_bonds single/dihedral 4 1961 1962 1963 1964
Finding 1-2 1-3 1-4 neighbors ...
  special bond factors lj:    0        1        1       
  special bond factors coul:  0        1        1       
     3 = max # of 1-2 neighbors
     3 = max # of special neighbors
  special bonds CPU = 0.000 seconds
create_bonds single/dihedral 4 1962 1963 1964 1965
Finding 1-2 1-3 1-4 neighbors ...
  special bond factors lj:    0        1        1       
  special bond factors coul:  0        1        1       
     3 = max # of 1-2 neighbors
     3 = max # of special neighbors
  special bonds CPU = 0.000 seconds
create_bonds single/dihedral 4 1963 1964 1965 1966
Finding 1-2 1-3 1-4 neighbors ...
  special bond factors lj:    0        1        1       
  special bond factors coul:  0        1        1       
     3 = max # of 1-2 neighbors
     3 = max # of special neighbors
  special bonds CPU = 0.000 seconds
create_bonds single/dihedral 4 1964 1965 1966 1967
Finding 1-2 1-3 1-4 neighbors ...
  special bond factors lj:    0        1        1       
  special bond factors coul:  0        1        1       
     3 = max # of 1-2 neighbors
     3 = max # of special neighbors
  special bonds CPU = 0.000 seconds
create_bonds single/dihedral 4 1965 1966 1967 1968
Finding 1-2 1-3 1-4 neighbors ...
  special bond factors lj:    0        1        1       
  special bond factors coul:  0        1        1       
     3 = max # of 1-2 neighbors
     3 = max # of special neighbors
  special bonds CPU = 0.000 seconds
create_bonds single/dihedral 4 1966 1967 1968 1969
Finding 1-2 1-3 1-4 neighbors ...
  special bond factors lj:    0        1        1       
  special bond factors coul:  0        1        1       
     3 = max # of 1-2 neighbors
     3 = max # of special neighbors
  special bonds CPU = 0.000 seconds
create_bonds single/dihedral 4 1967 1968 1969 1970
Finding 1-2 1-3 1-4 neighbors ...
  special bond factors lj:    0        1        1       
  special bond factors coul:  0        1        1       
     3 = max # of 1-2 neighbors
     3 = max # of special neighbors
  special bonds CPU = 0.000 seconds
create_bonds single/dihedral 4 1968 1969 1970 9
Finding 1-2 1-3 1-4 neighbors ...
  special bond factors lj:    0        1        1       
  special bond factors coul:  0        1        1       
     3 = max # of 1-2 neighbors
     3 = max # of special neighbors
  special bonds CPU = 0.000 seconds
angle_coeff 5 0.0012402573858515291 83.07997957247187
include structure/angle_5.txt
create_bonds single/angle 5 11 1 763
Finding 1-2 1-3 1-4 neighbors ...
  special bond factors lj:    0        1        1       
  special bond factors coul:  0        1        1       
     3 = max # of 1-2 neighbors
     3 = max # of special neighbors
  special bonds CPU = 0.000 seconds
create_bonds single/angle 5 387 3 1159
Finding 1-2 1-3 1-4 neighbors ...
  special bond factors lj:    0        1        1       
  special bond factors coul:  0        1        1       
     3 = max # of 1-2 neighbors
     3 = max # of special neighbors
  special bonds CPU = 0.000 seconds
create_bonds single/angle 5 783 5 1555
Finding 1-2 1-3 1-4 neighbors ...
  special bond factors lj:    0        1        1       
  special bond factors coul:  0        1        1       
     3 = max # of 1-2 neighbors
     3 = max # of special neighbors
  special bonds CPU = 0.000 seconds
angle_coeff 6 0.0012402573858515291 96.92002042752813
include structure/angle_6.txt
create_bonds single/angle 6 1575 9 1970
Finding 1-2 1-3 1-4 neighbors ...
  special bond factors lj:    0        1        1       
  special bond factors coul:  0        1        1       
     3 = max # of 1-2 neighbors
     3 = max # of special neighbors
  special bonds CPU = 0.000 seconds

group group_move_3 id 1 3 5 7 9 763 764 765 766 767 768 769 770 771 772 773 774 775 776 777 778 779 780 781 782 1159 1160 1161 1162 1163 1164 1165 1166 1167 1168 1169 1170 1171 1172 1173 1174 1175 1176 1177 1178 1555 1556 1557 1558 1559 1560 1561 1562 1563 1564 1565 1566 1567 1568 1569 1570 1571 1572 1573 1574 1951 1952 1953 1954 1955 1956 1957 1958 1959 1960 1961 1962 1963 1964 1965 1966 1967 1968 1969 1970 11 387 783 1179 1575
90 atoms in group group_move_3
fix fix_move_3 group_move_3 move wiggle 0 0 0.001 0.01

fix fix_viscosity_1 all viscous 0.002

fix grav all gravity 9.8 vector 0 0 -1

compute bendingE all pe/atom angle
compute stretchingE all pe/atom bond
dump pump all custom 1 raw/out*.dump id type radius x y z fx fy fz c_bendingE c_stretchingE
dump_modify pump pad 11

timestep 1e-07
dump_modify pump every 100000
run 10000000
Generated 0 of 4950 mixed pair_coeff terms from geometric mixing rule
WARNING: One or more atoms are time integrated more than once (src/src/modify.cpp:296)
Neighbor list info ...
  update: every = 1 steps, delay = 0 steps, check = yes
  max neighbors/atom: 50000, page size: 500000
  master list distance cutoff = 0.003
  ghost atom cutoff = 0.01
  binsize = 0.0015, bins = 80 8 74
  2 neighbor lists, perpetual/occasional/extra = 2 0 0
  (1) pair granular, perpetual
      attributes: half, newton on, size
      pair build: half/size/bin/newton
      stencil: half/bin/3d
      bin: standard
  (2) pair lj/cut, perpetual
      attributes: half, newton on
      pair build: half/bin/newton
      stencil: half/bin/3d
      bin: standard
Per MPI rank memory allocation (min/avg/max) = 82.28 | 82.28 | 82.28 Mbytes
   Step          Temp          E_pair         E_mol          TotEng         Press     
         0   0              0             -0.00071184989 -0.00071184989 -517.20849    
  10000000   8.1383157e+13  0             -0.0046543145  -0.0046509959   1.1121225    
Loop time of 9087.93 on 1 procs for 10000000 steps with 1970 atoms

98.6% CPU use with 1 MPI tasks x 1 OpenMP threads

MPI task timing breakdown:
Section |  min time  |  avg time  |  max time  |%varavg| %total
---------------------------------------------------------------
Pair    | 2259.2     | 2259.2     | 2259.2     |   0.0 | 24.86
Bond    | 5750.9     | 5750.9     | 5750.9     |   0.0 | 63.28
Neigh   | 0.98666    | 0.98666    | 0.98666    |   0.0 |  0.01
Comm    | 1.5446     | 1.5446     | 1.5446     |   0.0 |  0.02
Output  | 112.14     | 112.14     | 112.14     |   0.0 |  1.23
Modify  | 883.01     | 883.01     | 883.01     |   0.0 |  9.72
Other   |            | 80.13      |            |       |  0.88

Nlocal:           1970 ave        1970 max        1970 min
Histogram: 1 0 0 0 0 0 0 0 0 0
Nghost:              0 ave           0 max           0 min
Histogram: 1 0 0 0 0 0 0 0 0 0
Neighs:           4012 ave        4012 max        4012 min
Histogram: 1 0 0 0 0 0 0 0 0 0

Total # of neighbors = 4012
Ave neighs/atom = 2.0365482
Ave special neighs/atom = 1.9989848
Neighbor list builds = 599
Dangerous builds = 0
Total wall time: 2:31:29
