LAMMPS (29 Aug 2024 - Update 1)
  using 1 OpenMP thread(s) per MPI task
atom_style hybrid molecular sphere
WARNING: Atom style hybrid defines both, per-type and per-atom masses; both must be set, but only per-atom masses will be used (src/src/atom_vec_hybrid.cpp:132)
units si
processors	* * 1
comm_modify vel yes
comm_modify cutoff 0.01

region simulationStation block -0.060000000000000005 0.060000000000000005 -0.006 0.006 -0.055 0.055
create_box 100 simulationStation bond/types 100000 extra/bond/per/atom 100 angle/types 10000 extra/angle/per/atom 100 dihedral/types 1000 extra/dihedral/per/atom 100
Created orthogonal box = (-0.06 -0.006 -0.055) to (0.06 0.006 0.055)
  1 by 1 by 1 MPI processor grid
change_box	all boundary f f f
Changing box ...

pair_style hybrid/overlay granular lj/cut 0
pair_coeff  * * granular hertz/material 0 0 0 tangential linear_nohistory 0 0
pair_coeff  * * lj/cut 0 0 0

special_bonds lj/coul 0 1.0 1.0
Finding 1-2 1-3 1-4 neighbors ...
  special bond factors lj:    0        1        1       
  special bond factors coul:  0        1        1       
     0 = max # of 1-2 neighbors
     1 = max # of special neighbors
  special bonds CPU = 0.000 seconds
bond_style harmonic
angle_style cosine/shift
dihedral_style spherical

bond_coeff * 0 0
angle_coeff * 0 0
dihedral_coeff * 1 0 1 0 1 1 90 0 1 90 0
fix integration all nve/sphere
neigh_modify page 500000 one 50000


### Here we will begin to include particles ###


fix fix_walls_1 all wall/gran/region granular hertz/material 10000 0.25 0.25 tangential linear_nohistory 0 0 region simulationStation
pair_coeff * * granular hertz/material 10000 0 0.5 tangential linear_nohistory 0 0

include structure/node_1.txt
create_atoms 1 single -0.05 0.0 0.05
Created 1 atoms
  using lattice units in orthogonal box = (-0.06 -0.006 -0.055) to (0.06 0.006 0.055)
  create_atoms CPU = 0.000 seconds
set type 1 diameter 0.002
Setting atom values ...
  1 settings made for diameter
set type 1 density 0.5
Setting atom values ...
  1 settings made for density

include structure/node_2.txt
create_atoms 2 single -0.05 -6.858022075225178e-18 -0.05
Created 1 atoms
  using lattice units in orthogonal box = (-0.06 -0.006 -0.055) to (0.06 0.006 0.055)
  create_atoms CPU = 0.002 seconds
set type 2 diameter 0.002
Setting atom values ...
  1 settings made for diameter
set type 2 density 0.5
Setting atom values ...
  1 settings made for density

include structure/node_3.txt
create_atoms 3 single -0.030000000000000002 0.0 0.05
Created 1 atoms
  using lattice units in orthogonal box = (-0.06 -0.006 -0.055) to (0.06 0.006 0.055)
  create_atoms CPU = 0.000 seconds
set type 3 diameter 0.002
Setting atom values ...
  1 settings made for diameter
set type 3 density 0.5
Setting atom values ...
  1 settings made for density

include structure/node_4.txt
create_atoms 4 single -0.030000000000000002 -6.858022075225178e-18 -0.05
Created 1 atoms
  using lattice units in orthogonal box = (-0.06 -0.006 -0.055) to (0.06 0.006 0.055)
  create_atoms CPU = 0.000 seconds
set type 4 diameter 0.002
Setting atom values ...
  1 settings made for diameter
set type 4 density 0.5
Setting atom values ...
  1 settings made for density

include structure/node_5.txt
create_atoms 5 single -0.010000000000000002 0.0 0.05
Created 1 atoms
  using lattice units in orthogonal box = (-0.06 -0.006 -0.055) to (0.06 0.006 0.055)
  create_atoms CPU = 0.000 seconds
set type 5 diameter 0.002
Setting atom values ...
  1 settings made for diameter
set type 5 density 0.5
Setting atom values ...
  1 settings made for density

include structure/node_6.txt
create_atoms 6 single -0.010000000000000002 -6.858022075225178e-18 -0.05
Created 1 atoms
  using lattice units in orthogonal box = (-0.06 -0.006 -0.055) to (0.06 0.006 0.055)
  create_atoms CPU = 0.000 seconds
set type 6 diameter 0.002
Setting atom values ...
  1 settings made for diameter
set type 6 density 0.5
Setting atom values ...
  1 settings made for density

include structure/node_7.txt
create_atoms 7 single 0.009999999999999998 0.0 0.05
Created 1 atoms
  using lattice units in orthogonal box = (-0.06 -0.006 -0.055) to (0.06 0.006 0.055)
  create_atoms CPU = 0.000 seconds
set type 7 diameter 0.002
Setting atom values ...
  1 settings made for diameter
set type 7 density 0.5
Setting atom values ...
  1 settings made for density

include structure/node_8.txt
create_atoms 8 single 0.009999999999999998 -6.858022075225178e-18 -0.05
Created 1 atoms
  using lattice units in orthogonal box = (-0.06 -0.006 -0.055) to (0.06 0.006 0.055)
  create_atoms CPU = 0.000 seconds
set type 8 diameter 0.002
Setting atom values ...
  1 settings made for diameter
set type 8 density 0.5
Setting atom values ...
  1 settings made for density

include structure/node_9.txt
create_atoms 9 single 0.03 0.0 0.05
Created 1 atoms
  using lattice units in orthogonal box = (-0.06 -0.006 -0.055) to (0.06 0.006 0.055)
  create_atoms CPU = 0.000 seconds
set type 9 diameter 0.002
Setting atom values ...
  1 settings made for diameter
set type 9 density 0.5
Setting atom values ...
  1 settings made for density

include structure/node_10.txt
create_atoms 10 single 0.03 -6.858022075225178e-18 -0.05
Created 1 atoms
  using lattice units in orthogonal box = (-0.06 -0.006 -0.055) to (0.06 0.006 0.055)
  create_atoms CPU = 0.000 seconds
set type 10 diameter 0.002
Setting atom values ...
  1 settings made for diameter
set type 10 density 0.5
Setting atom values ...
  1 settings made for density

include structure/element_11.txt
create_atoms 11 single -0.050094442317745576 0.000864071287905934 0.04950495049504951
Created 1 atoms
  using lattice units in orthogonal box = (-0.06 -0.006 -0.055) to (0.06 0.006 0.055)
  create_atoms CPU = 0.000 seconds
create_atoms 11 single -0.05037330959529171 0.001687340128248249 0.04900990099009901
Created 1 atoms
  using lattice units in orthogonal box = (-0.06 -0.006 -0.055) to (0.06 0.006 0.055)
  create_atoms CPU = 0.000 seconds
create_atoms 11 single -0.05082343339662099 0.0024309308123221266 0.048514851485148516
Created 1 atoms
  using lattice units in orthogonal box = (-0.06 -0.006 -0.055) to (0.06 0.006 0.055)
  create_atoms CPU = 0.000 seconds
create_atoms 11 single -0.051423558354198415 0.00305973012629859 0.04801980198019802
Created 1 atoms
  using lattice units in orthogonal box = (-0.06 -0.006 -0.055) to (0.06 0.006 0.055)
  create_atoms CPU = 0.000 seconds
create_atoms 11 single -0.05214534587205869 0.0035440454378732594 0.047524752475247525
Created 1 atoms
  using lattice units in orthogonal box = (-0.06 -0.006 -0.055) to (0.06 0.006 0.055)
  create_atoms CPU = 0.000 seconds
create_atoms 11 single -0.05295471230714856 0.0038610068167737426 0.04702970297029703
Created 1 atoms
  using lattice units in orthogonal box = (-0.06 -0.006 -0.055) to (0.06 0.006 0.055)
  create_atoms CPU = 0.000 seconds
create_atoms 11 single -0.05381343843845034 0.0039956469793704435 0.046534653465346534
Created 1 atoms
  using lattice units in orthogonal box = (-0.06 -0.006 -0.055) to (0.06 0.006 0.055)
  create_atoms CPU = 0.000 seconds
create_atoms 11 single -0.054680974222889596 0.0039416080611547255 0.04603960396039604
Created 1 atoms
  using lattice units in orthogonal box = (-0.06 -0.006 -0.055) to (0.06 0.006 0.055)
  create_atoms CPU = 0.000 seconds
create_atoms 11 single -0.055516353615361516 0.0037014418424689667 0.04554455445544555
Created 1 atoms
  using lattice units in orthogonal box = (-0.06 -0.006 -0.055) to (0.06 0.006 0.055)
  create_atoms CPU = 0.000 seconds
create_atoms 11 single -0.05628012903285513 0.003286489250481603 0.04504950495049505
Created 1 atoms
  using lattice units in orthogonal box = (-0.06 -0.006 -0.055) to (0.06 0.006 0.055)
  create_atoms CPU = 0.000 seconds
create_atoms 11 single -0.05693623411503784 0.0027163448274635437 0.04455445544554456
Created 1 atoms
  using lattice units in orthogonal box = (-0.06 -0.006 -0.055) to (0.06 0.006 0.055)
  create_atoms CPU = 0.000 seconds
create_atoms 11 single -0.05745368681958666 0.00201793145379456 0.044059405940594064
Created 1 atoms
  using lattice units in orthogonal box = (-0.06 -0.006 -0.055) to (0.06 0.006 0.055)
  create_atoms CPU = 0.000 seconds
create_atoms 11 single -0.05780805243013092 0.001224229018351549 0.04356435643564357
Created 1 atoms
  using lattice units in orthogonal box = (-0.06 -0.006 -0.055) to (0.06 0.006 0.055)
  create_atoms CPU = 0.000 seconds
create_atoms 11 single -0.05798259739187608 0.00037271706993628506 0.04306930693069307
Created 1 atoms
  using lattice units in orthogonal box = (-0.06 -0.006 -0.055) to (0.06 0.006 0.055)
  create_atoms CPU = 0.000 seconds
create_atoms 11 single -0.05796907948945311 -0.0004963950104530359 0.04257425742574258
Created 1 atoms
  using lattice units in orthogonal box = (-0.06 -0.006 -0.055) to (0.06 0.006 0.055)
  create_atoms CPU = 0.000 seconds
create_atoms 11 single -0.05776813705387996 -0.0013420667431900994 0.04207920792079208
Created 1 atoms
  using lattice units in orthogonal box = (-0.06 -0.006 -0.055) to (0.06 0.006 0.055)
  create_atoms CPU = 0.000 seconds
create_atoms 11 single -0.05738925881983111 -0.0021243645290291006 0.041584158415841586
Created 1 atoms
  using lattice units in orthogonal box = (-0.06 -0.006 -0.055) to (0.06 0.006 0.055)
  create_atoms CPU = 0.000 seconds
create_atoms 11 single -0.05685033585659003 -0.0028063473599391057 0.04108910891089109
Created 1 atoms
  using lattice units in orthogonal box = (-0.06 -0.006 -0.055) to (0.06 0.006 0.055)
  create_atoms CPU = 0.000 seconds
create_atoms 11 single -0.056176816731024114 -0.003355811216313204 0.040594059405940595
Created 1 atoms
  using lattice units in orthogonal box = (-0.06 -0.006 -0.055) to (0.06 0.006 0.055)
  create_atoms CPU = 0.000 seconds
create_atoms 11 single -0.055400505796765566 -0.0037468097780946996 0.0400990099009901
Created 1 atoms
  using lattice units in orthogonal box = (-0.06 -0.006 -0.055) to (0.06 0.006 0.055)
  create_atoms CPU = 0.000 seconds
create_atoms 11 single -0.05455806135577569 -0.003960879640078678 0.039603960396039604
Created 1 atoms
  using lattice units in orthogonal box = (-0.06 -0.006 -0.055) to (0.06 0.006 0.055)
  create_atoms CPU = 0.000 seconds
create_atoms 11 single -0.05368926461084398 -0.003987912175302517 0.03910891089108911
Created 1 atoms
  using lattice units in orthogonal box = (-0.06 -0.006 -0.055) to (0.06 0.006 0.055)
  create_atoms CPU = 0.000 seconds
create_atoms 11 single -0.052835141151090996 -0.0038266308761256787 0.03861386138613861
Created 1 atoms
  using lattice units in orthogonal box = (-0.06 -0.006 -0.055) to (0.06 0.006 0.055)
  create_atoms CPU = 0.000 seconds
create_atoms 11 single -0.05203602367610671 -0.0034846516323998023 0.038118811881188125
Created 1 atoms
  using lattice units in orthogonal box = (-0.06 -0.006 -0.055) to (0.06 0.006 0.055)
  create_atoms CPU = 0.000 seconds
create_atoms 11 single -0.05132964743913539 -0.002978123100324061 0.03762376237623763
Created 1 atoms
  using lattice units in orthogonal box = (-0.06 -0.006 -0.055) to (0.06 0.006 0.055)
  create_atoms CPU = 0.000 seconds
create_atoms 11 single -0.050749368344687004 -0.0023309641441852033 0.037128712871287134
Created 1 atoms
  using lattice units in orthogonal box = (-0.06 -0.006 -0.055) to (0.06 0.006 0.055)
  create_atoms CPU = 0.000 seconds
create_atoms 11 single -0.05032258784407106 -0.001573734359867008 0.03663366336633664
Created 1 atoms
  using lattice units in orthogonal box = (-0.06 -0.006 -0.055) to (0.06 0.006 0.055)
  create_atoms CPU = 0.000 seconds
create_atoms 11 single -0.05006945900711095 -0.0007421910153179708 0.03613861386138614
Created 1 atoms
  using lattice units in orthogonal box = (-0.06 -0.006 -0.055) to (0.06 0.006 0.055)
  create_atoms CPU = 0.000 seconds
create_atoms 11 single -0.05000193487083205 0.00012439944907934375 0.03564356435643565
Created 1 atoms
  using lattice units in orthogonal box = (-0.06 -0.006 -0.055) to (0.06 0.006 0.055)
  create_atoms CPU = 0.000 seconds
create_atoms 11 single -0.05012320400320134 0.0009851156273280024 0.03514851485148515
Created 1 atoms
  using lattice units in orthogonal box = (-0.06 -0.006 -0.055) to (0.06 0.006 0.055)
  create_atoms CPU = 0.000 seconds
create_atoms 11 single -0.050427539935252834 0.0017993135040305413 0.034653465346534656
Created 1 atoms
  using lattice units in orthogonal box = (-0.06 -0.006 -0.055) to (0.06 0.006 0.055)
  create_atoms CPU = 0.000 seconds
create_atoms 11 single -0.05090057157158844 0.0025285457118973047 0.03415841584158416
Created 1 atoms
  using lattice units in orthogonal box = (-0.06 -0.006 -0.055) to (0.06 0.006 0.055)
  create_atoms CPU = 0.000 seconds
create_atoms 11 single -0.0515199618101569 0.0031383770609854636 0.033663366336633666
Created 1 atoms
  using lattice units in orthogonal box = (-0.06 -0.006 -0.055) to (0.06 0.006 0.055)
  create_atoms CPU = 0.000 seconds
create_atoms 11 single -0.05225646232609852 0.0036000106082741206 0.03316831683168317
Created 1 atoms
  using lattice units in orthogonal box = (-0.06 -0.006 -0.055) to (0.06 0.006 0.055)
  create_atoms CPU = 0.000 seconds
create_atoms 11 single -0.05307529471154013 0.00389164748268575 0.032673267326732675
Created 1 atoms
  using lattice units in orthogonal box = (-0.06 -0.006 -0.055) to (0.06 0.006 0.055)
  create_atoms CPU = 0.000 seconds
create_atoms 11 single -0.053937792752318595 0.003999516253040598 0.03217821782178218
Created 1 atoms
  using lattice units in orthogonal box = (-0.06 -0.006 -0.055) to (0.06 0.006 0.055)
  create_atoms CPU = 0.000 seconds
create_atoms 11 single -0.054803228291422874 0.003918523230996327 0.031683168316831684
Created 1 atoms
  using lattice units in orthogonal box = (-0.06 -0.006 -0.055) to (0.06 0.006 0.055)
  create_atoms CPU = 0.000 seconds
create_atoms 11 single -0.055630734459766754 0.003652493000914477 0.031188118811881188
Created 1 atoms
  using lattice units in orthogonal box = (-0.06 -0.006 -0.055) to (0.06 0.006 0.055)
  create_atoms CPU = 0.000 seconds
create_atoms 11 single -0.05638123545710667 0.003213987818554702 0.030693069306930693
Created 1 atoms
  using lattice units in orthogonal box = (-0.06 -0.006 -0.055) to (0.06 0.006 0.055)
  create_atoms CPU = 0.000 seconds
create_atoms 11 single -0.05701929175661303 0.002623714406799761 0.030198019801980197
Created 1 atoms
  using lattice units in orthogonal box = (-0.06 -0.006 -0.055) to (0.06 0.006 0.055)
  create_atoms CPU = 0.000 seconds
create_atoms 11 single -0.05751477360039708 0.001909546160204506 0.0297029702970297
Created 1 atoms
  using lattice units in orthogonal box = (-0.06 -0.006 -0.055) to (0.06 0.006 0.055)
  create_atoms CPU = 0.000 seconds
create_atoms 11 single -0.0578442837615949 0.0011052069310033212 0.02920792079207921
Created 1 atoms
  using lattice units in orthogonal box = (-0.06 -0.006 -0.055) to (0.06 0.006 0.055)
  create_atoms CPU = 0.000 seconds
create_atoms 11 single -0.05799226238853438 0.00024867854972592484 0.028712871287128714
Created 1 atoms
  using lattice units in orthogonal box = (-0.06 -0.006 -0.055) to (0.06 0.006 0.055)
  create_atoms CPU = 0.000 seconds
create_atoms 11 single -0.05795172175896303 -0.0006195927208563403 0.02821782178217822
Created 1 atoms
  using lattice units in orthogonal box = (-0.06 -0.006 -0.055) to (0.06 0.006 0.055)
  create_atoms CPU = 0.000 seconds
create_atoms 11 single -0.05772457624839064 -0.0014586061051306196 0.027722772277227723
Created 1 atoms
  using lattice units in orthogonal box = (-0.06 -0.006 -0.055) to (0.06 0.006 0.055)
  create_atoms CPU = 0.000 seconds
create_atoms 11 single -0.05732155193105919 -0.002228742418781717 0.027227722772277228
Created 1 atoms
  using lattice units in orthogonal box = (-0.06 -0.006 -0.055) to (0.06 0.006 0.055)
  create_atoms CPU = 0.000 seconds
create_atoms 11 single -0.05676168008228699 -0.0028936349325889995 0.026732673267326732
Created 1 atoms
  using lattice units in orthogonal box = (-0.06 -0.006 -0.055) to (0.06 0.006 0.055)
  create_atoms CPU = 0.000 seconds
create_atoms 11 single -0.056071398499593306 -0.0034218866515246544 0.02623762376237624
Created 1 atoms
  using lattice units in orthogonal box = (-0.06 -0.006 -0.055) to (0.06 0.006 0.055)
  create_atoms CPU = 0.000 seconds
create_atoms 11 single -0.05528330307926148 -0.0037885529172439992 0.025742574257425745
Created 1 atoms
  using lattice units in orthogonal box = (-0.06 -0.006 -0.055) to (0.06 0.006 0.055)
  create_atoms CPU = 0.000 seconds
create_atoms 11 single -0.054434608600341904 -0.00397631932376021 0.02524752475247525
Created 1 atoms
  using lattice units in orthogonal box = (-0.06 -0.006 -0.055) to (0.06 0.006 0.055)
  create_atoms CPU = 0.000 seconds
create_atoms 11 single -0.05356539139965811 -0.003976319323760211 0.024752475247524754
Created 1 atoms
  using lattice units in orthogonal box = (-0.06 -0.006 -0.055) to (0.06 0.006 0.055)
  create_atoms CPU = 0.000 seconds
create_atoms 11 single -0.05271669692073853 -0.0037885529172440005 0.024257425742574258
Created 1 atoms
  using lattice units in orthogonal box = (-0.06 -0.006 -0.055) to (0.06 0.006 0.055)
  create_atoms CPU = 0.000 seconds
create_atoms 11 single -0.0519286015004067 -0.003421886651524656 0.023762376237623763
Created 1 atoms
  using lattice units in orthogonal box = (-0.06 -0.006 -0.055) to (0.06 0.006 0.055)
  create_atoms CPU = 0.000 seconds
create_atoms 11 single -0.051238319917713014 -0.002893634932588997 0.023267326732673267
Created 1 atoms
  using lattice units in orthogonal box = (-0.06 -0.006 -0.055) to (0.06 0.006 0.055)
  create_atoms CPU = 0.000 seconds
create_atoms 11 single -0.05067844806894081 -0.002228742418781714 0.02277227722772277
Created 1 atoms
  using lattice units in orthogonal box = (-0.06 -0.006 -0.055) to (0.06 0.006 0.055)
  create_atoms CPU = 0.000 seconds
create_atoms 11 single -0.050275423751609365 -0.0014586061051306163 0.022277227722772276
Created 1 atoms
  using lattice units in orthogonal box = (-0.06 -0.006 -0.055) to (0.06 0.006 0.055)
  create_atoms CPU = 0.000 seconds
create_atoms 11 single -0.05004827824103698 -0.0006195927208563367 0.02178217821782178
Created 1 atoms
  using lattice units in orthogonal box = (-0.06 -0.006 -0.055) to (0.06 0.006 0.055)
  create_atoms CPU = 0.000 seconds
create_atoms 11 single -0.050007737611465625 0.0002486785497259143 0.021287128712871292
Created 1 atoms
  using lattice units in orthogonal box = (-0.06 -0.006 -0.055) to (0.06 0.006 0.055)
  create_atoms CPU = 0.000 seconds
create_atoms 11 single -0.050155716238405104 0.001105206931003318 0.020792079207920797
Created 1 atoms
  using lattice units in orthogonal box = (-0.06 -0.006 -0.055) to (0.06 0.006 0.055)
  create_atoms CPU = 0.000 seconds
create_atoms 11 single -0.05048522639960292 0.001909546160204503 0.0202970297029703
Created 1 atoms
  using lattice units in orthogonal box = (-0.06 -0.006 -0.055) to (0.06 0.006 0.055)
  create_atoms CPU = 0.000 seconds
create_atoms 11 single -0.05098070824338698 0.0026237144067997585 0.019801980198019806
Created 1 atoms
  using lattice units in orthogonal box = (-0.06 -0.006 -0.055) to (0.06 0.006 0.055)
  create_atoms CPU = 0.000 seconds
create_atoms 11 single -0.05161876454289333 0.0032139878185547 0.01930693069306931
Created 1 atoms
  using lattice units in orthogonal box = (-0.06 -0.006 -0.055) to (0.06 0.006 0.055)
  create_atoms CPU = 0.000 seconds
create_atoms 11 single -0.052369265540233245 0.0036524930009144752 0.018811881188118815
Created 1 atoms
  using lattice units in orthogonal box = (-0.06 -0.006 -0.055) to (0.06 0.006 0.055)
  create_atoms CPU = 0.000 seconds
create_atoms 11 single -0.053196771708577124 0.003918523230996326 0.01831683168316832
Created 1 atoms
  using lattice units in orthogonal box = (-0.06 -0.006 -0.055) to (0.06 0.006 0.055)
  create_atoms CPU = 0.000 seconds
create_atoms 11 single -0.054062207247681404 0.003999516253040598 0.017821782178217824
Created 1 atoms
  using lattice units in orthogonal box = (-0.06 -0.006 -0.055) to (0.06 0.006 0.055)
  create_atoms CPU = 0.000 seconds
create_atoms 11 single -0.05492470528845988 0.00389164748268575 0.017326732673267328
Created 1 atoms
  using lattice units in orthogonal box = (-0.06 -0.006 -0.055) to (0.06 0.006 0.055)
  create_atoms CPU = 0.000 seconds
create_atoms 11 single -0.05574353767390149 0.003600010608274119 0.016831683168316833
Created 1 atoms
  using lattice units in orthogonal box = (-0.06 -0.006 -0.055) to (0.06 0.006 0.055)
  create_atoms CPU = 0.000 seconds
create_atoms 11 single -0.0564800381898431 0.0031383770609854636 0.016336633663366337
Created 1 atoms
  using lattice units in orthogonal box = (-0.06 -0.006 -0.055) to (0.06 0.006 0.055)
  create_atoms CPU = 0.000 seconds
create_atoms 11 single -0.057099428428411564 0.002528545711897302 0.015841584158415842
Created 1 atoms
  using lattice units in orthogonal box = (-0.06 -0.006 -0.055) to (0.06 0.006 0.055)
  create_atoms CPU = 0.000 seconds
create_atoms 11 single -0.05757246006474717 0.0017993135040305413 0.015346534653465346
Created 1 atoms
  using lattice units in orthogonal box = (-0.06 -0.006 -0.055) to (0.06 0.006 0.055)
  create_atoms CPU = 0.000 seconds
create_atoms 11 single -0.057876795996798666 0.0009851156273280128 0.014851485148514858
Created 1 atoms
  using lattice units in orthogonal box = (-0.06 -0.006 -0.055) to (0.06 0.006 0.055)
  create_atoms CPU = 0.000 seconds
create_atoms 11 single -0.057998065129167956 0.00012439944907935075 0.014356435643564362
Created 1 atoms
  using lattice units in orthogonal box = (-0.06 -0.006 -0.055) to (0.06 0.006 0.055)
  create_atoms CPU = 0.000 seconds
create_atoms 11 single -0.05793054099288906 -0.0007421910153179674 0.013861386138613867
Created 1 atoms
  using lattice units in orthogonal box = (-0.06 -0.006 -0.055) to (0.06 0.006 0.055)
  create_atoms CPU = 0.000 seconds
create_atoms 11 single -0.05767741215592895 -0.0015737343598670082 0.013366336633663371
Created 1 atoms
  using lattice units in orthogonal box = (-0.06 -0.006 -0.055) to (0.06 0.006 0.055)
  create_atoms CPU = 0.000 seconds
create_atoms 11 single -0.05725063165531301 -0.0023309641441852007 0.012871287128712876
Created 1 atoms
  using lattice units in orthogonal box = (-0.06 -0.006 -0.055) to (0.06 0.006 0.055)
  create_atoms CPU = 0.000 seconds
create_atoms 11 single -0.056670352560864626 -0.0029781231003240564 0.012376237623762373
Created 1 atoms
  using lattice units in orthogonal box = (-0.06 -0.006 -0.055) to (0.06 0.006 0.055)
  create_atoms CPU = 0.000 seconds
create_atoms 11 single -0.055963976323893286 -0.003484651632399804 0.011881188118811878
Created 1 atoms
  using lattice units in orthogonal box = (-0.06 -0.006 -0.055) to (0.06 0.006 0.055)
  create_atoms CPU = 0.000 seconds
create_atoms 11 single -0.05516485884890901 -0.0038266308761256795 0.011386138613861382
Created 1 atoms
  using lattice units in orthogonal box = (-0.06 -0.006 -0.055) to (0.06 0.006 0.055)
  create_atoms CPU = 0.000 seconds
create_atoms 11 single -0.054310735389156026 -0.003987912175302517 0.010891089108910887
Created 1 atoms
  using lattice units in orthogonal box = (-0.06 -0.006 -0.055) to (0.06 0.006 0.055)
  create_atoms CPU = 0.000 seconds
create_atoms 11 single -0.053441938644224314 -0.003960879640078678 0.010396039603960391
Created 1 atoms
  using lattice units in orthogonal box = (-0.06 -0.006 -0.055) to (0.06 0.006 0.055)
  create_atoms CPU = 0.000 seconds
create_atoms 11 single -0.05259949420323443 -0.0037468097780946974 0.009900990099009896
Created 1 atoms
  using lattice units in orthogonal box = (-0.06 -0.006 -0.055) to (0.06 0.006 0.055)
  create_atoms CPU = 0.000 seconds
create_atoms 11 single -0.05182318326897589 -0.003355811216313202 0.0094059405940594
Created 1 atoms
  using lattice units in orthogonal box = (-0.06 -0.006 -0.055) to (0.06 0.006 0.055)
  create_atoms CPU = 0.000 seconds
create_atoms 11 single -0.051149664143409976 -0.0028063473599391044 0.008910891089108905
Created 1 atoms
  using lattice units in orthogonal box = (-0.06 -0.006 -0.055) to (0.06 0.006 0.055)
  create_atoms CPU = 0.000 seconds
create_atoms 11 single -0.050610741180168894 -0.0021243645290291006 0.008415841584158416
Created 1 atoms
  using lattice units in orthogonal box = (-0.06 -0.006 -0.055) to (0.06 0.006 0.055)
  create_atoms CPU = 0.000 seconds
create_atoms 11 single -0.050231862946120046 -0.0013420667431901026 0.007920792079207921
Created 1 atoms
  using lattice units in orthogonal box = (-0.06 -0.006 -0.055) to (0.06 0.006 0.055)
  create_atoms CPU = 0.000 seconds
create_atoms 11 single -0.050030920510546896 -0.0004963950104530428 0.007425742574257425
Created 1 atoms
  using lattice units in orthogonal box = (-0.06 -0.006 -0.055) to (0.06 0.006 0.055)
  create_atoms CPU = 0.000 seconds
create_atoms 11 single -0.05001740260812393 0.0003727170699362781 0.00693069306930693
Created 1 atoms
  using lattice units in orthogonal box = (-0.06 -0.006 -0.055) to (0.06 0.006 0.055)
  create_atoms CPU = 0.000 seconds
create_atoms 11 single -0.05019194756986908 0.0012242290183515526 0.006435643564356434
Created 1 atoms
  using lattice units in orthogonal box = (-0.06 -0.006 -0.055) to (0.06 0.006 0.055)
  create_atoms CPU = 0.000 seconds
create_atoms 11 single -0.050546313180413346 0.00201793145379456 0.005940594059405939
Created 1 atoms
  using lattice units in orthogonal box = (-0.06 -0.006 -0.055) to (0.06 0.006 0.055)
  create_atoms CPU = 0.000 seconds
create_atoms 11 single -0.05106376588496216 0.0027163448274635424 0.0054455445544554434
Created 1 atoms
  using lattice units in orthogonal box = (-0.06 -0.006 -0.055) to (0.06 0.006 0.055)
  create_atoms CPU = 0.000 seconds
create_atoms 11 single -0.051719870967144865 0.0032864892504816 0.004950495049504948
Created 1 atoms
  using lattice units in orthogonal box = (-0.06 -0.006 -0.055) to (0.06 0.006 0.055)
  create_atoms CPU = 0.000 seconds
create_atoms 11 single -0.05248364638463849 0.003701441842468969 0.0044554455445544525
Created 1 atoms
  using lattice units in orthogonal box = (-0.06 -0.006 -0.055) to (0.06 0.006 0.055)
  create_atoms CPU = 0.000 seconds
create_atoms 11 single -0.05331902577711041 0.003941608061154726 0.003960396039603957
Created 1 atoms
  using lattice units in orthogonal box = (-0.06 -0.006 -0.055) to (0.06 0.006 0.055)
  create_atoms CPU = 0.000 seconds
create_atoms 11 single -0.054186561561549676 0.0039956469793704435 0.0034653465346534615
Created 1 atoms
  using lattice units in orthogonal box = (-0.06 -0.006 -0.055) to (0.06 0.006 0.055)
  create_atoms CPU = 0.000 seconds
create_atoms 11 single -0.05504528769285144 0.003861006816773743 0.002970297029702966
Created 1 atoms
  using lattice units in orthogonal box = (-0.06 -0.006 -0.055) to (0.06 0.006 0.055)
  create_atoms CPU = 0.000 seconds
create_atoms 11 single -0.05585465412794131 0.0035440454378732615 0.0024752475247524774
Created 1 atoms
  using lattice units in orthogonal box = (-0.06 -0.006 -0.055) to (0.06 0.006 0.055)
  create_atoms CPU = 0.000 seconds
create_atoms 11 single -0.05657644164580159 0.003059730126298595 0.001980198019801982
Created 1 atoms
  using lattice units in orthogonal box = (-0.06 -0.006 -0.055) to (0.06 0.006 0.055)
  create_atoms CPU = 0.000 seconds
create_atoms 11 single -0.05717656660337901 0.002430930812322134 0.0014851485148514865
Created 1 atoms
  using lattice units in orthogonal box = (-0.06 -0.006 -0.055) to (0.06 0.006 0.055)
  create_atoms CPU = 0.000 seconds
create_atoms 11 single -0.057626690404708296 0.0016873401282482474 0.000990099009900991
Created 1 atoms
  using lattice units in orthogonal box = (-0.06 -0.006 -0.055) to (0.06 0.006 0.055)
  create_atoms CPU = 0.000 seconds
create_atoms 11 single -0.05790555768225443 0.0008640712879059347 0.0004950495049504955
Created 1 atoms
  using lattice units in orthogonal box = (-0.06 -0.006 -0.055) to (0.06 0.006 0.055)
  create_atoms CPU = 0.000 seconds
create_atoms 11 single -0.058 3.429011037612589e-18 0.0
Created 1 atoms
  using lattice units in orthogonal box = (-0.06 -0.006 -0.055) to (0.06 0.006 0.055)
  create_atoms CPU = 0.000 seconds
create_atoms 11 single -0.05790555768225443 -0.000864071287905928 -0.0004950495049504955
Created 1 atoms
  using lattice units in orthogonal box = (-0.06 -0.006 -0.055) to (0.06 0.006 0.055)
  create_atoms CPU = 0.000 seconds
create_atoms 11 single -0.057626690404708296 -0.0016873401282482413 -0.000990099009900991
Created 1 atoms
  using lattice units in orthogonal box = (-0.06 -0.006 -0.055) to (0.06 0.006 0.055)
  create_atoms CPU = 0.000 seconds
create_atoms 11 single -0.05717656660337901 -0.002430930812322129 -0.0014851485148514865
Created 1 atoms
  using lattice units in orthogonal box = (-0.06 -0.006 -0.055) to (0.06 0.006 0.055)
  create_atoms CPU = 0.000 seconds
create_atoms 11 single -0.05657644164580159 -0.00305973012629859 -0.001980198019801982
Created 1 atoms
  using lattice units in orthogonal box = (-0.06 -0.006 -0.055) to (0.06 0.006 0.055)
  create_atoms CPU = 0.000 seconds
create_atoms 11 single -0.055854654127941314 -0.0035440454378732576 -0.0024752475247524774
Created 1 atoms
  using lattice units in orthogonal box = (-0.06 -0.006 -0.055) to (0.06 0.006 0.055)
  create_atoms CPU = 0.000 seconds
create_atoms 11 single -0.05504528769285145 -0.0038610068167737412 -0.002970297029702973
Created 1 atoms
  using lattice units in orthogonal box = (-0.06 -0.006 -0.055) to (0.06 0.006 0.055)
  create_atoms CPU = 0.000 seconds
create_atoms 11 single -0.05418656156154967 -0.0039956469793704435 -0.0034653465346534684
Created 1 atoms
  using lattice units in orthogonal box = (-0.06 -0.006 -0.055) to (0.06 0.006 0.055)
  create_atoms CPU = 0.000 seconds
create_atoms 11 single -0.0533190257771104 -0.003941608061154725 -0.003960396039603964
Created 1 atoms
  using lattice units in orthogonal box = (-0.06 -0.006 -0.055) to (0.06 0.006 0.055)
  create_atoms CPU = 0.000 seconds
create_atoms 11 single -0.05248364638463848 -0.0037014418424689663 -0.004455445544554459
Created 1 atoms
  using lattice units in orthogonal box = (-0.06 -0.006 -0.055) to (0.06 0.006 0.055)
  create_atoms CPU = 0.000 seconds
create_atoms 11 single -0.05171987096714487 -0.003286489250481604 -0.004950495049504955
Created 1 atoms
  using lattice units in orthogonal box = (-0.06 -0.006 -0.055) to (0.06 0.006 0.055)
  create_atoms CPU = 0.000 seconds
create_atoms 11 single -0.051063765884962156 -0.0027163448274635372 -0.00544554455445545
Created 1 atoms
  using lattice units in orthogonal box = (-0.06 -0.006 -0.055) to (0.06 0.006 0.055)
  create_atoms CPU = 0.000 seconds
create_atoms 11 single -0.050546313180413346 -0.002017931453794553 -0.005940594059405946
Created 1 atoms
  using lattice units in orthogonal box = (-0.06 -0.006 -0.055) to (0.06 0.006 0.055)
  create_atoms CPU = 0.000 seconds
create_atoms 11 single -0.05019194756986908 -0.0012242290183515454 -0.006435643564356441
Created 1 atoms
  using lattice units in orthogonal box = (-0.06 -0.006 -0.055) to (0.06 0.006 0.055)
  create_atoms CPU = 0.000 seconds
create_atoms 11 single -0.05001740260812393 -0.00037271706993628496 -0.006930693069306937
Created 1 atoms
  using lattice units in orthogonal box = (-0.06 -0.006 -0.055) to (0.06 0.006 0.055)
  create_atoms CPU = 0.000 seconds
create_atoms 11 single -0.050030920510546896 0.0004963950104530219 -0.0074257425742574185
Created 1 atoms
  using lattice units in orthogonal box = (-0.06 -0.006 -0.055) to (0.06 0.006 0.055)
  create_atoms CPU = 0.000 seconds
create_atoms 11 single -0.050231862946120046 0.001342066743190096 -0.007920792079207914
Created 1 atoms
  using lattice units in orthogonal box = (-0.06 -0.006 -0.055) to (0.06 0.006 0.055)
  create_atoms CPU = 0.000 seconds
create_atoms 11 single -0.05061074118016889 0.0021243645290290945 -0.00841584158415841
Created 1 atoms
  using lattice units in orthogonal box = (-0.06 -0.006 -0.055) to (0.06 0.006 0.055)
  create_atoms CPU = 0.000 seconds
create_atoms 11 single -0.05114966414340997 0.0028063473599390996 -0.008910891089108905
Created 1 atoms
  using lattice units in orthogonal box = (-0.06 -0.006 -0.055) to (0.06 0.006 0.055)
  create_atoms CPU = 0.000 seconds
create_atoms 11 single -0.051823183268975885 0.003355811216313198 -0.0094059405940594
Created 1 atoms
  using lattice units in orthogonal box = (-0.06 -0.006 -0.055) to (0.06 0.006 0.055)
  create_atoms CPU = 0.000 seconds
create_atoms 11 single -0.052599494203234426 0.003746809778094695 -0.009900990099009896
Created 1 atoms
  using lattice units in orthogonal box = (-0.06 -0.006 -0.055) to (0.06 0.006 0.055)
  create_atoms CPU = 0.000 seconds
create_atoms 11 single -0.05344193864422431 0.003960879640078677 -0.010396039603960391
Created 1 atoms
  using lattice units in orthogonal box = (-0.06 -0.006 -0.055) to (0.06 0.006 0.055)
  create_atoms CPU = 0.000 seconds
create_atoms 11 single -0.05431073538915602 0.003987912175302518 -0.010891089108910887
Created 1 atoms
  using lattice units in orthogonal box = (-0.06 -0.006 -0.055) to (0.06 0.006 0.055)
  create_atoms CPU = 0.000 seconds
create_atoms 11 single -0.055164858848909 0.0038266308761256817 -0.011386138613861382
Created 1 atoms
  using lattice units in orthogonal box = (-0.06 -0.006 -0.055) to (0.06 0.006 0.055)
  create_atoms CPU = 0.000 seconds
create_atoms 11 single -0.055963976323893286 0.0034846516323998075 -0.011881188118811878
Created 1 atoms
  using lattice units in orthogonal box = (-0.06 -0.006 -0.055) to (0.06 0.006 0.055)
  create_atoms CPU = 0.000 seconds
create_atoms 11 single -0.05667035256086462 0.0029781231003240607 -0.012376237623762373
Created 1 atoms
  using lattice units in orthogonal box = (-0.06 -0.006 -0.055) to (0.06 0.006 0.055)
  create_atoms CPU = 0.000 seconds
create_atoms 11 single -0.057250631655313 0.002330964144185206 -0.012871287128712869
Created 1 atoms
  using lattice units in orthogonal box = (-0.06 -0.006 -0.055) to (0.06 0.006 0.055)
  create_atoms CPU = 0.000 seconds
create_atoms 11 single -0.05767741215592895 0.0015737343598670145 -0.013366336633663364
Created 1 atoms
  using lattice units in orthogonal box = (-0.06 -0.006 -0.055) to (0.06 0.006 0.055)
  create_atoms CPU = 0.000 seconds
create_atoms 11 single -0.05793054099288906 0.000742191015317981 -0.01386138613861386
Created 1 atoms
  using lattice units in orthogonal box = (-0.06 -0.006 -0.055) to (0.06 0.006 0.055)
  create_atoms CPU = 0.000 seconds
create_atoms 11 single -0.057998065129167956 -0.000124399449079351 -0.014356435643564355
Created 1 atoms
  using lattice units in orthogonal box = (-0.06 -0.006 -0.055) to (0.06 0.006 0.055)
  create_atoms CPU = 0.000 seconds
create_atoms 11 single -0.057876795996798666 -0.0009851156273280061 -0.01485148514851485
Created 1 atoms
  using lattice units in orthogonal box = (-0.06 -0.006 -0.055) to (0.06 0.006 0.055)
  create_atoms CPU = 0.000 seconds
create_atoms 11 single -0.05757246006474717 -0.0017993135040305416 -0.015346534653465346
Created 1 atoms
  using lattice units in orthogonal box = (-0.06 -0.006 -0.055) to (0.06 0.006 0.055)
  create_atoms CPU = 0.000 seconds
create_atoms 11 single -0.057099428428411564 -0.002528545711897302 -0.015841584158415842
Created 1 atoms
  using lattice units in orthogonal box = (-0.06 -0.006 -0.055) to (0.06 0.006 0.055)
  create_atoms CPU = 0.000 seconds
create_atoms 11 single -0.056480038189843096 -0.003138377060985468 -0.016336633663366337
Created 1 atoms
  using lattice units in orthogonal box = (-0.06 -0.006 -0.055) to (0.06 0.006 0.055)
  create_atoms CPU = 0.000 seconds
create_atoms 11 single -0.055743537673901486 -0.003600010608274122 -0.016831683168316833
Created 1 atoms
  using lattice units in orthogonal box = (-0.06 -0.006 -0.055) to (0.06 0.006 0.055)
  create_atoms CPU = 0.000 seconds
create_atoms 11 single -0.05492470528845988 -0.00389164748268575 -0.017326732673267328
Created 1 atoms
  using lattice units in orthogonal box = (-0.06 -0.006 -0.055) to (0.06 0.006 0.055)
  create_atoms CPU = 0.000 seconds
create_atoms 11 single -0.054062207247681404 -0.003999516253040598 -0.017821782178217824
Created 1 atoms
  using lattice units in orthogonal box = (-0.06 -0.006 -0.055) to (0.06 0.006 0.055)
  create_atoms CPU = 0.000 seconds
create_atoms 11 single -0.05319677170857712 -0.003918523230996325 -0.01831683168316832
Created 1 atoms
  using lattice units in orthogonal box = (-0.06 -0.006 -0.055) to (0.06 0.006 0.055)
  create_atoms CPU = 0.000 seconds
create_atoms 11 single -0.05236926554023324 -0.003652493000914472 -0.018811881188118815
Created 1 atoms
  using lattice units in orthogonal box = (-0.06 -0.006 -0.055) to (0.06 0.006 0.055)
  create_atoms CPU = 0.000 seconds
create_atoms 11 single -0.05161876454289333 -0.0032139878185547 -0.01930693069306931
Created 1 atoms
  using lattice units in orthogonal box = (-0.06 -0.006 -0.055) to (0.06 0.006 0.055)
  create_atoms CPU = 0.000 seconds
create_atoms 11 single -0.050980708243386984 -0.0026237144067997693 -0.019801980198019792
Created 1 atoms
  using lattice units in orthogonal box = (-0.06 -0.006 -0.055) to (0.06 0.006 0.055)
  create_atoms CPU = 0.000 seconds
create_atoms 11 single -0.050485226399602935 -0.0019095461602045213 -0.020297029702970287
Created 1 atoms
  using lattice units in orthogonal box = (-0.06 -0.006 -0.055) to (0.06 0.006 0.055)
  create_atoms CPU = 0.000 seconds
create_atoms 11 single -0.05015571623840511 -0.001105206931003338 -0.020792079207920783
Created 1 atoms
  using lattice units in orthogonal box = (-0.06 -0.006 -0.055) to (0.06 0.006 0.055)
  create_atoms CPU = 0.000 seconds
create_atoms 11 single -0.050007737611465625 -0.00024867854972592825 -0.02128712871287128
Created 1 atoms
  using lattice units in orthogonal box = (-0.06 -0.006 -0.055) to (0.06 0.006 0.055)
  create_atoms CPU = 0.000 seconds
create_atoms 11 single -0.05004827824103698 0.00061959272085633 -0.021782178217821774
Created 1 atoms
  using lattice units in orthogonal box = (-0.06 -0.006 -0.055) to (0.06 0.006 0.055)
  create_atoms CPU = 0.000 seconds
create_atoms 11 single -0.05027542375160936 0.0014586061051306098 -0.02227722772277227
Created 1 atoms
  using lattice units in orthogonal box = (-0.06 -0.006 -0.055) to (0.06 0.006 0.055)
  create_atoms CPU = 0.000 seconds
create_atoms 11 single -0.05067844806894081 0.0022287424187817143 -0.022772277227722765
Created 1 atoms
  using lattice units in orthogonal box = (-0.06 -0.006 -0.055) to (0.06 0.006 0.055)
  create_atoms CPU = 0.000 seconds
create_atoms 11 single -0.051238319917713014 0.0028936349325889973 -0.02326732673267326
Created 1 atoms
  using lattice units in orthogonal box = (-0.06 -0.006 -0.055) to (0.06 0.006 0.055)
  create_atoms CPU = 0.000 seconds
create_atoms 11 single -0.05192860150040669 0.0034218866515246527 -0.023762376237623756
Created 1 atoms
  using lattice units in orthogonal box = (-0.06 -0.006 -0.055) to (0.06 0.006 0.055)
  create_atoms CPU = 0.000 seconds
create_atoms 11 single -0.05271669692073853 0.0037885529172439984 -0.02425742574257425
Created 1 atoms
  using lattice units in orthogonal box = (-0.06 -0.006 -0.055) to (0.06 0.006 0.055)
  create_atoms CPU = 0.000 seconds
create_atoms 11 single -0.053565391399658095 0.0039763193237602095 -0.024752475247524747
Created 1 atoms
  using lattice units in orthogonal box = (-0.06 -0.006 -0.055) to (0.06 0.006 0.055)
  create_atoms CPU = 0.000 seconds
create_atoms 11 single -0.05443460860034189 0.003976319323760212 -0.025247524752475256
Created 1 atoms
  using lattice units in orthogonal box = (-0.06 -0.006 -0.055) to (0.06 0.006 0.055)
  create_atoms CPU = 0.000 seconds
create_atoms 11 single -0.05528330307926146 0.0037885529172440057 -0.02574257425742575
Created 1 atoms
  using lattice units in orthogonal box = (-0.06 -0.006 -0.055) to (0.06 0.006 0.055)
  create_atoms CPU = 0.000 seconds
create_atoms 11 single -0.05607139849959331 0.0034218866515246505 -0.026237623762376247
Created 1 atoms
  using lattice units in orthogonal box = (-0.06 -0.006 -0.055) to (0.06 0.006 0.055)
  create_atoms CPU = 0.000 seconds
create_atoms 11 single -0.05676168008228699 0.0028936349325889943 -0.026732673267326743
Created 1 atoms
  using lattice units in orthogonal box = (-0.06 -0.006 -0.055) to (0.06 0.006 0.055)
  create_atoms CPU = 0.000 seconds
create_atoms 11 single -0.05732155193105919 0.002228742418781711 -0.027227722772277238
Created 1 atoms
  using lattice units in orthogonal box = (-0.06 -0.006 -0.055) to (0.06 0.006 0.055)
  create_atoms CPU = 0.000 seconds
create_atoms 11 single -0.05772457624839064 0.0014586061051306194 -0.027722772277227734
Created 1 atoms
  using lattice units in orthogonal box = (-0.06 -0.006 -0.055) to (0.06 0.006 0.055)
  create_atoms CPU = 0.000 seconds
create_atoms 11 single -0.05795172175896303 0.0006195927208563401 -0.02821782178217823
Created 1 atoms
  using lattice units in orthogonal box = (-0.06 -0.006 -0.055) to (0.06 0.006 0.055)
  create_atoms CPU = 0.000 seconds
create_atoms 11 single -0.05799226238853438 -0.000248678549725918 -0.028712871287128724
Created 1 atoms
  using lattice units in orthogonal box = (-0.06 -0.006 -0.055) to (0.06 0.006 0.055)
  create_atoms CPU = 0.000 seconds
create_atoms 11 single -0.0578442837615949 -0.0011052069310033147 -0.02920792079207922
Created 1 atoms
  using lattice units in orthogonal box = (-0.06 -0.006 -0.055) to (0.06 0.006 0.055)
  create_atoms CPU = 0.000 seconds
create_atoms 11 single -0.057514773600397084 -0.0019095461602044999 -0.029702970297029715
Created 1 atoms
  using lattice units in orthogonal box = (-0.06 -0.006 -0.055) to (0.06 0.006 0.055)
  create_atoms CPU = 0.000 seconds
create_atoms 11 single -0.05701929175661302 -0.0026237144067997723 -0.03019801980198021
Created 1 atoms
  using lattice units in orthogonal box = (-0.06 -0.006 -0.055) to (0.06 0.006 0.055)
  create_atoms CPU = 0.000 seconds
create_atoms 11 single -0.05638123545710666 -0.0032139878185547107 -0.030693069306930706
Created 1 atoms
  using lattice units in orthogonal box = (-0.06 -0.006 -0.055) to (0.06 0.006 0.055)
  create_atoms CPU = 0.000 seconds
create_atoms 11 single -0.05563073445976675 -0.00365249300091448 -0.031188118811881202
Created 1 atoms
  using lattice units in orthogonal box = (-0.06 -0.006 -0.055) to (0.06 0.006 0.055)
  create_atoms CPU = 0.000 seconds
create_atoms 11 single -0.05480322829142287 -0.003918523230996328 -0.0316831683168317
Created 1 atoms
  using lattice units in orthogonal box = (-0.06 -0.006 -0.055) to (0.06 0.006 0.055)
  create_atoms CPU = 0.000 seconds
create_atoms 11 single -0.053937792752318595 -0.003999516253040598 -0.03217821782178219
Created 1 atoms
  using lattice units in orthogonal box = (-0.06 -0.006 -0.055) to (0.06 0.006 0.055)
  create_atoms CPU = 0.000 seconds
create_atoms 11 single -0.05307529471154015 -0.0038916474826857558 -0.032673267326732675
Created 1 atoms
  using lattice units in orthogonal box = (-0.06 -0.006 -0.055) to (0.06 0.006 0.055)
  create_atoms CPU = 0.000 seconds
create_atoms 11 single -0.05225646232609852 -0.00360001060827412 -0.03316831683168317
Created 1 atoms
  using lattice units in orthogonal box = (-0.06 -0.006 -0.055) to (0.06 0.006 0.055)
  create_atoms CPU = 0.000 seconds
create_atoms 11 single -0.0515199618101569 -0.0031383770609854653 -0.033663366336633666
Created 1 atoms
  using lattice units in orthogonal box = (-0.06 -0.006 -0.055) to (0.06 0.006 0.055)
  create_atoms CPU = 0.000 seconds
create_atoms 11 single -0.05090057157158845 -0.00252854571189731 -0.03415841584158416
Created 1 atoms
  using lattice units in orthogonal box = (-0.06 -0.006 -0.055) to (0.06 0.006 0.055)
  create_atoms CPU = 0.000 seconds
create_atoms 11 single -0.05042753993525284 -0.0017993135040305507 -0.034653465346534656
Created 1 atoms
  using lattice units in orthogonal box = (-0.06 -0.006 -0.055) to (0.06 0.006 0.055)
  create_atoms CPU = 0.000 seconds
create_atoms 11 single -0.05012320400320134 -0.000985115627328016 -0.03514851485148515
Created 1 atoms
  using lattice units in orthogonal box = (-0.06 -0.006 -0.055) to (0.06 0.006 0.055)
  create_atoms CPU = 0.000 seconds
create_atoms 11 single -0.05000193487083205 -0.0001243994490793613 -0.03564356435643565
Created 1 atoms
  using lattice units in orthogonal box = (-0.06 -0.006 -0.055) to (0.06 0.006 0.055)
  create_atoms CPU = 0.000 seconds
create_atoms 11 single -0.05006945900711095 0.000742191015317957 -0.03613861386138614
Created 1 atoms
  using lattice units in orthogonal box = (-0.06 -0.006 -0.055) to (0.06 0.006 0.055)
  create_atoms CPU = 0.000 seconds
create_atoms 11 single -0.05032258784407105 0.001573734359866992 -0.03663366336633664
Created 1 atoms
  using lattice units in orthogonal box = (-0.06 -0.006 -0.055) to (0.06 0.006 0.055)
  create_atoms CPU = 0.000 seconds
create_atoms 11 single -0.050749368344687004 0.002330964144185209 -0.037128712871287134
Created 1 atoms
  using lattice units in orthogonal box = (-0.06 -0.006 -0.055) to (0.06 0.006 0.055)
  create_atoms CPU = 0.000 seconds
create_atoms 11 single -0.051329647439135394 0.0029781231003240633 -0.03762376237623763
Created 1 atoms
  using lattice units in orthogonal box = (-0.06 -0.006 -0.055) to (0.06 0.006 0.055)
  create_atoms CPU = 0.000 seconds
create_atoms 11 single -0.05203602367610671 0.0034846516323998023 -0.038118811881188125
Created 1 atoms
  using lattice units in orthogonal box = (-0.06 -0.006 -0.055) to (0.06 0.006 0.055)
  create_atoms CPU = 0.000 seconds
create_atoms 11 single -0.052835141151090996 0.0038266308761256787 -0.03861386138613862
Created 1 atoms
  using lattice units in orthogonal box = (-0.06 -0.006 -0.055) to (0.06 0.006 0.055)
  create_atoms CPU = 0.000 seconds
create_atoms 11 single -0.05368926461084397 0.003987912175302517 -0.039108910891089116
Created 1 atoms
  using lattice units in orthogonal box = (-0.06 -0.006 -0.055) to (0.06 0.006 0.055)
  create_atoms CPU = 0.000 seconds
create_atoms 11 single -0.05455806135577569 0.003960879640078679 -0.03960396039603961
Created 1 atoms
  using lattice units in orthogonal box = (-0.06 -0.006 -0.055) to (0.06 0.006 0.055)
  create_atoms CPU = 0.000 seconds
create_atoms 11 single -0.05540050579676556 0.0037468097780947035 -0.04009900990099011
Created 1 atoms
  using lattice units in orthogonal box = (-0.06 -0.006 -0.055) to (0.06 0.006 0.055)
  create_atoms CPU = 0.000 seconds
create_atoms 11 single -0.0561768167310241 0.0033558112163132115 -0.0405940594059406
Created 1 atoms
  using lattice units in orthogonal box = (-0.06 -0.006 -0.055) to (0.06 0.006 0.055)
  create_atoms CPU = 0.000 seconds
create_atoms 11 single -0.05685033585659004 0.002806347359939097 -0.0410891089108911
Created 1 atoms
  using lattice units in orthogonal box = (-0.06 -0.006 -0.055) to (0.06 0.006 0.055)
  create_atoms CPU = 0.000 seconds
create_atoms 11 single -0.05738925881983112 0.002124364529029091 -0.04158415841584159
Created 1 atoms
  using lattice units in orthogonal box = (-0.06 -0.006 -0.055) to (0.06 0.006 0.055)
  create_atoms CPU = 0.000 seconds
create_atoms 11 single -0.05776813705387996 0.0013420667431900924 -0.04207920792079209
Created 1 atoms
  using lattice units in orthogonal box = (-0.06 -0.006 -0.055) to (0.06 0.006 0.055)
  create_atoms CPU = 0.000 seconds
create_atoms 11 single -0.05796907948945311 0.0004963950104530321 -0.042574257425742584
Created 1 atoms
  using lattice units in orthogonal box = (-0.06 -0.006 -0.055) to (0.06 0.006 0.055)
  create_atoms CPU = 0.000 seconds
create_atoms 11 single -0.05798259739187608 -0.0003727170699362889 -0.04306930693069308
Created 1 atoms
  using lattice units in orthogonal box = (-0.06 -0.006 -0.055) to (0.06 0.006 0.055)
  create_atoms CPU = 0.000 seconds
create_atoms 11 single -0.05780805243013092 -0.0012242290183515493 -0.043564356435643575
Created 1 atoms
  using lattice units in orthogonal box = (-0.06 -0.006 -0.055) to (0.06 0.006 0.055)
  create_atoms CPU = 0.000 seconds
create_atoms 11 single -0.05745368681958666 -0.0020179314537945568 -0.04405940594059407
Created 1 atoms
  using lattice units in orthogonal box = (-0.06 -0.006 -0.055) to (0.06 0.006 0.055)
  create_atoms CPU = 0.000 seconds
create_atoms 11 single -0.05693623411503785 -0.00271634482746354 -0.044554455445544566
Created 1 atoms
  using lattice units in orthogonal box = (-0.06 -0.006 -0.055) to (0.06 0.006 0.055)
  create_atoms CPU = 0.000 seconds
create_atoms 11 single -0.05628012903285514 -0.0032864892504815978 -0.04504950495049505
Created 1 atoms
  using lattice units in orthogonal box = (-0.06 -0.006 -0.055) to (0.06 0.006 0.055)
  create_atoms CPU = 0.000 seconds
create_atoms 11 single -0.05551635361536153 -0.0037014418424689624 -0.04554455445544554
Created 1 atoms
  using lattice units in orthogonal box = (-0.06 -0.006 -0.055) to (0.06 0.006 0.055)
  create_atoms CPU = 0.000 seconds
create_atoms 11 single -0.05468097422288961 -0.003941608061154723 -0.04603960396039604
Created 1 atoms
  using lattice units in orthogonal box = (-0.06 -0.006 -0.055) to (0.06 0.006 0.055)
  create_atoms CPU = 0.000 seconds
create_atoms 11 single -0.05381343843845035 -0.003995646979370444 -0.046534653465346534
Created 1 atoms
  using lattice units in orthogonal box = (-0.06 -0.006 -0.055) to (0.06 0.006 0.055)
  create_atoms CPU = 0.000 seconds
create_atoms 11 single -0.05295471230714858 -0.0038610068167737478 -0.04702970297029703
Created 1 atoms
  using lattice units in orthogonal box = (-0.06 -0.006 -0.055) to (0.06 0.006 0.055)
  create_atoms CPU = 0.000 seconds
create_atoms 11 single -0.05214534587205871 -0.0035440454378732693 -0.047524752475247525
Created 1 atoms
  using lattice units in orthogonal box = (-0.06 -0.006 -0.055) to (0.06 0.006 0.055)
  create_atoms CPU = 0.000 seconds
create_atoms 11 single -0.05142355835419841 -0.003059730126298588 -0.04801980198019802
Created 1 atoms
  using lattice units in orthogonal box = (-0.06 -0.006 -0.055) to (0.06 0.006 0.055)
  create_atoms CPU = 0.000 seconds
create_atoms 11 single -0.05082343339662099 -0.0024309308123221258 -0.048514851485148516
Created 1 atoms
  using lattice units in orthogonal box = (-0.06 -0.006 -0.055) to (0.06 0.006 0.055)
  create_atoms CPU = 0.000 seconds
create_atoms 11 single -0.05037330959529171 -0.0016873401282482506 -0.04900990099009901
Created 1 atoms
  using lattice units in orthogonal box = (-0.06 -0.006 -0.055) to (0.06 0.006 0.055)
  create_atoms CPU = 0.000 seconds
create_atoms 11 single -0.050094442317745576 -0.000864071287905938 -0.04950495049504951
Created 1 atoms
  using lattice units in orthogonal box = (-0.06 -0.006 -0.055) to (0.06 0.006 0.055)
  create_atoms CPU = 0.000 seconds
set type 11 diameter 0.002
Setting atom values ...
  201 settings made for diameter
set type 11 density 0.5
Setting atom values ...
  201 settings made for density
pair_coeff 11 11 granular hertz/material 0 0 0.5 tangential linear_nohistory 0 0

include structure/element_12.txt
create_atoms 12 single -0.030094442317745575 0.000864071287905934 0.04950495049504951
Created 1 atoms
  using lattice units in orthogonal box = (-0.06 -0.006 -0.055) to (0.06 0.006 0.055)
  create_atoms CPU = 0.000 seconds
create_atoms 12 single -0.030373309595291713 0.001687340128248249 0.04900990099009901
Created 1 atoms
  using lattice units in orthogonal box = (-0.06 -0.006 -0.055) to (0.06 0.006 0.055)
  create_atoms CPU = 0.000 seconds
create_atoms 12 single -0.030823433396620987 0.0024309308123221266 0.048514851485148516
Created 1 atoms
  using lattice units in orthogonal box = (-0.06 -0.006 -0.055) to (0.06 0.006 0.055)
  create_atoms CPU = 0.000 seconds
create_atoms 12 single -0.03142355835419841 0.00305973012629859 0.04801980198019802
Created 1 atoms
  using lattice units in orthogonal box = (-0.06 -0.006 -0.055) to (0.06 0.006 0.055)
  create_atoms CPU = 0.000 seconds
create_atoms 12 single -0.032145345872058695 0.0035440454378732594 0.047524752475247525
Created 1 atoms
  using lattice units in orthogonal box = (-0.06 -0.006 -0.055) to (0.06 0.006 0.055)
  create_atoms CPU = 0.000 seconds
create_atoms 12 single -0.03295471230714856 0.0038610068167737426 0.04702970297029703
Created 1 atoms
  using lattice units in orthogonal box = (-0.06 -0.006 -0.055) to (0.06 0.006 0.055)
  create_atoms CPU = 0.000 seconds
create_atoms 12 single -0.03381343843845033 0.0039956469793704435 0.046534653465346534
Created 1 atoms
  using lattice units in orthogonal box = (-0.06 -0.006 -0.055) to (0.06 0.006 0.055)
  create_atoms CPU = 0.000 seconds
create_atoms 12 single -0.0346809742228896 0.0039416080611547255 0.04603960396039604
Created 1 atoms
  using lattice units in orthogonal box = (-0.06 -0.006 -0.055) to (0.06 0.006 0.055)
  create_atoms CPU = 0.000 seconds
create_atoms 12 single -0.03551635361536152 0.0037014418424689667 0.04554455445544555
Created 1 atoms
  using lattice units in orthogonal box = (-0.06 -0.006 -0.055) to (0.06 0.006 0.055)
  create_atoms CPU = 0.000 seconds
create_atoms 12 single -0.03628012903285513 0.003286489250481603 0.04504950495049505
Created 1 atoms
  using lattice units in orthogonal box = (-0.06 -0.006 -0.055) to (0.06 0.006 0.055)
  create_atoms CPU = 0.000 seconds
create_atoms 12 single -0.036936234115037846 0.0027163448274635437 0.04455445544554456
Created 1 atoms
  using lattice units in orthogonal box = (-0.06 -0.006 -0.055) to (0.06 0.006 0.055)
  create_atoms CPU = 0.000 seconds
create_atoms 12 single -0.037453686819586655 0.00201793145379456 0.044059405940594064
Created 1 atoms
  using lattice units in orthogonal box = (-0.06 -0.006 -0.055) to (0.06 0.006 0.055)
  create_atoms CPU = 0.000 seconds
create_atoms 12 single -0.037808052430130926 0.001224229018351549 0.04356435643564357
Created 1 atoms
  using lattice units in orthogonal box = (-0.06 -0.006 -0.055) to (0.06 0.006 0.055)
  create_atoms CPU = 0.000 seconds
create_atoms 12 single -0.03798259739187608 0.00037271706993628506 0.04306930693069307
Created 1 atoms
  using lattice units in orthogonal box = (-0.06 -0.006 -0.055) to (0.06 0.006 0.055)
  create_atoms CPU = 0.000 seconds
create_atoms 12 single -0.037969079489453106 -0.0004963950104530359 0.04257425742574258
Created 1 atoms
  using lattice units in orthogonal box = (-0.06 -0.006 -0.055) to (0.06 0.006 0.055)
  create_atoms CPU = 0.000 seconds
create_atoms 12 single -0.037768137053879956 -0.0013420667431900994 0.04207920792079208
Created 1 atoms
  using lattice units in orthogonal box = (-0.06 -0.006 -0.055) to (0.06 0.006 0.055)
  create_atoms CPU = 0.000 seconds
create_atoms 12 single -0.037389258819831114 -0.0021243645290291006 0.041584158415841586
Created 1 atoms
  using lattice units in orthogonal box = (-0.06 -0.006 -0.055) to (0.06 0.006 0.055)
  create_atoms CPU = 0.000 seconds
create_atoms 12 single -0.03685033585659003 -0.0028063473599391057 0.04108910891089109
Created 1 atoms
  using lattice units in orthogonal box = (-0.06 -0.006 -0.055) to (0.06 0.006 0.055)
  create_atoms CPU = 0.000 seconds
create_atoms 12 single -0.03617681673102412 -0.003355811216313204 0.040594059405940595
Created 1 atoms
  using lattice units in orthogonal box = (-0.06 -0.006 -0.055) to (0.06 0.006 0.055)
  create_atoms CPU = 0.000 seconds
create_atoms 12 single -0.03540050579676557 -0.0037468097780946996 0.0400990099009901
Created 1 atoms
  using lattice units in orthogonal box = (-0.06 -0.006 -0.055) to (0.06 0.006 0.055)
  create_atoms CPU = 0.000 seconds
create_atoms 12 single -0.034558061355775695 -0.003960879640078678 0.039603960396039604
Created 1 atoms
  using lattice units in orthogonal box = (-0.06 -0.006 -0.055) to (0.06 0.006 0.055)
  create_atoms CPU = 0.000 seconds
create_atoms 12 single -0.033689264610843976 -0.003987912175302517 0.03910891089108911
Created 1 atoms
  using lattice units in orthogonal box = (-0.06 -0.006 -0.055) to (0.06 0.006 0.055)
  create_atoms CPU = 0.000 seconds
create_atoms 12 single -0.03283514115109099 -0.0038266308761256787 0.03861386138613861
Created 1 atoms
  using lattice units in orthogonal box = (-0.06 -0.006 -0.055) to (0.06 0.006 0.055)
  create_atoms CPU = 0.000 seconds
create_atoms 12 single -0.032036023676106716 -0.0034846516323998023 0.038118811881188125
Created 1 atoms
  using lattice units in orthogonal box = (-0.06 -0.006 -0.055) to (0.06 0.006 0.055)
  create_atoms CPU = 0.000 seconds
create_atoms 12 single -0.03132964743913539 -0.002978123100324061 0.03762376237623763
Created 1 atoms
  using lattice units in orthogonal box = (-0.06 -0.006 -0.055) to (0.06 0.006 0.055)
  create_atoms CPU = 0.000 seconds
create_atoms 12 single -0.030749368344687 -0.0023309641441852033 0.037128712871287134
Created 1 atoms
  using lattice units in orthogonal box = (-0.06 -0.006 -0.055) to (0.06 0.006 0.055)
  create_atoms CPU = 0.000 seconds
create_atoms 12 single -0.030322587844071058 -0.001573734359867008 0.03663366336633664
Created 1 atoms
  using lattice units in orthogonal box = (-0.06 -0.006 -0.055) to (0.06 0.006 0.055)
  create_atoms CPU = 0.000 seconds
create_atoms 12 single -0.030069459007110947 -0.0007421910153179708 0.03613861386138614
Created 1 atoms
  using lattice units in orthogonal box = (-0.06 -0.006 -0.055) to (0.06 0.006 0.055)
  create_atoms CPU = 0.000 seconds
create_atoms 12 single -0.03000193487083205 0.00012439944907934375 0.03564356435643565
Created 1 atoms
  using lattice units in orthogonal box = (-0.06 -0.006 -0.055) to (0.06 0.006 0.055)
  create_atoms CPU = 0.000 seconds
create_atoms 12 single -0.030123204003201336 0.0009851156273280024 0.03514851485148515
Created 1 atoms
  using lattice units in orthogonal box = (-0.06 -0.006 -0.055) to (0.06 0.006 0.055)
  create_atoms CPU = 0.000 seconds
create_atoms 12 single -0.030427539935252837 0.0017993135040305413 0.034653465346534656
Created 1 atoms
  using lattice units in orthogonal box = (-0.06 -0.006 -0.055) to (0.06 0.006 0.055)
  create_atoms CPU = 0.000 seconds
create_atoms 12 single -0.03090057157158844 0.0025285457118973047 0.03415841584158416
Created 1 atoms
  using lattice units in orthogonal box = (-0.06 -0.006 -0.055) to (0.06 0.006 0.055)
  create_atoms CPU = 0.000 seconds
create_atoms 12 single -0.0315199618101569 0.0031383770609854636 0.033663366336633666
Created 1 atoms
  using lattice units in orthogonal box = (-0.06 -0.006 -0.055) to (0.06 0.006 0.055)
  create_atoms CPU = 0.000 seconds
create_atoms 12 single -0.032256462326098516 0.0036000106082741206 0.03316831683168317
Created 1 atoms
  using lattice units in orthogonal box = (-0.06 -0.006 -0.055) to (0.06 0.006 0.055)
  create_atoms CPU = 0.000 seconds
create_atoms 12 single -0.033075294711540124 0.00389164748268575 0.032673267326732675
Created 1 atoms
  using lattice units in orthogonal box = (-0.06 -0.006 -0.055) to (0.06 0.006 0.055)
  create_atoms CPU = 0.000 seconds
create_atoms 12 single -0.0339377927523186 0.003999516253040598 0.03217821782178218
Created 1 atoms
  using lattice units in orthogonal box = (-0.06 -0.006 -0.055) to (0.06 0.006 0.055)
  create_atoms CPU = 0.000 seconds
create_atoms 12 single -0.03480322829142288 0.003918523230996327 0.031683168316831684
Created 1 atoms
  using lattice units in orthogonal box = (-0.06 -0.006 -0.055) to (0.06 0.006 0.055)
  create_atoms CPU = 0.000 seconds
create_atoms 12 single -0.03563073445976676 0.003652493000914477 0.031188118811881188
Created 1 atoms
  using lattice units in orthogonal box = (-0.06 -0.006 -0.055) to (0.06 0.006 0.055)
  create_atoms CPU = 0.000 seconds
create_atoms 12 single -0.03638123545710667 0.003213987818554702 0.030693069306930693
Created 1 atoms
  using lattice units in orthogonal box = (-0.06 -0.006 -0.055) to (0.06 0.006 0.055)
  create_atoms CPU = 0.000 seconds
create_atoms 12 single -0.03701929175661303 0.002623714406799761 0.030198019801980197
Created 1 atoms
  using lattice units in orthogonal box = (-0.06 -0.006 -0.055) to (0.06 0.006 0.055)
  create_atoms CPU = 0.000 seconds
create_atoms 12 single -0.03751477360039708 0.001909546160204506 0.0297029702970297
Created 1 atoms
  using lattice units in orthogonal box = (-0.06 -0.006 -0.055) to (0.06 0.006 0.055)
  create_atoms CPU = 0.000 seconds
create_atoms 12 single -0.037844283761594905 0.0011052069310033212 0.02920792079207921
Created 1 atoms
  using lattice units in orthogonal box = (-0.06 -0.006 -0.055) to (0.06 0.006 0.055)
  create_atoms CPU = 0.000 seconds
create_atoms 12 single -0.037992262388534384 0.00024867854972592484 0.028712871287128714
Created 1 atoms
  using lattice units in orthogonal box = (-0.06 -0.006 -0.055) to (0.06 0.006 0.055)
  create_atoms CPU = 0.000 seconds
create_atoms 12 single -0.037951721758963025 -0.0006195927208563403 0.02821782178217822
Created 1 atoms
  using lattice units in orthogonal box = (-0.06 -0.006 -0.055) to (0.06 0.006 0.055)
  create_atoms CPU = 0.000 seconds
create_atoms 12 single -0.037724576248390644 -0.0014586061051306196 0.027722772277227723
Created 1 atoms
  using lattice units in orthogonal box = (-0.06 -0.006 -0.055) to (0.06 0.006 0.055)
  create_atoms CPU = 0.000 seconds
create_atoms 12 single -0.03732155193105919 -0.002228742418781717 0.027227722772277228
Created 1 atoms
  using lattice units in orthogonal box = (-0.06 -0.006 -0.055) to (0.06 0.006 0.055)
  create_atoms CPU = 0.000 seconds
create_atoms 12 single -0.03676168008228699 -0.0028936349325889995 0.026732673267326732
Created 1 atoms
  using lattice units in orthogonal box = (-0.06 -0.006 -0.055) to (0.06 0.006 0.055)
  create_atoms CPU = 0.000 seconds
create_atoms 12 single -0.03607139849959331 -0.0034218866515246544 0.02623762376237624
Created 1 atoms
  using lattice units in orthogonal box = (-0.06 -0.006 -0.055) to (0.06 0.006 0.055)
  create_atoms CPU = 0.000 seconds
create_atoms 12 single -0.035283303079261474 -0.0037885529172439992 0.025742574257425745
Created 1 atoms
  using lattice units in orthogonal box = (-0.06 -0.006 -0.055) to (0.06 0.006 0.055)
  create_atoms CPU = 0.000 seconds
create_atoms 12 single -0.0344346086003419 -0.00397631932376021 0.02524752475247525
Created 1 atoms
  using lattice units in orthogonal box = (-0.06 -0.006 -0.055) to (0.06 0.006 0.055)
  create_atoms CPU = 0.000 seconds
create_atoms 12 single -0.033565391399658105 -0.003976319323760211 0.024752475247524754
Created 1 atoms
  using lattice units in orthogonal box = (-0.06 -0.006 -0.055) to (0.06 0.006 0.055)
  create_atoms CPU = 0.000 seconds
create_atoms 12 single -0.03271669692073853 -0.0037885529172440005 0.024257425742574258
Created 1 atoms
  using lattice units in orthogonal box = (-0.06 -0.006 -0.055) to (0.06 0.006 0.055)
  create_atoms CPU = 0.000 seconds
create_atoms 12 single -0.0319286015004067 -0.003421886651524656 0.023762376237623763
Created 1 atoms
  using lattice units in orthogonal box = (-0.06 -0.006 -0.055) to (0.06 0.006 0.055)
  create_atoms CPU = 0.000 seconds
create_atoms 12 single -0.031238319917713014 -0.002893634932588997 0.023267326732673267
Created 1 atoms
  using lattice units in orthogonal box = (-0.06 -0.006 -0.055) to (0.06 0.006 0.055)
  create_atoms CPU = 0.000 seconds
create_atoms 12 single -0.030678448068940812 -0.002228742418781714 0.02277227722772277
Created 1 atoms
  using lattice units in orthogonal box = (-0.06 -0.006 -0.055) to (0.06 0.006 0.055)
  create_atoms CPU = 0.000 seconds
create_atoms 12 single -0.03027542375160936 -0.0014586061051306163 0.022277227722772276
Created 1 atoms
  using lattice units in orthogonal box = (-0.06 -0.006 -0.055) to (0.06 0.006 0.055)
  create_atoms CPU = 0.000 seconds
create_atoms 12 single -0.030048278241036976 -0.0006195927208563367 0.02178217821782178
Created 1 atoms
  using lattice units in orthogonal box = (-0.06 -0.006 -0.055) to (0.06 0.006 0.055)
  create_atoms CPU = 0.000 seconds
create_atoms 12 single -0.030007737611465624 0.0002486785497259143 0.021287128712871292
Created 1 atoms
  using lattice units in orthogonal box = (-0.06 -0.006 -0.055) to (0.06 0.006 0.055)
  create_atoms CPU = 0.000 seconds
create_atoms 12 single -0.030155716238405104 0.001105206931003318 0.020792079207920797
Created 1 atoms
  using lattice units in orthogonal box = (-0.06 -0.006 -0.055) to (0.06 0.006 0.055)
  create_atoms CPU = 0.000 seconds
create_atoms 12 single -0.030485226399602924 0.001909546160204503 0.0202970297029703
Created 1 atoms
  using lattice units in orthogonal box = (-0.06 -0.006 -0.055) to (0.06 0.006 0.055)
  create_atoms CPU = 0.000 seconds
create_atoms 12 single -0.030980708243386973 0.0026237144067997585 0.019801980198019806
Created 1 atoms
  using lattice units in orthogonal box = (-0.06 -0.006 -0.055) to (0.06 0.006 0.055)
  create_atoms CPU = 0.000 seconds
create_atoms 12 single -0.031618764542893335 0.0032139878185547 0.01930693069306931
Created 1 atoms
  using lattice units in orthogonal box = (-0.06 -0.006 -0.055) to (0.06 0.006 0.055)
  create_atoms CPU = 0.000 seconds
create_atoms 12 single -0.03236926554023325 0.0036524930009144752 0.018811881188118815
Created 1 atoms
  using lattice units in orthogonal box = (-0.06 -0.006 -0.055) to (0.06 0.006 0.055)
  create_atoms CPU = 0.000 seconds
create_atoms 12 single -0.03319677170857713 0.003918523230996326 0.01831683168316832
Created 1 atoms
  using lattice units in orthogonal box = (-0.06 -0.006 -0.055) to (0.06 0.006 0.055)
  create_atoms CPU = 0.000 seconds
create_atoms 12 single -0.03406220724768141 0.003999516253040598 0.017821782178217824
Created 1 atoms
  using lattice units in orthogonal box = (-0.06 -0.006 -0.055) to (0.06 0.006 0.055)
  create_atoms CPU = 0.000 seconds
create_atoms 12 single -0.03492470528845988 0.00389164748268575 0.017326732673267328
Created 1 atoms
  using lattice units in orthogonal box = (-0.06 -0.006 -0.055) to (0.06 0.006 0.055)
  create_atoms CPU = 0.000 seconds
create_atoms 12 single -0.03574353767390149 0.003600010608274119 0.016831683168316833
Created 1 atoms
  using lattice units in orthogonal box = (-0.06 -0.006 -0.055) to (0.06 0.006 0.055)
  create_atoms CPU = 0.000 seconds
create_atoms 12 single -0.036480038189843106 0.0031383770609854636 0.016336633663366337
Created 1 atoms
  using lattice units in orthogonal box = (-0.06 -0.006 -0.055) to (0.06 0.006 0.055)
  create_atoms CPU = 0.000 seconds
create_atoms 12 single -0.03709942842841157 0.002528545711897302 0.015841584158415842
Created 1 atoms
  using lattice units in orthogonal box = (-0.06 -0.006 -0.055) to (0.06 0.006 0.055)
  create_atoms CPU = 0.000 seconds
create_atoms 12 single -0.03757246006474717 0.0017993135040305413 0.015346534653465346
Created 1 atoms
  using lattice units in orthogonal box = (-0.06 -0.006 -0.055) to (0.06 0.006 0.055)
  create_atoms CPU = 0.000 seconds
create_atoms 12 single -0.03787679599679866 0.0009851156273280128 0.014851485148514858
Created 1 atoms
  using lattice units in orthogonal box = (-0.06 -0.006 -0.055) to (0.06 0.006 0.055)
  create_atoms CPU = 0.000 seconds
create_atoms 12 single -0.03799806512916795 0.00012439944907935075 0.014356435643564362
Created 1 atoms
  using lattice units in orthogonal box = (-0.06 -0.006 -0.055) to (0.06 0.006 0.055)
  create_atoms CPU = 0.000 seconds
create_atoms 12 single -0.03793054099288906 -0.0007421910153179674 0.013861386138613867
Created 1 atoms
  using lattice units in orthogonal box = (-0.06 -0.006 -0.055) to (0.06 0.006 0.055)
  create_atoms CPU = 0.000 seconds
create_atoms 12 single -0.03767741215592895 -0.0015737343598670082 0.013366336633663371
Created 1 atoms
  using lattice units in orthogonal box = (-0.06 -0.006 -0.055) to (0.06 0.006 0.055)
  create_atoms CPU = 0.000 seconds
create_atoms 12 single -0.037250631655313005 -0.0023309641441852007 0.012871287128712876
Created 1 atoms
  using lattice units in orthogonal box = (-0.06 -0.006 -0.055) to (0.06 0.006 0.055)
  create_atoms CPU = 0.000 seconds
create_atoms 12 single -0.03667035256086462 -0.0029781231003240564 0.012376237623762373
Created 1 atoms
  using lattice units in orthogonal box = (-0.06 -0.006 -0.055) to (0.06 0.006 0.055)
  create_atoms CPU = 0.000 seconds
create_atoms 12 single -0.03596397632389329 -0.003484651632399804 0.011881188118811878
Created 1 atoms
  using lattice units in orthogonal box = (-0.06 -0.006 -0.055) to (0.06 0.006 0.055)
  create_atoms CPU = 0.000 seconds
create_atoms 12 single -0.035164858848909006 -0.0038266308761256795 0.011386138613861382
Created 1 atoms
  using lattice units in orthogonal box = (-0.06 -0.006 -0.055) to (0.06 0.006 0.055)
  create_atoms CPU = 0.000 seconds
create_atoms 12 single -0.03431073538915603 -0.003987912175302517 0.010891089108910887
Created 1 atoms
  using lattice units in orthogonal box = (-0.06 -0.006 -0.055) to (0.06 0.006 0.055)
  create_atoms CPU = 0.000 seconds
create_atoms 12 single -0.03344193864422432 -0.003960879640078678 0.010396039603960391
Created 1 atoms
  using lattice units in orthogonal box = (-0.06 -0.006 -0.055) to (0.06 0.006 0.055)
  create_atoms CPU = 0.000 seconds
create_atoms 12 single -0.03259949420323443 -0.0037468097780946974 0.009900990099009896
Created 1 atoms
  using lattice units in orthogonal box = (-0.06 -0.006 -0.055) to (0.06 0.006 0.055)
  create_atoms CPU = 0.000 seconds
create_atoms 12 single -0.03182318326897589 -0.003355811216313202 0.0094059405940594
Created 1 atoms
  using lattice units in orthogonal box = (-0.06 -0.006 -0.055) to (0.06 0.006 0.055)
  create_atoms CPU = 0.000 seconds
create_atoms 12 single -0.031149664143409972 -0.0028063473599391044 0.008910891089108905
Created 1 atoms
  using lattice units in orthogonal box = (-0.06 -0.006 -0.055) to (0.06 0.006 0.055)
  create_atoms CPU = 0.000 seconds
create_atoms 12 single -0.030610741180168894 -0.0021243645290291006 0.008415841584158416
Created 1 atoms
  using lattice units in orthogonal box = (-0.06 -0.006 -0.055) to (0.06 0.006 0.055)
  create_atoms CPU = 0.000 seconds
create_atoms 12 single -0.03023186294612005 -0.0013420667431901026 0.007920792079207921
Created 1 atoms
  using lattice units in orthogonal box = (-0.06 -0.006 -0.055) to (0.06 0.006 0.055)
  create_atoms CPU = 0.000 seconds
create_atoms 12 single -0.030030920510546896 -0.0004963950104530428 0.007425742574257425
Created 1 atoms
  using lattice units in orthogonal box = (-0.06 -0.006 -0.055) to (0.06 0.006 0.055)
  create_atoms CPU = 0.000 seconds
create_atoms 12 single -0.03001740260812393 0.0003727170699362781 0.00693069306930693
Created 1 atoms
  using lattice units in orthogonal box = (-0.06 -0.006 -0.055) to (0.06 0.006 0.055)
  create_atoms CPU = 0.000 seconds
create_atoms 12 single -0.030191947569869083 0.0012242290183515526 0.006435643564356434
Created 1 atoms
  using lattice units in orthogonal box = (-0.06 -0.006 -0.055) to (0.06 0.006 0.055)
  create_atoms CPU = 0.000 seconds
create_atoms 12 single -0.03054631318041335 0.00201793145379456 0.005940594059405939
Created 1 atoms
  using lattice units in orthogonal box = (-0.06 -0.006 -0.055) to (0.06 0.006 0.055)
  create_atoms CPU = 0.000 seconds
create_atoms 12 single -0.03106376588496216 0.0027163448274635424 0.0054455445544554434
Created 1 atoms
  using lattice units in orthogonal box = (-0.06 -0.006 -0.055) to (0.06 0.006 0.055)
  create_atoms CPU = 0.000 seconds
create_atoms 12 single -0.03171987096714487 0.0032864892504816 0.004950495049504948
Created 1 atoms
  using lattice units in orthogonal box = (-0.06 -0.006 -0.055) to (0.06 0.006 0.055)
  create_atoms CPU = 0.000 seconds
create_atoms 12 single -0.03248364638463849 0.003701441842468969 0.0044554455445544525
Created 1 atoms
  using lattice units in orthogonal box = (-0.06 -0.006 -0.055) to (0.06 0.006 0.055)
  create_atoms CPU = 0.000 seconds
create_atoms 12 single -0.03331902577711041 0.003941608061154726 0.003960396039603957
Created 1 atoms
  using lattice units in orthogonal box = (-0.06 -0.006 -0.055) to (0.06 0.006 0.055)
  create_atoms CPU = 0.000 seconds
create_atoms 12 single -0.03418656156154967 0.0039956469793704435 0.0034653465346534615
Created 1 atoms
  using lattice units in orthogonal box = (-0.06 -0.006 -0.055) to (0.06 0.006 0.055)
  create_atoms CPU = 0.000 seconds
create_atoms 12 single -0.035045287692851444 0.003861006816773743 0.002970297029702966
Created 1 atoms
  using lattice units in orthogonal box = (-0.06 -0.006 -0.055) to (0.06 0.006 0.055)
  create_atoms CPU = 0.000 seconds
create_atoms 12 single -0.03585465412794131 0.0035440454378732615 0.0024752475247524774
Created 1 atoms
  using lattice units in orthogonal box = (-0.06 -0.006 -0.055) to (0.06 0.006 0.055)
  create_atoms CPU = 0.000 seconds
create_atoms 12 single -0.03657644164580159 0.003059730126298595 0.001980198019801982
Created 1 atoms
  using lattice units in orthogonal box = (-0.06 -0.006 -0.055) to (0.06 0.006 0.055)
  create_atoms CPU = 0.000 seconds
create_atoms 12 single -0.03717656660337901 0.002430930812322134 0.0014851485148514865
Created 1 atoms
  using lattice units in orthogonal box = (-0.06 -0.006 -0.055) to (0.06 0.006 0.055)
  create_atoms CPU = 0.000 seconds
create_atoms 12 single -0.03762669040470829 0.0016873401282482474 0.000990099009900991
Created 1 atoms
  using lattice units in orthogonal box = (-0.06 -0.006 -0.055) to (0.06 0.006 0.055)
  create_atoms CPU = 0.000 seconds
create_atoms 12 single -0.03790555768225443 0.0008640712879059347 0.0004950495049504955
Created 1 atoms
  using lattice units in orthogonal box = (-0.06 -0.006 -0.055) to (0.06 0.006 0.055)
  create_atoms CPU = 0.000 seconds
create_atoms 12 single -0.038000000000000006 3.429011037612589e-18 0.0
Created 1 atoms
  using lattice units in orthogonal box = (-0.06 -0.006 -0.055) to (0.06 0.006 0.055)
  create_atoms CPU = 0.000 seconds
create_atoms 12 single -0.03790555768225443 -0.000864071287905928 -0.0004950495049504955
Created 1 atoms
  using lattice units in orthogonal box = (-0.06 -0.006 -0.055) to (0.06 0.006 0.055)
  create_atoms CPU = 0.000 seconds
create_atoms 12 single -0.0376266904047083 -0.0016873401282482413 -0.000990099009900991
Created 1 atoms
  using lattice units in orthogonal box = (-0.06 -0.006 -0.055) to (0.06 0.006 0.055)
  create_atoms CPU = 0.000 seconds
create_atoms 12 single -0.037176566603379015 -0.002430930812322129 -0.0014851485148514865
Created 1 atoms
  using lattice units in orthogonal box = (-0.06 -0.006 -0.055) to (0.06 0.006 0.055)
  create_atoms CPU = 0.000 seconds
create_atoms 12 single -0.036576441645801594 -0.00305973012629859 -0.001980198019801982
Created 1 atoms
  using lattice units in orthogonal box = (-0.06 -0.006 -0.055) to (0.06 0.006 0.055)
  create_atoms CPU = 0.000 seconds
create_atoms 12 single -0.03585465412794132 -0.0035440454378732576 -0.0024752475247524774
Created 1 atoms
  using lattice units in orthogonal box = (-0.06 -0.006 -0.055) to (0.06 0.006 0.055)
  create_atoms CPU = 0.000 seconds
create_atoms 12 single -0.03504528769285145 -0.0038610068167737412 -0.002970297029702973
Created 1 atoms
  using lattice units in orthogonal box = (-0.06 -0.006 -0.055) to (0.06 0.006 0.055)
  create_atoms CPU = 0.000 seconds
create_atoms 12 single -0.034186561561549665 -0.0039956469793704435 -0.0034653465346534684
Created 1 atoms
  using lattice units in orthogonal box = (-0.06 -0.006 -0.055) to (0.06 0.006 0.055)
  create_atoms CPU = 0.000 seconds
create_atoms 12 single -0.033319025777110406 -0.003941608061154725 -0.003960396039603964
Created 1 atoms
  using lattice units in orthogonal box = (-0.06 -0.006 -0.055) to (0.06 0.006 0.055)
  create_atoms CPU = 0.000 seconds
create_atoms 12 single -0.032483646384638486 -0.0037014418424689663 -0.004455445544554459
Created 1 atoms
  using lattice units in orthogonal box = (-0.06 -0.006 -0.055) to (0.06 0.006 0.055)
  create_atoms CPU = 0.000 seconds
create_atoms 12 single -0.031719870967144875 -0.003286489250481604 -0.004950495049504955
Created 1 atoms
  using lattice units in orthogonal box = (-0.06 -0.006 -0.055) to (0.06 0.006 0.055)
  create_atoms CPU = 0.000 seconds
create_atoms 12 single -0.031063765884962156 -0.0027163448274635372 -0.00544554455445545
Created 1 atoms
  using lattice units in orthogonal box = (-0.06 -0.006 -0.055) to (0.06 0.006 0.055)
  create_atoms CPU = 0.000 seconds
create_atoms 12 single -0.030546313180413346 -0.002017931453794553 -0.005940594059405946
Created 1 atoms
  using lattice units in orthogonal box = (-0.06 -0.006 -0.055) to (0.06 0.006 0.055)
  create_atoms CPU = 0.000 seconds
create_atoms 12 single -0.030191947569869083 -0.0012242290183515454 -0.006435643564356441
Created 1 atoms
  using lattice units in orthogonal box = (-0.06 -0.006 -0.055) to (0.06 0.006 0.055)
  create_atoms CPU = 0.000 seconds
create_atoms 12 single -0.03001740260812393 -0.00037271706993628496 -0.006930693069306937
Created 1 atoms
  using lattice units in orthogonal box = (-0.06 -0.006 -0.055) to (0.06 0.006 0.055)
  create_atoms CPU = 0.000 seconds
create_atoms 12 single -0.030030920510546896 0.0004963950104530219 -0.0074257425742574185
Created 1 atoms
  using lattice units in orthogonal box = (-0.06 -0.006 -0.055) to (0.06 0.006 0.055)
  create_atoms CPU = 0.000 seconds
create_atoms 12 single -0.030231862946120045 0.001342066743190096 -0.007920792079207914
Created 1 atoms
  using lattice units in orthogonal box = (-0.06 -0.006 -0.055) to (0.06 0.006 0.055)
  create_atoms CPU = 0.000 seconds
create_atoms 12 single -0.03061074118016889 0.0021243645290290945 -0.00841584158415841
Created 1 atoms
  using lattice units in orthogonal box = (-0.06 -0.006 -0.055) to (0.06 0.006 0.055)
  create_atoms CPU = 0.000 seconds
create_atoms 12 single -0.03114966414340997 0.0028063473599390996 -0.008910891089108905
Created 1 atoms
  using lattice units in orthogonal box = (-0.06 -0.006 -0.055) to (0.06 0.006 0.055)
  create_atoms CPU = 0.000 seconds
create_atoms 12 single -0.03182318326897588 0.003355811216313198 -0.0094059405940594
Created 1 atoms
  using lattice units in orthogonal box = (-0.06 -0.006 -0.055) to (0.06 0.006 0.055)
  create_atoms CPU = 0.000 seconds
create_atoms 12 single -0.03259949420323442 0.003746809778094695 -0.009900990099009896
Created 1 atoms
  using lattice units in orthogonal box = (-0.06 -0.006 -0.055) to (0.06 0.006 0.055)
  create_atoms CPU = 0.000 seconds
create_atoms 12 single -0.0334419386442243 0.003960879640078677 -0.010396039603960391
Created 1 atoms
  using lattice units in orthogonal box = (-0.06 -0.006 -0.055) to (0.06 0.006 0.055)
  create_atoms CPU = 0.000 seconds
create_atoms 12 single -0.03431073538915602 0.003987912175302518 -0.010891089108910887
Created 1 atoms
  using lattice units in orthogonal box = (-0.06 -0.006 -0.055) to (0.06 0.006 0.055)
  create_atoms CPU = 0.000 seconds
create_atoms 12 single -0.035164858848909006 0.0038266308761256817 -0.011386138613861382
Created 1 atoms
  using lattice units in orthogonal box = (-0.06 -0.006 -0.055) to (0.06 0.006 0.055)
  create_atoms CPU = 0.000 seconds
create_atoms 12 single -0.03596397632389328 0.0034846516323998075 -0.011881188118811878
Created 1 atoms
  using lattice units in orthogonal box = (-0.06 -0.006 -0.055) to (0.06 0.006 0.055)
  create_atoms CPU = 0.000 seconds
create_atoms 12 single -0.036670352560864615 0.0029781231003240607 -0.012376237623762373
Created 1 atoms
  using lattice units in orthogonal box = (-0.06 -0.006 -0.055) to (0.06 0.006 0.055)
  create_atoms CPU = 0.000 seconds
create_atoms 12 single -0.037250631655313005 0.002330964144185206 -0.012871287128712869
Created 1 atoms
  using lattice units in orthogonal box = (-0.06 -0.006 -0.055) to (0.06 0.006 0.055)
  create_atoms CPU = 0.000 seconds
create_atoms 12 single -0.037677412155928944 0.0015737343598670145 -0.013366336633663364
Created 1 atoms
  using lattice units in orthogonal box = (-0.06 -0.006 -0.055) to (0.06 0.006 0.055)
  create_atoms CPU = 0.000 seconds
create_atoms 12 single -0.037930540992889054 0.000742191015317981 -0.01386138613861386
Created 1 atoms
  using lattice units in orthogonal box = (-0.06 -0.006 -0.055) to (0.06 0.006 0.055)
  create_atoms CPU = 0.000 seconds
create_atoms 12 single -0.03799806512916795 -0.000124399449079351 -0.014356435643564355
Created 1 atoms
  using lattice units in orthogonal box = (-0.06 -0.006 -0.055) to (0.06 0.006 0.055)
[...]
  special bonds CPU = 0.000 seconds
create_bonds single/dihedral 4 415 416 417 418
Finding 1-2 1-3 1-4 neighbors ...
  special bond factors lj:    0        1        1       
  special bond factors coul:  0        1        1       
     3 = max # of 1-2 neighbors
     3 = max # of special neighbors
  special bonds CPU = 0.000 seconds
create_bonds single/dihedral 4 416 417 418 419
Finding 1-2 1-3 1-4 neighbors ...
  special bond factors lj:    0        1        1       
  special bond factors coul:  0        1        1       
     3 = max # of 1-2 neighbors
     3 = max # of special neighbors
  special bonds CPU = 0.000 seconds
create_bonds single/dihedral 4 417 418 419 420
Finding 1-2 1-3 1-4 neighbors ...
  special bond factors lj:    0        1        1       
  special bond factors coul:  0        1        1       
     3 = max # of 1-2 neighbors
     3 = max # of special neighbors
  special bonds CPU = 0.000 seconds
create_bonds single/dihedral 4 418 419 420 421
Finding 1-2 1-3 1-4 neighbors ...
  special bond factors lj:    0        1        1       
  special bond factors coul:  0        1        1       
     3 = max # of 1-2 neighbors
     3 = max # of special neighbors
  special bonds CPU = 0.000 seconds
create_bonds single/dihedral 4 419 420 421 422
Finding 1-2 1-3 1-4 neighbors ...
  special bond factors lj:    0        1        1       
  special bond factors coul:  0        1        1       
     3 = max # of 1-2 neighbors
     3 = max # of special neighbors
  special bonds CPU = 0.000 seconds
create_bonds single/dihedral 4 420 421 422 423
Finding 1-2 1-3 1-4 neighbors ...
  special bond factors lj:    0        1        1       
  special bond factors coul:  0        1        1       
     3 = max # of 1-2 neighbors
     3 = max # of special neighbors
  special bonds CPU = 0.000 seconds
create_bonds single/dihedral 4 421 422 423 424
Finding 1-2 1-3 1-4 neighbors ...
  special bond factors lj:    0        1        1       
  special bond factors coul:  0        1        1       
     3 = max # of 1-2 neighbors
     3 = max # of special neighbors
  special bonds CPU = 0.000 seconds
create_bonds single/dihedral 4 422 423 424 425
Finding 1-2 1-3 1-4 neighbors ...
  special bond factors lj:    0        1        1       
  special bond factors coul:  0        1        1       
     3 = max # of 1-2 neighbors
     3 = max # of special neighbors
  special bonds CPU = 0.000 seconds
create_bonds single/dihedral 4 423 424 425 426
Finding 1-2 1-3 1-4 neighbors ...
  special bond factors lj:    0        1        1       
  special bond factors coul:  0        1        1       
     3 = max # of 1-2 neighbors
     3 = max # of special neighbors
  special bonds CPU = 0.000 seconds
create_bonds single/dihedral 4 424 425 426 427
Finding 1-2 1-3 1-4 neighbors ...
  special bond factors lj:    0        1        1       
  special bond factors coul:  0        1        1       
     3 = max # of 1-2 neighbors
     3 = max # of special neighbors
  special bonds CPU = 0.000 seconds
create_bonds single/dihedral 4 425 426 427 428
Finding 1-2 1-3 1-4 neighbors ...
  special bond factors lj:    0        1        1       
  special bond factors coul:  0        1        1       
     3 = max # of 1-2 neighbors
     3 = max # of special neighbors
  special bonds CPU = 0.000 seconds
create_bonds single/dihedral 4 426 427 428 429
Finding 1-2 1-3 1-4 neighbors ...
  special bond factors lj:    0        1        1       
  special bond factors coul:  0        1        1       
     3 = max # of 1-2 neighbors
     3 = max # of special neighbors
  special bonds CPU = 0.000 seconds
create_bonds single/dihedral 4 427 428 429 430
Finding 1-2 1-3 1-4 neighbors ...
  special bond factors lj:    0        1        1       
  special bond factors coul:  0        1        1       
     3 = max # of 1-2 neighbors
     3 = max # of special neighbors
  special bonds CPU = 0.000 seconds
create_bonds single/dihedral 4 428 429 430 431
Finding 1-2 1-3 1-4 neighbors ...
  special bond factors lj:    0        1        1       
  special bond factors coul:  0        1        1       
     3 = max # of 1-2 neighbors
     3 = max # of special neighbors
  special bonds CPU = 0.000 seconds
create_bonds single/dihedral 4 429 430 431 432
Finding 1-2 1-3 1-4 neighbors ...
  special bond factors lj:    0        1        1       
  special bond factors coul:  0        1        1       
     3 = max # of 1-2 neighbors
     3 = max # of special neighbors
  special bonds CPU = 0.000 seconds
create_bonds single/dihedral 4 430 431 432 3
Finding 1-2 1-3 1-4 neighbors ...
  special bond factors lj:    0        1        1       
  special bond factors coul:  0        1        1       
     3 = max # of 1-2 neighbors
     3 = max # of special neighbors
  special bonds CPU = 0.000 seconds
create_bonds single/dihedral 4 3 634 635 636
Finding 1-2 1-3 1-4 neighbors ...
  special bond factors lj:    0        1        1       
  special bond factors coul:  0        1        1       
     3 = max # of 1-2 neighbors
     3 = max # of special neighbors
  special bonds CPU = 0.000 seconds
create_bonds single/dihedral 4 634 635 636 637
Finding 1-2 1-3 1-4 neighbors ...
  special bond factors lj:    0        1        1       
  special bond factors coul:  0        1        1       
     3 = max # of 1-2 neighbors
     3 = max # of special neighbors
  special bonds CPU = 0.000 seconds
create_bonds single/dihedral 4 635 636 637 638
Finding 1-2 1-3 1-4 neighbors ...
  special bond factors lj:    0        1        1       
  special bond factors coul:  0        1        1       
     3 = max # of 1-2 neighbors
     3 = max # of special neighbors
  special bonds CPU = 0.000 seconds
create_bonds single/dihedral 4 636 637 638 639
Finding 1-2 1-3 1-4 neighbors ...
  special bond factors lj:    0        1        1       
  special bond factors coul:  0        1        1       
     3 = max # of 1-2 neighbors
     3 = max # of special neighbors
  special bonds CPU = 0.000 seconds
create_bonds single/dihedral 4 637 638 639 640
Finding 1-2 1-3 1-4 neighbors ...
  special bond factors lj:    0        1        1       
  special bond factors coul:  0        1        1       
     3 = max # of 1-2 neighbors
     3 = max # of special neighbors
  special bonds CPU = 0.000 seconds
create_bonds single/dihedral 4 638 639 640 641
Finding 1-2 1-3 1-4 neighbors ...
  special bond factors lj:    0        1        1       
  special bond factors coul:  0        1        1       
     3 = max # of 1-2 neighbors
     3 = max # of special neighbors
  special bonds CPU = 0.000 seconds
create_bonds single/dihedral 4 639 640 641 642
Finding 1-2 1-3 1-4 neighbors ...
  special bond factors lj:    0        1        1       
  special bond factors coul:  0        1        1       
     3 = max # of 1-2 neighbors
     3 = max # of special neighbors
  special bonds CPU = 0.000 seconds
create_bonds single/dihedral 4 640 641 642 643
Finding 1-2 1-3 1-4 neighbors ...
  special bond factors lj:    0        1        1       
  special bond factors coul:  0        1        1       
     3 = max # of 1-2 neighbors
     3 = max # of special neighbors
  special bonds CPU = 0.000 seconds
create_bonds single/dihedral 4 641 642 643 644
Finding 1-2 1-3 1-4 neighbors ...
  special bond factors lj:    0        1        1       
  special bond factors coul:  0        1        1       
     3 = max # of 1-2 neighbors
     3 = max # of special neighbors
  special bonds CPU = 0.000 seconds
create_bonds single/dihedral 4 642 643 644 645
Finding 1-2 1-3 1-4 neighbors ...
  special bond factors lj:    0        1        1       
  special bond factors coul:  0        1        1       
     3 = max # of 1-2 neighbors
     3 = max # of special neighbors
  special bonds CPU = 0.000 seconds
create_bonds single/dihedral 4 643 644 645 646
Finding 1-2 1-3 1-4 neighbors ...
  special bond factors lj:    0        1        1       
  special bond factors coul:  0        1        1       
     3 = max # of 1-2 neighbors
     3 = max # of special neighbors
  special bonds CPU = 0.000 seconds
create_bonds single/dihedral 4 644 645 646 647
Finding 1-2 1-3 1-4 neighbors ...
  special bond factors lj:    0        1        1       
  special bond factors coul:  0        1        1       
     3 = max # of 1-2 neighbors
     3 = max # of special neighbors
  special bonds CPU = 0.000 seconds
create_bonds single/dihedral 4 645 646 647 648
Finding 1-2 1-3 1-4 neighbors ...
  special bond factors lj:    0        1        1       
  special bond factors coul:  0        1        1       
     3 = max # of 1-2 neighbors
     3 = max # of special neighbors
  special bonds CPU = 0.000 seconds
create_bonds single/dihedral 4 646 647 648 649
Finding 1-2 1-3 1-4 neighbors ...
  special bond factors lj:    0        1        1       
  special bond factors coul:  0        1        1       
     3 = max # of 1-2 neighbors
     3 = max # of special neighbors
  special bonds CPU = 0.000 seconds
create_bonds single/dihedral 4 647 648 649 650
Finding 1-2 1-3 1-4 neighbors ...
  special bond factors lj:    0        1        1       
  special bond factors coul:  0        1        1       
     3 = max # of 1-2 neighbors
     3 = max # of special neighbors
  special bonds CPU = 0.000 seconds
create_bonds single/dihedral 4 648 649 650 651
Finding 1-2 1-3 1-4 neighbors ...
  special bond factors lj:    0        1        1       
  special bond factors coul:  0        1        1       
     3 = max # of 1-2 neighbors
     3 = max # of special neighbors
  special bonds CPU = 0.000 seconds
create_bonds single/dihedral 4 649 650 651 652
Finding 1-2 1-3 1-4 neighbors ...
  special bond factors lj:    0        1        1       
  special bond factors coul:  0        1        1       
     3 = max # of 1-2 neighbors
     3 = max # of special neighbors
  special bonds CPU = 0.000 seconds
create_bonds single/dihedral 4 650 651 652 653
Finding 1-2 1-3 1-4 neighbors ...
  special bond factors lj:    0        1        1       
  special bond factors coul:  0        1        1       
     3 = max # of 1-2 neighbors
     3 = max # of special neighbors
  special bonds CPU = 0.000 seconds
create_bonds single/dihedral 4 651 652 653 5
Finding 1-2 1-3 1-4 neighbors ...
  special bond factors lj:    0        1        1       
  special bond factors coul:  0        1        1       
     3 = max # of 1-2 neighbors
     3 = max # of special neighbors
  special bonds CPU = 0.000 seconds
create_bonds single/dihedral 4 5 855 856 857
Finding 1-2 1-3 1-4 neighbors ...
  special bond factors lj:    0        1        1       
  special bond factors coul:  0        1        1       
     3 = max # of 1-2 neighbors
     3 = max # of special neighbors
  special bonds CPU = 0.000 seconds
create_bonds single/dihedral 4 855 856 857 858
Finding 1-2 1-3 1-4 neighbors ...
  special bond factors lj:    0        1        1       
  special bond factors coul:  0        1        1       
     3 = max # of 1-2 neighbors
     3 = max # of special neighbors
  special bonds CPU = 0.000 seconds
create_bonds single/dihedral 4 856 857 858 859
Finding 1-2 1-3 1-4 neighbors ...
  special bond factors lj:    0        1        1       
  special bond factors coul:  0        1        1       
     3 = max # of 1-2 neighbors
     3 = max # of special neighbors
  special bonds CPU = 0.000 seconds
create_bonds single/dihedral 4 857 858 859 860
Finding 1-2 1-3 1-4 neighbors ...
  special bond factors lj:    0        1        1       
  special bond factors coul:  0        1        1       
     3 = max # of 1-2 neighbors
     3 = max # of special neighbors
  special bonds CPU = 0.000 seconds
create_bonds single/dihedral 4 858 859 860 861
Finding 1-2 1-3 1-4 neighbors ...
  special bond factors lj:    0        1        1       
  special bond factors coul:  0        1        1       
     3 = max # of 1-2 neighbors
     3 = max # of special neighbors
  special bonds CPU = 0.000 seconds
create_bonds single/dihedral 4 859 860 861 862
Finding 1-2 1-3 1-4 neighbors ...
  special bond factors lj:    0        1        1       
  special bond factors coul:  0        1        1       
     3 = max # of 1-2 neighbors
     3 = max # of special neighbors
  special bonds CPU = 0.000 seconds
create_bonds single/dihedral 4 860 861 862 863
Finding 1-2 1-3 1-4 neighbors ...
  special bond factors lj:    0        1        1       
  special bond factors coul:  0        1        1       
     3 = max # of 1-2 neighbors
     3 = max # of special neighbors
  special bonds CPU = 0.000 seconds
create_bonds single/dihedral 4 861 862 863 864
Finding 1-2 1-3 1-4 neighbors ...
  special bond factors lj:    0        1        1       
  special bond factors coul:  0        1        1       
     3 = max # of 1-2 neighbors
     3 = max # of special neighbors
  special bonds CPU = 0.000 seconds
create_bonds single/dihedral 4 862 863 864 865
Finding 1-2 1-3 1-4 neighbors ...
  special bond factors lj:    0        1        1       
  special bond factors coul:  0        1        1       
     3 = max # of 1-2 neighbors
     3 = max # of special neighbors
  special bonds CPU = 0.000 seconds
create_bonds single/dihedral 4 863 864 865 866
Finding 1-2 1-3 1-4 neighbors ...
  special bond factors lj:    0        1        1       
  special bond factors coul:  0        1        1       
     3 = max # of 1-2 neighbors
     3 = max # of special neighbors
  special bonds CPU = 0.000 seconds
create_bonds single/dihedral 4 864 865 866 867
Finding 1-2 1-3 1-4 neighbors ...
  special bond factors lj:    0        1        1       
  special bond factors coul:  0        1        1       
     3 = max # of 1-2 neighbors
     3 = max # of special neighbors
  special bonds CPU = 0.000 seconds
create_bonds single/dihedral 4 865 866 867 868
Finding 1-2 1-3 1-4 neighbors ...
  special bond factors lj:    0        1        1       
  special bond factors coul:  0        1        1       
     3 = max # of 1-2 neighbors
     3 = max # of special neighbors
  special bonds CPU = 0.000 seconds
create_bonds single/dihedral 4 866 867 868 869
Finding 1-2 1-3 1-4 neighbors ...
  special bond factors lj:    0        1        1       
  special bond factors coul:  0        1        1       
     3 = max # of 1-2 neighbors
     3 = max # of special neighbors
  special bonds CPU = 0.000 seconds
create_bonds single/dihedral 4 867 868 869 870
Finding 1-2 1-3 1-4 neighbors ...
  special bond factors lj:    0        1        1       
  special bond factors coul:  0        1        1       
     3 = max # of 1-2 neighbors
     3 = max # of special neighbors
  special bonds CPU = 0.000 seconds
create_bonds single/dihedral 4 868 869 870 871
Finding 1-2 1-3 1-4 neighbors ...
  special bond factors lj:    0        1        1       
  special bond factors coul:  0        1        1       
     3 = max # of 1-2 neighbors
     3 = max # of special neighbors
  special bonds CPU = 0.000 seconds
create_bonds single/dihedral 4 869 870 871 872
Finding 1-2 1-3 1-4 neighbors ...
  special bond factors lj:    0        1        1       
  special bond factors coul:  0        1        1       
     3 = max # of 1-2 neighbors
     3 = max # of special neighbors
  special bonds CPU = 0.000 seconds
create_bonds single/dihedral 4 870 871 872 873
Finding 1-2 1-3 1-4 neighbors ...
  special bond factors lj:    0        1        1       
  special bond factors coul:  0        1        1       
     3 = max # of 1-2 neighbors
     3 = max # of special neighbors
  special bonds CPU = 0.000 seconds
create_bonds single/dihedral 4 871 872 873 874
Finding 1-2 1-3 1-4 neighbors ...
  special bond factors lj:    0        1        1       
  special bond factors coul:  0        1        1       
     3 = max # of 1-2 neighbors
     3 = max # of special neighbors
  special bonds CPU = 0.000 seconds
create_bonds single/dihedral 4 872 873 874 7
Finding 1-2 1-3 1-4 neighbors ...
  special bond factors lj:    0        1        1       
  special bond factors coul:  0        1        1       
     3 = max # of 1-2 neighbors
     3 = max # of special neighbors
  special bonds CPU = 0.000 seconds
create_bonds single/dihedral 4 7 1076 1077 1078
Finding 1-2 1-3 1-4 neighbors ...
  special bond factors lj:    0        1        1       
  special bond factors coul:  0        1        1       
     3 = max # of 1-2 neighbors
     3 = max # of special neighbors
  special bonds CPU = 0.000 seconds
create_bonds single/dihedral 4 1076 1077 1078 1079
Finding 1-2 1-3 1-4 neighbors ...
  special bond factors lj:    0        1        1       
  special bond factors coul:  0        1        1       
     3 = max # of 1-2 neighbors
     3 = max # of special neighbors
  special bonds CPU = 0.000 seconds
create_bonds single/dihedral 4 1077 1078 1079 1080
Finding 1-2 1-3 1-4 neighbors ...
  special bond factors lj:    0        1        1       
  special bond factors coul:  0        1        1       
     3 = max # of 1-2 neighbors
     3 = max # of special neighbors
  special bonds CPU = 0.000 seconds
create_bonds single/dihedral 4 1078 1079 1080 1081
Finding 1-2 1-3 1-4 neighbors ...
  special bond factors lj:    0        1        1       
  special bond factors coul:  0        1        1       
     3 = max # of 1-2 neighbors
     3 = max # of special neighbors
  special bonds CPU = 0.000 seconds
create_bonds single/dihedral 4 1079 1080 1081 1082
Finding 1-2 1-3 1-4 neighbors ...
  special bond factors lj:    0        1        1       
  special bond factors coul:  0        1        1       
     3 = max # of 1-2 neighbors
     3 = max # of special neighbors
  special bonds CPU = 0.000 seconds
create_bonds single/dihedral 4 1080 1081 1082 1083
Finding 1-2 1-3 1-4 neighbors ...
  special bond factors lj:    0        1        1       
  special bond factors coul:  0        1        1       
     3 = max # of 1-2 neighbors
     3 = max # of special neighbors
  special bonds CPU = 0.000 seconds
create_bonds single/dihedral 4 1081 1082 1083 1084
Finding 1-2 1-3 1-4 neighbors ...
  special bond factors lj:    0        1        1       
  special bond factors coul:  0        1        1       
     3 = max # of 1-2 neighbors
     3 = max # of special neighbors
  special bonds CPU = 0.000 seconds
create_bonds single/dihedral 4 1082 1083 1084 1085
Finding 1-2 1-3 1-4 neighbors ...
  special bond factors lj:    0        1        1       
  special bond factors coul:  0        1        1       
     3 = max # of 1-2 neighbors
     3 = max # of special neighbors
  special bonds CPU = 0.000 seconds
create_bonds single/dihedral 4 1083 1084 1085 1086
Finding 1-2 1-3 1-4 neighbors ...
  special bond factors lj:    0        1        1       
  special bond factors coul:  0        1        1       
     3 = max # of 1-2 neighbors
     3 = max # of special neighbors
  special bonds CPU = 0.000 seconds
create_bonds single/dihedral 4 1084 1085 1086 1087
Finding 1-2 1-3 1-4 neighbors ...
  special bond factors lj:    0        1        1       
  special bond factors coul:  0        1        1       
     3 = max # of 1-2 neighbors
     3 = max # of special neighbors
  special bonds CPU = 0.000 seconds
create_bonds single/dihedral 4 1085 1086 1087 1088
Finding 1-2 1-3 1-4 neighbors ...
  special bond factors lj:    0        1        1       
  special bond factors coul:  0        1        1       
     3 = max # of 1-2 neighbors
     3 = max # of special neighbors
  special bonds CPU = 0.000 seconds
create_bonds single/dihedral 4 1086 1087 1088 1089
Finding 1-2 1-3 1-4 neighbors ...
  special bond factors lj:    0        1        1       
  special bond factors coul:  0        1        1       
     3 = max # of 1-2 neighbors
     3 = max # of special neighbors
  special bonds CPU = 0.000 seconds
create_bonds single/dihedral 4 1087 1088 1089 1090
Finding 1-2 1-3 1-4 neighbors ...
  special bond factors lj:    0        1        1       
  special bond factors coul:  0  