LAMMPS (29 Aug 2024 - Update 1)
  using 1 OpenMP thread(s) per MPI task
atom_style hybrid molecular sphere
WARNING: Atom style hybrid defines both, per-type and per-atom masses; both must be set, but only per-atom masses will be used (src/src/atom_vec_hybrid.cpp:132)
units si
processors	* * 1
comm_modify vel yes
comm_modify cutoff 0.01

region simulationStation block -0.060000000000000005 0.060000000000000005 -0.006 0.006 -0.055 0.055
create_box 100 simulationStation bond/types 100000 extra/bond/per/atom 100 angle/types 10000 extra/angle/per/atom 100 dihedral/types 1000 extra/dihedral/per/atom 100
Created orthogonal box = (-0.06 -0.006 -0.055) to (0.06 0.006 0.055)
  1 by 1 by 1 MPI processor grid
change_box	all boundary f f f
Changing box ...

pair_style hybrid/overlay granular lj/cut 0
pair_coeff  * * granular hertz/material 0 0 0 tangential linear_nohistory 0 0
pair_coeff  * * lj/cut 0 0 0

special_bonds lj/coul 0 1.0 1.0
Finding 1-2 1-3 1-4 neighbors ...
  special bond factors lj:    0        1        1       
  special bond factors coul:  0        1        1       
     0 = max # of 1-2 neighbors
     1 = max # of special neighbors
  special bonds CPU = 0.000 seconds
bond_style harmonic
angle_style cosine/shift
dihedral_style spherical

bond_coeff * 0 0
angle_coeff * 0 0
dihedral_coeff * 1 0 1 0 1 1 90 0 1 90 0
fix integration all nve/sphere
neigh_modify page 500000 one 50000


### Here we will begin to include particles ###


fix fix_walls_1 all wall/gran/region granular hertz/material 10000 0.25 0.25 tangential linear_nohistory 0 0 region simulationStation
pair_coeff * * granular hertz/material 10000 0 0.5 tangential linear_nohistory 0 0

include structure/node_1.txt
create_atoms 1 single -0.05 0.0 0.05
Created 1 atoms
  using lattice units in orthogonal box = (-0.06 -0.006 -0.055) to (0.06 0.006 0.055)
  create_atoms CPU = 0.000 seconds
set type 1 diameter 0.002
Setting atom values ...
  1 settings made for diameter
set type 1 density 0.5
Setting atom values ...
  1 settings made for density

include structure/node_2.txt
create_atoms 2 single -0.05 -3.2338103265129185e-17 -0.05
Created 1 atoms
  using lattice units in orthogonal box = (-0.06 -0.006 -0.055) to (0.06 0.006 0.055)
  create_atoms CPU = 0.002 seconds
set type 2 diameter 0.002
Setting atom values ...
  1 settings made for diameter
set type 2 density 0.5
Setting atom values ...
  1 settings made for density

include structure/node_3.txt
create_atoms 3 single -0.030000000000000002 0.0 0.05
Created 1 atoms
  using lattice units in orthogonal box = (-0.06 -0.006 -0.055) to (0.06 0.006 0.055)
  create_atoms CPU = 0.000 seconds
set type 3 diameter 0.002
Setting atom values ...
  1 settings made for diameter
set type 3 density 0.5
Setting atom values ...
  1 settings made for density

include structure/node_4.txt
create_atoms 4 single -0.030000000000000002 -3.2338103265129185e-17 -0.05
Created 1 atoms
  using lattice units in orthogonal box = (-0.06 -0.006 -0.055) to (0.06 0.006 0.055)
  create_atoms CPU = 0.000 seconds
set type 4 diameter 0.002
Setting atom values ...
  1 settings made for diameter
set type 4 density 0.5
Setting atom values ...
  1 settings made for density

include structure/node_5.txt
create_atoms 5 single -0.010000000000000002 0.0 0.05
Created 1 atoms
  using lattice units in orthogonal box = (-0.06 -0.006 -0.055) to (0.06 0.006 0.055)
  create_atoms CPU = 0.000 seconds
set type 5 diameter 0.002
Setting atom values ...
  1 settings made for diameter
set type 5 density 0.5
Setting atom values ...
  1 settings made for density

include structure/node_6.txt
create_atoms 6 single -0.010000000000000002 -3.2338103265129185e-17 -0.05
Created 1 atoms
  using lattice units in orthogonal box = (-0.06 -0.006 -0.055) to (0.06 0.006 0.055)
  create_atoms CPU = 0.000 seconds
set type 6 diameter 0.002
Setting atom values ...
  1 settings made for diameter
set type 6 density 0.5
Setting atom values ...
  1 settings made for density

include structure/node_7.txt
create_atoms 7 single 0.009999999999999998 0.0 0.05
Created 1 atoms
  using lattice units in orthogonal box = (-0.06 -0.006 -0.055) to (0.06 0.006 0.055)
  create_atoms CPU = 0.000 seconds
set type 7 diameter 0.002
Setting atom values ...
  1 settings made for diameter
set type 7 density 0.5
Setting atom values ...
  1 settings made for density

include structure/node_8.txt
create_atoms 8 single 0.009999999999999998 -3.2338103265129185e-17 -0.05
Created 1 atoms
  using lattice units in orthogonal box = (-0.06 -0.006 -0.055) to (0.06 0.006 0.055)
  create_atoms CPU = 0.000 seconds
set type 8 diameter 0.002
Setting atom values ...
  1 settings made for diameter
set type 8 density 0.5
Setting atom values ...
  1 settings made for density

include structure/node_9.txt
create_atoms 9 single 0.03 0.0 0.05
Created 1 atoms
  using lattice units in orthogonal box = (-0.06 -0.006 -0.055) to (0.06 0.006 0.055)
  create_atoms CPU = 0.000 seconds
set type 9 diameter 0.002
Setting atom values ...
  1 settings made for diameter
set type 9 density 0.5
Setting atom values ...
  1 settings made for density

include structure/node_10.txt
create_atoms 10 single 0.03 -3.2338103265129185e-17 -0.05
Created 1 atoms
  using lattice units in orthogonal box = (-0.06 -0.006 -0.055) to (0.06 0.006 0.055)
  create_atoms CPU = 0.000 seconds
set type 10 diameter 0.002
Setting atom values ...
  1 settings made for diameter
set type 10 density 0.5
Setting atom values ...
  1 settings made for density

include structure/element_11.txt
create_atoms 11 single -0.05015597246013119 0.0009547289418823315 0.049656357388316155
Created 1 atoms
  using lattice units in orthogonal box = (-0.06 -0.006 -0.055) to (0.06 0.006 0.055)
  create_atoms CPU = 0.000 seconds
create_atoms 11 single -0.05060767156831184 0.0018101836025487736 0.04931271477663231
Created 1 atoms
  using lattice units in orthogonal box = (-0.06 -0.006 -0.055) to (0.06 0.006 0.055)
  create_atoms CPU = 0.000 seconds
create_atoms 11 single -0.05130812891044728 0.0024774124033627694 0.04896907216494845
Created 1 atoms
  using lattice units in orthogonal box = (-0.06 -0.006 -0.055) to (0.06 0.006 0.055)
  create_atoms CPU = 0.000 seconds
create_atoms 11 single -0.05218450978329098 0.0028870357993020907 0.048625429553264606
Created 1 atoms
  using lattice units in orthogonal box = (-0.06 -0.006 -0.055) to (0.06 0.006 0.055)
  create_atoms CPU = 0.000 seconds
create_atoms 11 single -0.053145686666343346 0.0029964604778387723 0.04828178694158076
Created 1 atoms
  using lattice units in orthogonal box = (-0.06 -0.006 -0.055) to (0.06 0.006 0.055)
  create_atoms CPU = 0.000 seconds
create_atoms 11 single -0.054091714810890465 0.002794308281432527 0.04793814432989691
Created 1 atoms
  using lattice units in orthogonal box = (-0.06 -0.006 -0.055) to (0.06 0.006 0.055)
  create_atoms CPU = 0.000 seconds
create_atoms 11 single -0.05492422465889342 0.002301599327012959 0.04759450171821306
Created 1 atoms
  using lattice units in orthogonal box = (-0.06 -0.006 -0.055) to (0.06 0.006 0.055)
  create_atoms CPU = 0.000 seconds
create_atoms 11 single -0.05555665047096791 0.001569566299746391 0.047250859106529215
Created 1 atoms
  using lattice units in orthogonal box = (-0.06 -0.006 -0.055) to (0.06 0.006 0.055)
  create_atoms CPU = 0.000 seconds
create_atoms 11 single -0.05592323157394078 0.0006743271944061887 0.04690721649484536
Created 1 atoms
  using lattice units in orthogonal box = (-0.06 -0.006 -0.055) to (0.06 0.006 0.055)
  create_atoms CPU = 0.000 seconds
create_atoms 11 single -0.055985850263499844 -0.00029102955856394395 0.04656357388316151
Created 1 atoms
  using lattice units in orthogonal box = (-0.06 -0.006 -0.055) to (0.06 0.006 0.055)
  create_atoms CPU = 0.000 seconds
create_atoms 11 single -0.05573799534560463 -0.0012261245807206674 0.046219931271477666
Created 1 atoms
  using lattice units in orthogonal box = (-0.06 -0.006 -0.055) to (0.06 0.006 0.055)
  create_atoms CPU = 0.000 seconds
create_atoms 11 single -0.055205439181121606 -0.002033725158022509 0.04587628865979382
Created 1 atoms
  using lattice units in orthogonal box = (-0.06 -0.006 -0.055) to (0.06 0.006 0.055)
  create_atoms CPU = 0.000 seconds
create_atoms 11 single -0.05444355783347242 -0.002629855657906042 0.04553264604810997
Created 1 atoms
  using lattice units in orthogonal box = (-0.06 -0.006 -0.055) to (0.06 0.006 0.055)
  create_atoms CPU = 0.000 seconds
create_atoms 11 single -0.05353157297473767 -0.0029525294532872226 0.04518900343642612
Created 1 atoms
  using lattice units in orthogonal box = (-0.06 -0.006 -0.055) to (0.06 0.006 0.055)
  create_atoms CPU = 0.000 seconds
create_atoms 11 single -0.052564314286263535 -0.0029681943937090683 0.04484536082474227
Created 1 atoms
  using lattice units in orthogonal box = (-0.06 -0.006 -0.055) to (0.06 0.006 0.055)
  create_atoms CPU = 0.000 seconds
create_atoms 11 single -0.051642358912866386 -0.002675221612974644 0.04450171821305842
Created 1 atoms
  using lattice units in orthogonal box = (-0.06 -0.006 -0.055) to (0.06 0.006 0.055)
  create_atoms CPU = 0.000 seconds
create_atoms 11 single -0.05086157328635951 -0.002104074901325698 0.04415807560137457
Created 1 atoms
  using lattice units in orthogonal box = (-0.06 -0.006 -0.055) to (0.06 0.006 0.055)
  create_atoms CPU = 0.000 seconds
create_atoms 11 single -0.050303144776743816 -0.0013141430305700478 0.043814432989690726
Created 1 atoms
  using lattice units in orthogonal box = (-0.06 -0.006 -0.055) to (0.06 0.006 0.055)
  create_atoms CPU = 0.000 seconds
create_atoms 11 single -0.050025139696320726 -0.00038756441218622 0.04347079037800687
Created 1 atoms
  using lattice units in orthogonal box = (-0.06 -0.006 -0.055) to (0.06 0.006 0.055)
  create_atoms CPU = 0.000 seconds
create_atoms 11 single -0.050056465469305284 0.0005793137894162632 0.043127147766323023
Created 1 atoms
  using lattice units in orthogonal box = (-0.06 -0.006 -0.055) to (0.06 0.006 0.055)
  create_atoms CPU = 0.000 seconds
create_atoms 11 single -0.050393864790445546 0.0014859539930699602 0.042783505154639176
Created 1 atoms
  using lattice units in orthogonal box = (-0.06 -0.006 -0.055) to (0.06 0.006 0.055)
  create_atoms CPU = 0.000 seconds
create_atoms 11 single -0.051002254324964955 0.002238082263429736 0.04243986254295533
Created 1 atoms
  using lattice units in orthogonal box = (-0.06 -0.006 -0.055) to (0.06 0.006 0.055)
  create_atoms CPU = 0.000 seconds
create_atoms 11 single -0.05181837273125214 0.002757491069387436 0.04209621993127148
Created 1 atoms
  using lattice units in orthogonal box = (-0.06 -0.006 -0.055) to (0.06 0.006 0.055)
  create_atoms CPU = 0.000 seconds
create_atoms 11 single -0.05275735867891579 0.002990171431423708 0.04175257731958763
Created 1 atoms
  using lattice units in orthogonal box = (-0.06 -0.006 -0.055) to (0.06 0.006 0.055)
  create_atoms CPU = 0.000 seconds
create_atoms 11 single -0.05372157486909876 0.0029119288638778788 0.041408934707903786
Created 1 atoms
  using lattice units in orthogonal box = (-0.06 -0.006 -0.055) to (0.06 0.006 0.055)
  create_atoms CPU = 0.000 seconds
create_atoms 11 single -0.054610760520946953 0.0025308991572480163 0.04106529209621993
Created 1 atoms
  using lattice units in orthogonal box = (-0.06 -0.006 -0.055) to (0.06 0.006 0.055)
  create_atoms CPU = 0.000 seconds
create_atoms 11 single -0.055332456652038946 0.0018867024053515367 0.040721649484536084
Created 1 atoms
  using lattice units in orthogonal box = (-0.06 -0.006 -0.055) to (0.06 0.006 0.055)
  create_atoms CPU = 0.000 seconds
create_atoms 11 single -0.055811620115019035 0.0010463232429896506 0.040378006872852236
Created 1 atoms
  using lattice units in orthogonal box = (-0.06 -0.006 -0.055) to (0.06 0.006 0.055)
  create_atoms CPU = 0.000 seconds
create_atoms 11 single -0.05599842670713655 9.714567376007149e-05 0.04003436426116839
Created 1 atoms
  using lattice units in orthogonal box = (-0.06 -0.006 -0.055) to (0.06 0.006 0.055)
  create_atoms CPU = 0.000 seconds
create_atoms 11 single -0.055873451972563964 -0.0008621332619544811 0.03969072164948454
Created 1 atoms
  using lattice units in orthogonal box = (-0.06 -0.006 -0.055) to (0.06 0.006 0.055)
  create_atoms CPU = 0.000 seconds
create_atoms 11 single -0.055449690989171636 -0.0017317661671170557 0.039347079037800686
Created 1 atoms
  using lattice units in orthogonal box = (-0.06 -0.006 -0.055) to (0.06 0.006 0.055)
  create_atoms CPU = 0.000 seconds
create_atoms 11 single -0.05477120711901777 -0.0024213271859748263 0.03900343642611684
Created 1 atoms
  using lattice units in orthogonal box = (-0.06 -0.006 -0.055) to (0.06 0.006 0.055)
  create_atoms CPU = 0.000 seconds
create_atoms 11 single -0.053908550227693856 -0.002859114632846582 0.03865979381443299
Created 1 atoms
  using lattice units in orthogonal box = (-0.06 -0.006 -0.055) to (0.06 0.006 0.055)
  create_atoms CPU = 0.000 seconds
create_atoms 11 single -0.0529514207935925 -0.0029996066509968967 0.038316151202749144
Created 1 atoms
  using lattice units in orthogonal box = (-0.06 -0.006 -0.055) to (0.06 0.006 0.055)
  create_atoms CPU = 0.000 seconds
create_atoms 11 single -0.051999342705047545 -0.0028281946499593034 0.037972508591065296
Created 1 atoms
  using lattice units in orthogonal box = (-0.06 -0.006 -0.055) to (0.06 0.006 0.055)
  create_atoms CPU = 0.000 seconds
create_atoms 11 single -0.051151314603197225 -0.0023627023307323646 0.03762886597938145
Created 1 atoms
  using lattice units in orthogonal box = (-0.06 -0.006 -0.055) to (0.06 0.006 0.055)
  create_atoms CPU = 0.000 seconds
create_atoms 11 single -0.05049551584091219 -0.0016515323481174167 0.0372852233676976
Created 1 atoms
  using lattice units in orthogonal box = (-0.06 -0.006 -0.055) to (0.06 0.006 0.055)
  create_atoms CPU = 0.000 seconds
create_atoms 11 single -0.05010013744906217 -0.0007686333232877187 0.036941580756013746
Created 1 atoms
  using lattice units in orthogonal box = (-0.06 -0.006 -0.055) to (0.06 0.006 0.055)
  create_atoms CPU = 0.000 seconds
create_atoms 11 single -0.05000629152128687 0.00019418945512330048 0.0365979381443299
Created 1 atoms
  using lattice units in orthogonal box = (-0.06 -0.006 -0.055) to (0.06 0.006 0.055)
  create_atoms CPU = 0.000 seconds
create_atoms 11 single -0.05022373631107189 0.001136820095502919 0.03625429553264605
Created 1 atoms
  using lattice units in orthogonal box = (-0.06 -0.006 -0.055) to (0.06 0.006 0.055)
  create_atoms CPU = 0.000 seconds
create_atoms 11 single -0.05072986155254691 0.0019612423178677527 0.035910652920962204
Created 1 atoms
  using lattice units in orthogonal box = (-0.06 -0.006 -0.055) to (0.06 0.006 0.055)
  create_atoms CPU = 0.000 seconds
create_atoms 11 single -0.05147203951301371 0.0025817313474117724 0.035567010309278356
Created 1 atoms
  using lattice units in orthogonal box = (-0.06 -0.006 -0.055) to (0.06 0.006 0.055)
  create_atoms CPU = 0.000 seconds
create_atoms 11 single -0.05237309731090617 0.002933767717186711 0.0352233676975945
Created 1 atoms
  using lattice units in orthogonal box = (-0.06 -0.006 -0.055) to (0.06 0.006 0.055)
  create_atoms CPU = 0.000 seconds
create_atoms 11 single -0.05333934147858585 0.0029807461080929337 0.034879725085910654
Created 1 atoms
  using lattice units in orthogonal box = (-0.06 -0.006 -0.055) to (0.06 0.006 0.055)
  create_atoms CPU = 0.000 seconds
create_atoms 11 single -0.05427030036277247 0.0027177816299953426 0.034536082474226806
Created 1 atoms
  using lattice units in orthogonal box = (-0.06 -0.006 -0.055) to (0.06 0.006 0.055)
  create_atoms CPU = 0.000 seconds
create_atoms 11 single -0.05506917133183431 0.002172217760611268 0.03419243986254296
Created 1 atoms
  using lattice units in orthogonal box = (-0.06 -0.006 -0.055) to (0.06 0.006 0.055)
  create_atoms CPU = 0.000 seconds
create_atoms 11 single -0.05565288647219007 0.001400783125851726 0.03384879725085911
Created 1 atoms
  using lattice units in orthogonal box = (-0.06 -0.006 -0.055) to (0.06 0.006 0.055)
  create_atoms CPU = 0.000 seconds
create_atoms 11 single -0.05596075012620168 0.00048369276425928404 0.033505154639175264
Created 1 atoms
  using lattice units in orthogonal box = (-0.06 -0.006 -0.055) to (0.06 0.006 0.055)
  create_atoms CPU = 0.000 seconds
create_atoms 11 single -0.05596075012620168 -0.0004836927642592699 0.033161512027491416
Created 1 atoms
  using lattice units in orthogonal box = (-0.06 -0.006 -0.055) to (0.06 0.006 0.055)
  create_atoms CPU = 0.000 seconds
create_atoms 11 single -0.05565288647219008 -0.0014007831258517134 0.03281786941580756
Created 1 atoms
  using lattice units in orthogonal box = (-0.06 -0.006 -0.055) to (0.06 0.006 0.055)
  create_atoms CPU = 0.000 seconds
create_atoms 11 single -0.05506917133183432 -0.002172217760611262 0.032474226804123714
Created 1 atoms
  using lattice units in orthogonal box = (-0.06 -0.006 -0.055) to (0.06 0.006 0.055)
  create_atoms CPU = 0.000 seconds
create_atoms 11 single -0.05427030036277248 -0.0027177816299953366 0.03213058419243986
Created 1 atoms
  using lattice units in orthogonal box = (-0.06 -0.006 -0.055) to (0.06 0.006 0.055)
  create_atoms CPU = 0.000 seconds
create_atoms 11 single -0.05333934147858586 -0.0029807461080929324 0.03178694158075601
Created 1 atoms
  using lattice units in orthogonal box = (-0.06 -0.006 -0.055) to (0.06 0.006 0.055)
  create_atoms CPU = 0.000 seconds
create_atoms 11 single -0.05237309731090618 -0.0029337677171867135 0.031443298969072164
Created 1 atoms
  using lattice units in orthogonal box = (-0.06 -0.006 -0.055) to (0.06 0.006 0.055)
  create_atoms CPU = 0.000 seconds
create_atoms 11 single -0.05147203951301372 -0.002581731347411777 0.031099656357388317
Created 1 atoms
  using lattice units in orthogonal box = (-0.06 -0.006 -0.055) to (0.06 0.006 0.055)
  create_atoms CPU = 0.000 seconds
create_atoms 11 single -0.05072986155254692 -0.0019612423178677636 0.03075601374570447
Created 1 atoms
  using lattice units in orthogonal box = (-0.06 -0.006 -0.055) to (0.06 0.006 0.055)
  create_atoms CPU = 0.000 seconds
create_atoms 11 single -0.05022373631107189 -0.0011368200955029224 0.03041237113402062
Created 1 atoms
  using lattice units in orthogonal box = (-0.06 -0.006 -0.055) to (0.06 0.006 0.055)
  create_atoms CPU = 0.000 seconds
create_atoms 11 single -0.05000629152128687 -0.00019418945512331482 0.030068728522336774
Created 1 atoms
  using lattice units in orthogonal box = (-0.06 -0.006 -0.055) to (0.06 0.006 0.055)
  create_atoms CPU = 0.000 seconds
create_atoms 11 single -0.050100137449062165 0.0007686333232877152 0.029725085910652923
Created 1 atoms
  using lattice units in orthogonal box = (-0.06 -0.006 -0.055) to (0.06 0.006 0.055)
  create_atoms CPU = 0.000 seconds
create_atoms 11 single -0.050495515840912185 0.0016515323481174047 0.029381443298969075
Created 1 atoms
  using lattice units in orthogonal box = (-0.06 -0.006 -0.055) to (0.06 0.006 0.055)
  create_atoms CPU = 0.000 seconds
create_atoms 11 single -0.05115131460319722 0.0023627023307323624 0.029037800687285224
Created 1 atoms
  using lattice units in orthogonal box = (-0.06 -0.006 -0.055) to (0.06 0.006 0.055)
  create_atoms CPU = 0.000 seconds
create_atoms 11 single -0.05199934270504754 0.0028281946499593004 0.028694158075601377
Created 1 atoms
  using lattice units in orthogonal box = (-0.06 -0.006 -0.055) to (0.06 0.006 0.055)
  create_atoms CPU = 0.000 seconds
create_atoms 11 single -0.052951420793592496 0.0029996066509968967 0.028350515463917526
Created 1 atoms
  using lattice units in orthogonal box = (-0.06 -0.006 -0.055) to (0.06 0.006 0.055)
  create_atoms CPU = 0.000 seconds
create_atoms 11 single -0.05390855022769385 0.002859114632846585 0.028006872852233678
Created 1 atoms
  using lattice units in orthogonal box = (-0.06 -0.006 -0.055) to (0.06 0.006 0.055)
  create_atoms CPU = 0.000 seconds
create_atoms 11 single -0.05477120711901776 0.0024213271859748345 0.02766323024054983
Created 1 atoms
  using lattice units in orthogonal box = (-0.06 -0.006 -0.055) to (0.06 0.006 0.055)
  create_atoms CPU = 0.000 seconds
create_atoms 11 single -0.05544969098917163 0.0017317661671170628 0.02731958762886598
Created 1 atoms
  using lattice units in orthogonal box = (-0.06 -0.006 -0.055) to (0.06 0.006 0.055)
  create_atoms CPU = 0.000 seconds
create_atoms 11 single -0.055873451972563964 0.0008621332619544948 0.026975945017182132
Created 1 atoms
  using lattice units in orthogonal box = (-0.06 -0.006 -0.055) to (0.06 0.006 0.055)
  create_atoms CPU = 0.000 seconds
create_atoms 11 single -0.05599842670713655 -9.71456737600625e-05 0.026632302405498284
Created 1 atoms
  using lattice units in orthogonal box = (-0.06 -0.006 -0.055) to (0.06 0.006 0.055)
  create_atoms CPU = 0.000 seconds
create_atoms 11 single -0.055811620115019035 -0.0010463232429896371 0.026288659793814437
Created 1 atoms
  using lattice units in orthogonal box = (-0.06 -0.006 -0.055) to (0.06 0.006 0.055)
  create_atoms CPU = 0.000 seconds
create_atoms 11 single -0.05533245665203895 -0.0018867024053515298 0.025945017182130586
Created 1 atoms
  using lattice units in orthogonal box = (-0.06 -0.006 -0.055) to (0.06 0.006 0.055)
  create_atoms CPU = 0.000 seconds
create_atoms 11 single -0.05461076052094696 -0.0025308991572480085 0.025601374570446738
Created 1 atoms
  using lattice units in orthogonal box = (-0.06 -0.006 -0.055) to (0.06 0.006 0.055)
  create_atoms CPU = 0.000 seconds
create_atoms 11 single -0.053721574869098766 -0.0029119288638778766 0.025257731958762887
Created 1 atoms
  using lattice units in orthogonal box = (-0.06 -0.006 -0.055) to (0.06 0.006 0.055)
  create_atoms CPU = 0.000 seconds
create_atoms 11 single -0.0527573586789158 -0.002990171431423709 0.02491408934707904
Created 1 atoms
  using lattice units in orthogonal box = (-0.06 -0.006 -0.055) to (0.06 0.006 0.055)
  create_atoms CPU = 0.000 seconds
create_atoms 11 single -0.05181837273125216 -0.0027574910693874423 0.024570446735395192
Created 1 atoms
  using lattice units in orthogonal box = (-0.06 -0.006 -0.055) to (0.06 0.006 0.055)
  create_atoms CPU = 0.000 seconds
create_atoms 11 single -0.051002254324964975 -0.0022380822634297513 0.024226804123711344
Created 1 atoms
  using lattice units in orthogonal box = (-0.06 -0.006 -0.055) to (0.06 0.006 0.055)
  create_atoms CPU = 0.000 seconds
create_atoms 11 single -0.05039386479044555 -0.0014859539930699656 0.02388316151202749
Created 1 atoms
  using lattice units in orthogonal box = (-0.06 -0.006 -0.055) to (0.06 0.006 0.055)
  create_atoms CPU = 0.000 seconds
create_atoms 11 single -0.05005646546930529 -0.000579313789416272 0.023539518900343642
Created 1 atoms
  using lattice units in orthogonal box = (-0.06 -0.006 -0.055) to (0.06 0.006 0.055)
  create_atoms CPU = 0.000 seconds
create_atoms 11 single -0.050025139696320726 0.00038756441218620576 0.023195876288659795
Created 1 atoms
  using lattice units in orthogonal box = (-0.06 -0.006 -0.055) to (0.06 0.006 0.055)
  create_atoms CPU = 0.000 seconds
create_atoms 11 single -0.05030314477674381 0.0013141430305700303 0.022852233676975947
Created 1 atoms
  using lattice units in orthogonal box = (-0.06 -0.006 -0.055) to (0.06 0.006 0.055)
  create_atoms CPU = 0.000 seconds
create_atoms 11 single -0.05086157328635951 0.002104074901325696 0.022508591065292096
Created 1 atoms
  using lattice units in orthogonal box = (-0.06 -0.006 -0.055) to (0.06 0.006 0.055)
  create_atoms CPU = 0.000 seconds
create_atoms 11 single -0.05164235891286638 0.00267522161297464 0.02216494845360825
Created 1 atoms
  using lattice units in orthogonal box = (-0.06 -0.006 -0.055) to (0.06 0.006 0.055)
  create_atoms CPU = 0.000 seconds
create_atoms 11 single -0.05256431428626352 0.0029681943937090666 0.0218213058419244
Created 1 atoms
  using lattice units in orthogonal box = (-0.06 -0.006 -0.055) to (0.06 0.006 0.055)
  create_atoms CPU = 0.000 seconds
create_atoms 11 single -0.05353157297473765 0.0029525294532872256 0.021477663230240553
Created 1 atoms
  using lattice units in orthogonal box = (-0.06 -0.006 -0.055) to (0.06 0.006 0.055)
  create_atoms CPU = 0.000 seconds
create_atoms 11 single -0.054443557833472406 0.002629855657906049 0.021134020618556706
Created 1 atoms
  using lattice units in orthogonal box = (-0.06 -0.006 -0.055) to (0.06 0.006 0.055)
  create_atoms CPU = 0.000 seconds
create_atoms 11 single -0.0552054391811216 0.0020337251580225145 0.02079037800687285
Created 1 atoms
  using lattice units in orthogonal box = (-0.06 -0.006 -0.055) to (0.06 0.006 0.055)
  create_atoms CPU = 0.000 seconds
create_atoms 11 single -0.05573799534560462 0.001226124580720679 0.020446735395189004
Created 1 atoms
  using lattice units in orthogonal box = (-0.06 -0.006 -0.055) to (0.06 0.006 0.055)
  create_atoms CPU = 0.000 seconds
create_atoms 11 single -0.055985850263499844 0.00029102955856396087 0.020103092783505156
Created 1 atoms
  using lattice units in orthogonal box = (-0.06 -0.006 -0.055) to (0.06 0.006 0.055)
  create_atoms CPU = 0.000 seconds
create_atoms 11 single -0.05592323157394079 -0.0006743271944061773 0.01975945017182131
Created 1 atoms
  using lattice units in orthogonal box = (-0.06 -0.006 -0.055) to (0.06 0.006 0.055)
  create_atoms CPU = 0.000 seconds
create_atoms 11 single -0.05555665047096792 -0.0015695662997463763 0.01941580756013746
Created 1 atoms
  using lattice units in orthogonal box = (-0.06 -0.006 -0.055) to (0.06 0.006 0.055)
  create_atoms CPU = 0.000 seconds
create_atoms 11 single -0.054924224658893434 -0.0023015993270129515 0.01907216494845361
Created 1 atoms
  using lattice units in orthogonal box = (-0.06 -0.006 -0.055) to (0.06 0.006 0.055)
  create_atoms CPU = 0.000 seconds
create_atoms 11 single -0.05409171481089047 -0.002794308281432525 0.018728522336769762
Created 1 atoms
  using lattice units in orthogonal box = (-0.06 -0.006 -0.055) to (0.06 0.006 0.055)
  create_atoms CPU = 0.000 seconds
create_atoms 11 single -0.05314568666634336 -0.002996460477838772 0.018384879725085915
Created 1 atoms
  using lattice units in orthogonal box = (-0.06 -0.006 -0.055) to (0.06 0.006 0.055)
  create_atoms CPU = 0.000 seconds
create_atoms 11 single -0.05218450978329099 -0.002887035799302095 0.018041237113402067
Created 1 atoms
  using lattice units in orthogonal box = (-0.06 -0.006 -0.055) to (0.06 0.006 0.055)
  create_atoms CPU = 0.000 seconds
create_atoms 11 single -0.05130812891044729 -0.002477412403362775 0.017697594501718213
Created 1 atoms
  using lattice units in orthogonal box = (-0.06 -0.006 -0.055) to (0.06 0.006 0.055)
  create_atoms CPU = 0.000 seconds
create_atoms 11 single -0.05060767156831184 -0.0018101836025487773 0.017353951890034365
Created 1 atoms
  using lattice units in orthogonal box = (-0.06 -0.006 -0.055) to (0.06 0.006 0.055)
  create_atoms CPU = 0.000 seconds
create_atoms 11 single -0.0501559724601312 -0.0009547289418823403 0.017010309278350517
Created 1 atoms
  using lattice units in orthogonal box = (-0.06 -0.006 -0.055) to (0.06 0.006 0.055)
  create_atoms CPU = 0.000 seconds
create_atoms 11 single -0.05 -1.4332081433843564e-17 0.01666666666666667
Created 1 atoms
  using lattice units in orthogonal box = (-0.06 -0.006 -0.055) to (0.06 0.006 0.055)
  create_atoms CPU = 0.000 seconds
create_atoms 11 single -0.05015597246013118 0.0009547289418823132 0.016323024054982822
Created 1 atoms
  using lattice units in orthogonal box = (-0.06 -0.006 -0.055) to (0.06 0.006 0.055)
  create_atoms CPU = 0.000 seconds
create_atoms 11 single -0.050607671568311835 0.0018101836025487628 0.015979381443298968
Created 1 atoms
  using lattice units in orthogonal box = (-0.06 -0.006 -0.055) to (0.06 0.006 0.055)
  create_atoms CPU = 0.000 seconds
create_atoms 11 single -0.05130812891044727 0.002477412403362759 0.01563573883161512
Created 1 atoms
  using lattice units in orthogonal box = (-0.06 -0.006 -0.055) to (0.06 0.006 0.055)
  create_atoms CPU = 0.000 seconds
create_atoms 11 single -0.05218450978329095 0.002887035799302084 0.015292096219931273
Created 1 atoms
  using lattice units in orthogonal box = (-0.06 -0.006 -0.055) to (0.06 0.006 0.055)
  create_atoms CPU = 0.000 seconds
create_atoms 11 single -0.05314568666634334 0.0029964604778387727 0.014948453608247425
Created 1 atoms
  using lattice units in orthogonal box = (-0.06 -0.006 -0.055) to (0.06 0.006 0.055)
  create_atoms CPU = 0.000 seconds
create_atoms 11 single -0.05409171481089045 0.0027943082814325315 0.01460481099656357
Created 1 atoms
  using lattice units in orthogonal box = (-0.06 -0.006 -0.055) to (0.06 0.006 0.055)
  create_atoms CPU = 0.000 seconds
create_atoms 11 single -0.054924224658893406 0.0023015993270129697 0.014261168384879723
Created 1 atoms
  using lattice units in orthogonal box = (-0.06 -0.006 -0.055) to (0.06 0.006 0.055)
  create_atoms CPU = 0.000 seconds
create_atoms 11 single -0.055556650470967896 0.0015695662997464099 0.013917525773195875
Created 1 atoms
  using lattice units in orthogonal box = (-0.06 -0.006 -0.055) to (0.06 0.006 0.055)
  create_atoms CPU = 0.000 seconds
create_atoms 11 single -0.05592323157394078 0.0006743271944061949 0.013573883161512028
Created 1 atoms
  using lattice units in orthogonal box = (-0.06 -0.006 -0.055) to (0.06 0.006 0.055)
  create_atoms CPU = 0.000 seconds
create_atoms 11 single -0.055985850263499844 -0.00029102955856393235 0.01323024054982818
Created 1 atoms
  using lattice units in orthogonal box = (-0.06 -0.006 -0.055) to (0.06 0.006 0.055)
  create_atoms CPU = 0.000 seconds
create_atoms 11 single -0.05573799534560463 -0.0012261245807206529 0.012886597938144333
Created 1 atoms
  using lattice units in orthogonal box = (-0.06 -0.006 -0.055) to (0.06 0.006 0.055)
  create_atoms CPU = 0.000 seconds
create_atoms 11 single -0.05520543918112162 -0.002033725158022493 0.012542955326460485
Created 1 atoms
  using lattice units in orthogonal box = (-0.06 -0.006 -0.055) to (0.06 0.006 0.055)
  create_atoms CPU = 0.000 seconds
create_atoms 11 single -0.05444355783347242 -0.0026298556579060404 0.01219931271477663
Created 1 atoms
  using lattice units in orthogonal box = (-0.06 -0.006 -0.055) to (0.06 0.006 0.055)
  create_atoms CPU = 0.000 seconds
create_atoms 11 single -0.05353157297473768 -0.002952529453287221 0.011855670103092783
Created 1 atoms
  using lattice units in orthogonal box = (-0.06 -0.006 -0.055) to (0.06 0.006 0.055)
  create_atoms CPU = 0.000 seconds
create_atoms 11 single -0.05256431428626355 -0.0029681943937090705 0.011512027491408935
Created 1 atoms
  using lattice units in orthogonal box = (-0.06 -0.006 -0.055) to (0.06 0.006 0.055)
  create_atoms CPU = 0.000 seconds
create_atoms 11 single -0.051642358912866386 -0.002675221612974643 0.011168384879725088
Created 1 atoms
  using lattice units in orthogonal box = (-0.06 -0.006 -0.055) to (0.06 0.006 0.055)
  create_atoms CPU = 0.000 seconds
create_atoms 11 single -0.05086157328635952 -0.0021040749013257008 0.01082474226804124
Created 1 atoms
  using lattice units in orthogonal box = (-0.06 -0.006 -0.055) to (0.06 0.006 0.055)
  create_atoms CPU = 0.000 seconds
create_atoms 11 single -0.05030314477674382 -0.001314143030570056 0.010481099656357393
Created 1 atoms
  using lattice units in orthogonal box = (-0.06 -0.006 -0.055) to (0.06 0.006 0.055)
  create_atoms CPU = 0.000 seconds
create_atoms 11 single -0.050025139696320726 -0.00038756441218623416 0.010137457044673545
Created 1 atoms
  using lattice units in orthogonal box = (-0.06 -0.006 -0.055) to (0.06 0.006 0.055)
  create_atoms CPU = 0.000 seconds
create_atoms 11 single -0.050056465469305284 0.0005793137894162648 0.00979381443298969
Created 1 atoms
  using lattice units in orthogonal box = (-0.06 -0.006 -0.055) to (0.06 0.006 0.055)
  create_atoms CPU = 0.000 seconds
create_atoms 11 single -0.050393864790445546 0.001485953993069959 0.009450171821305843
Created 1 atoms
  using lattice units in orthogonal box = (-0.06 -0.006 -0.055) to (0.06 0.006 0.055)
  create_atoms CPU = 0.000 seconds
create_atoms 11 single -0.051002254324964955 0.0022380822634297318 0.009106529209621995
Created 1 atoms
  using lattice units in orthogonal box = (-0.06 -0.006 -0.055) to (0.06 0.006 0.055)
  create_atoms CPU = 0.000 seconds
create_atoms 11 single -0.05181837273125213 0.002757491069387431 0.008762886597938148
Created 1 atoms
  using lattice units in orthogonal box = (-0.06 -0.006 -0.055) to (0.06 0.006 0.055)
  create_atoms CPU = 0.000 seconds
create_atoms 11 single -0.05275735867891577 0.002990171431423707 0.0084192439862543
Created 1 atoms
  using lattice units in orthogonal box = (-0.06 -0.006 -0.055) to (0.06 0.006 0.055)
  create_atoms CPU = 0.000 seconds
create_atoms 11 single -0.05372157486909876 0.0029119288638778783 0.008075601374570446
Created 1 atoms
  using lattice units in orthogonal box = (-0.06 -0.006 -0.055) to (0.06 0.006 0.055)
  create_atoms CPU = 0.000 seconds
create_atoms 11 single -0.05461076052094695 0.002530899157248018 0.007731958762886598
Created 1 atoms
  using lattice units in orthogonal box = (-0.06 -0.006 -0.055) to (0.06 0.006 0.055)
  create_atoms CPU = 0.000 seconds
create_atoms 11 single -0.05533245665203894 0.0018867024053515436 0.007388316151202751
Created 1 atoms
  using lattice units in orthogonal box = (-0.06 -0.006 -0.055) to (0.06 0.006 0.055)
  create_atoms CPU = 0.000 seconds
create_atoms 11 single -0.05581162011501903 0.001046323242989664 0.007044673539518903
Created 1 atoms
  using lattice units in orthogonal box = (-0.06 -0.006 -0.055) to (0.06 0.006 0.055)
  create_atoms CPU = 0.000 seconds
create_atoms 11 single -0.05599842670713655 9.714567376006985e-05 0.0067010309278350486
Created 1 atoms
  using lattice units in orthogonal box = (-0.06 -0.006 -0.055) to (0.06 0.006 0.055)
  create_atoms CPU = 0.000 seconds
create_atoms 11 single -0.055873451972563964 -0.0008621332619544776 0.006357388316151201
Created 1 atoms
  using lattice units in orthogonal box = (-0.06 -0.006 -0.055) to (0.06 0.006 0.055)
  create_atoms CPU = 0.000 seconds
create_atoms 11 single -0.05544969098917164 -0.0017317661671170483 0.006013745704467353
Created 1 atoms
  using lattice units in orthogonal box = (-0.06 -0.006 -0.055) to (0.06 0.006 0.055)
  create_atoms CPU = 0.000 seconds
create_atoms 11 single -0.054771207119017784 -0.0024213271859748176 0.005670103092783506
Created 1 atoms
  using lattice units in orthogonal box = (-0.06 -0.006 -0.055) to (0.06 0.006 0.055)
  create_atoms CPU = 0.000 seconds
create_atoms 11 single -0.05390855022769388 -0.002859114632846576 0.005326460481099658
Created 1 atoms
  using lattice units in orthogonal box = (-0.06 -0.006 -0.055) to (0.06 0.006 0.055)
  create_atoms CPU = 0.000 seconds
create_atoms 11 single -0.0529514207935925 -0.0029996066509968967 0.004982817869415804
Created 1 atoms
  using lattice units in orthogonal box = (-0.06 -0.006 -0.055) to (0.06 0.006 0.055)
  create_atoms CPU = 0.000 seconds
create_atoms 11 single -0.05199934270504755 -0.0028281946499593064 0.004639175257731956
Created 1 atoms
  using lattice units in orthogonal box = (-0.06 -0.006 -0.055) to (0.06 0.006 0.055)
  create_atoms CPU = 0.000 seconds
create_atoms 11 single -0.05115131460319723 -0.0023627023307323733 0.004295532646048109
Created 1 atoms
  using lattice units in orthogonal box = (-0.06 -0.006 -0.055) to (0.06 0.006 0.055)
  create_atoms CPU = 0.000 seconds
create_atoms 11 single -0.0504955158409122 -0.0016515323481174286 0.003951890034364261
Created 1 atoms
  using lattice units in orthogonal box = (-0.06 -0.006 -0.055) to (0.06 0.006 0.055)
  create_atoms CPU = 0.000 seconds
create_atoms 11 single -0.05010013744906217 -0.0007686333232877223 0.0036082474226804134
Created 1 atoms
  using lattice units in orthogonal box = (-0.06 -0.006 -0.055) to (0.06 0.006 0.055)
  create_atoms CPU = 0.000 seconds
create_atoms 11 single -0.05000629152128687 0.00019418945512329682 0.003264604810996566
Created 1 atoms
  using lattice units in orthogonal box = (-0.06 -0.006 -0.055) to (0.06 0.006 0.055)
  create_atoms CPU = 0.000 seconds
create_atoms 11 single -0.05022373631107188 0.0011368200955029057 0.0029209621993127183
Created 1 atoms
  using lattice units in orthogonal box = (-0.06 -0.006 -0.055) to (0.06 0.006 0.055)
  create_atoms CPU = 0.000 seconds
create_atoms 11 single -0.050729861552546905 0.001961242317867742 0.0025773195876288707
Created 1 atoms
  using lattice units in orthogonal box = (-0.06 -0.006 -0.055) to (0.06 0.006 0.055)
  create_atoms CPU = 0.000 seconds
create_atoms 11 single -0.05147203951301369 0.0025817313474117624 0.002233676975945023
Created 1 atoms
  using lattice units in orthogonal box = (-0.06 -0.006 -0.055) to (0.06 0.006 0.055)
  create_atoms CPU = 0.000 seconds
create_atoms 11 single -0.05237309731090617 0.00293376771718671 0.0018900343642611686
Created 1 atoms
  using lattice units in orthogonal box = (-0.06 -0.006 -0.055) to (0.06 0.006 0.055)
  create_atoms CPU = 0.000 seconds
create_atoms 11 single -0.05333934147858584 0.002980746108092935 0.001546391752577321
Created 1 atoms
  using lattice units in orthogonal box = (-0.06 -0.006 -0.055) to (0.06 0.006 0.055)
  create_atoms CPU = 0.000 seconds
create_atoms 11 single -0.05427030036277246 0.0027177816299953487 0.0012027491408934735
Created 1 atoms
  using lattice units in orthogonal box = (-0.06 -0.006 -0.055) to (0.06 0.006 0.055)
  create_atoms CPU = 0.000 seconds
create_atoms 11 single -0.055069171331834296 0.0021722177606112816 0.0008591065292096259
Created 1 atoms
  using lattice units in orthogonal box = (-0.06 -0.006 -0.055) to (0.06 0.006 0.055)
  create_atoms CPU = 0.000 seconds
create_atoms 11 single -0.05565288647219007 0.0014007831258517295 0.0005154639175257714
Created 1 atoms
  using lattice units in orthogonal box = (-0.06 -0.006 -0.055) to (0.06 0.006 0.055)
  create_atoms CPU = 0.000 seconds
create_atoms 11 single -0.05596075012620167 0.0004836927642592929 0.0001718213058419238
Created 1 atoms
  using lattice units in orthogonal box = (-0.06 -0.006 -0.055) to (0.06 0.006 0.055)
  create_atoms CPU = 0.000 seconds
create_atoms 11 single -0.05596075012620168 -0.00048369276425926105 -0.0001718213058419238
Created 1 atoms
  using lattice units in orthogonal box = (-0.06 -0.006 -0.055) to (0.06 0.006 0.055)
  create_atoms CPU = 0.000 seconds
create_atoms 11 single -0.055652886472190084 -0.0014007831258517009 -0.0005154639175257714
Created 1 atoms
  using lattice units in orthogonal box = (-0.06 -0.006 -0.055) to (0.06 0.006 0.055)
  create_atoms CPU = 0.000 seconds
create_atoms 11 single -0.05506917133183434 -0.0021722177606112447 -0.0008591065292096189
Created 1 atoms
  using lattice units in orthogonal box = (-0.06 -0.006 -0.055) to (0.06 0.006 0.055)
  create_atoms CPU = 0.000 seconds
create_atoms 11 single -0.05427030036277251 -0.002717781629995326 -0.0012027491408934665
Created 1 atoms
  using lattice units in orthogonal box = (-0.06 -0.006 -0.055) to (0.06 0.006 0.055)
  create_atoms CPU = 0.000 seconds
create_atoms 11 single -0.05333934147858589 -0.0029807461080929285 -0.001546391752577314
Created 1 atoms
  using lattice units in orthogonal box = (-0.06 -0.006 -0.055) to (0.06 0.006 0.055)
  create_atoms CPU = 0.000 seconds
create_atoms 11 single -0.052373097310906176 -0.0029337677171867122 -0.0018900343642611755
Created 1 atoms
  using lattice units in orthogonal box = (-0.06 -0.006 -0.055) to (0.06 0.006 0.055)
  create_atoms CPU = 0.000 seconds
create_atoms 11 single -0.05147203951301372 -0.0025817313474117793 -0.002233676975945023
Created 1 atoms
  using lattice units in orthogonal box = (-0.06 -0.006 -0.055) to (0.06 0.006 0.055)
  create_atoms CPU = 0.000 seconds
create_atoms 11 single -0.050729861552546926 -0.001961242317867766 -0.0025773195876288707
Created 1 atoms
  using lattice units in orthogonal box = (-0.06 -0.006 -0.055) to (0.06 0.006 0.055)
  create_atoms CPU = 0.000 seconds
create_atoms 11 single -0.050223736311071895 -0.0011368200955029358 -0.0029209621993127183
Created 1 atoms
  using lattice units in orthogonal box = (-0.06 -0.006 -0.055) to (0.06 0.006 0.055)
  create_atoms CPU = 0.000 seconds
create_atoms 11 single -0.05000629152128687 -0.00019418945512332907 -0.003264604810996566
Created 1 atoms
  using lattice units in orthogonal box = (-0.06 -0.006 -0.055) to (0.06 0.006 0.055)
  create_atoms CPU = 0.000 seconds
create_atoms 11 single -0.050100137449062165 0.000768633323287691 -0.0036082474226804134
Created 1 atoms
  using lattice units in orthogonal box = (-0.06 -0.006 -0.055) to (0.06 0.006 0.055)
  create_atoms CPU = 0.000 seconds
create_atoms 11 single -0.05049551584091217 0.0016515323481173837 -0.003951890034364261
Created 1 atoms
  using lattice units in orthogonal box = (-0.06 -0.006 -0.055) to (0.06 0.006 0.055)
  create_atoms CPU = 0.000 seconds
create_atoms 11 single -0.05115131460319719 0.0023627023307323403 -0.004295532646048109
Created 1 atoms
  using lattice units in orthogonal box = (-0.06 -0.006 -0.055) to (0.06 0.006 0.055)
  create_atoms CPU = 0.000 seconds
create_atoms 11 single -0.051999342705047503 0.0028281946499592887 -0.004639175257731956
Created 1 atoms
  using lattice units in orthogonal box = (-0.06 -0.006 -0.055) to (0.06 0.006 0.055)
  create_atoms CPU = 0.000 seconds
create_atoms 11 single -0.052951420793592496 0.0029996066509968963 -0.004982817869415811
Created 1 atoms
  using lattice units in orthogonal box = (-0.06 -0.006 -0.055) to (0.06 0.006 0.055)
  create_atoms CPU = 0.000 seconds
create_atoms 11 single -0.05390855022769385 0.0028591146328465857 -0.005326460481099658
Created 1 atoms
  using lattice units in orthogonal box = (-0.06 -0.006 -0.055) to (0.06 0.006 0.055)
  create_atoms CPU = 0.000 seconds
create_atoms 11 single -0.054771207119017756 0.0024213271859748367 -0.005670103092783506
Created 1 atoms
  using lattice units in orthogonal box = (-0.06 -0.006 -0.055) to (0.06 0.006 0.055)
  create_atoms CPU = 0.000 seconds
create_atoms 11 single -0.05544969098917162 0.001731766167117075 -0.006013745704467353
Created 1 atoms
  using lattice units in orthogonal box = (-0.06 -0.006 -0.055) to (0.06 0.006 0.055)
  create_atoms CPU = 0.000 seconds
create_atoms 11 single -0.05587345197256396 0.0008621332619545085 -0.006357388316151201
Created 1 atoms
  using lattice units in orthogonal box = (-0.06 -0.006 -0.055) to (0.06 0.006 0.055)
  create_atoms CPU = 0.000 seconds
create_atoms 11 single -0.05599842670713655 -9.714567376003753e-05 -0.0067010309278350486
Created 1 atoms
  using lattice units in orthogonal box = (-0.06 -0.006 -0.055) to (0.06 0.006 0.055)
  create_atoms CPU = 0.000 seconds
create_atoms 11 single -0.05581162011501904 -0.0010463232429896137 -0.007044673539518896
Created 1 atoms
  using lattice units in orthogonal box = (-0.06 -0.006 -0.055) to (0.06 0.006 0.055)
  create_atoms CPU = 0.000 seconds
create_atoms 11 single -0.055332456652038974 -0.001886702405351502 -0.007388316151202744
Created 1 atoms
  using lattice units in orthogonal box = (-0.06 -0.006 -0.055) to (0.06 0.006 0.055)
  create_atoms CPU = 0.000 seconds
create_atoms 11 single -0.054610760520946974 -0.0025308991572480007 -0.007731958762886591
Created 1 atoms
  using lattice units in orthogonal box = (-0.06 -0.006 -0.055) to (0.06 0.006 0.055)
  create_atoms CPU = 0.000 seconds
create_atoms 11 single -0.053721574869098794 -0.0029119288638778705 -0.008075601374570439
Created 1 atoms
  using lattice units in orthogonal box = (-0.06 -0.006 -0.055) to (0.06 0.006 0.055)
  create_atoms CPU = 0.000 seconds
create_atoms 11 single -0.0527573586789158 -0.002990171431423709 -0.0084192439862543
Created 1 atoms
  using lattice units in orthogonal box = (-0.06 -0.006 -0.055) to (0.06 0.006 0.055)
  create_atoms CPU = 0.000 seconds
create_atoms 11 single -0.05181837273125216 -0.002757491069387444 -0.008762886597938148
Created 1 atoms
  using lattice units in orthogonal box = (-0.06 -0.006 -0.055) to (0.06 0.006 0.055)
  create_atoms CPU = 0.000 seconds
create_atoms 11 single -0.051002254324964975 -0.0022380822634297535 -0.009106529209621995
Created 1 atoms
  using lattice units in orthogonal box = (-0.06 -0.006 -0.055) to (0.06 0.006 0.055)
  create_atoms CPU = 0.000 seconds
create_atoms 11 single -0.05039386479044557 -0.0014859539930699873 -0.009450171821305843
Created 1 atoms
  using lattice units in orthogonal box = (-0.06 -0.006 -0.055) to (0.06 0.006 0.055)
  create_atoms CPU = 0.000 seconds
create_atoms 11 single -0.05005646546930529 -0.0005793137894162966 -0.00979381443298969
Created 1 atoms
  using lattice units in orthogonal box = (-0.06 -0.006 -0.055) to (0.06 0.006 0.055)
  create_atoms CPU = 0.000 seconds
create_atoms 11 single -0.050025139696320726 0.00038756441218620207 -0.010137457044673538
Created 1 atoms
  using lattice units in orthogonal box = (-0.06 -0.006 -0.055) to (0.06 0.006 0.055)
  create_atoms CPU = 0.000 seconds
create_atoms 11 single -0.05030314477674381 0.0013141430305700268 -0.010481099656357386
Created 1 atoms
  using lattice units in orthogonal box = (-0.06 -0.006 -0.055) to (0.06 0.006 0.055)
  create_atoms CPU = 0.000 seconds
create_atoms 11 single -0.0508615732863595 0.0021040749013256778 -0.010824742268041233
Created 1 atoms
  using lattice units in orthogonal box = (-0.06 -0.006 -0.055) to (0.06 0.006 0.055)
  create_atoms CPU = 0.000 seconds
create_atoms 11 single -0.05164235891286636 0.0026752216129746287 -0.011168384879725081
Created 1 atoms
  using lattice units in orthogonal box = (-0.06 -0.006 -0.055) to (0.06 0.006 0.055)
  create_atoms CPU = 0.000 seconds
create_atoms 11 single -0.052564314286263514 0.0029681943937090657 -0.011512027491408935
Created 1 atoms
  using lattice units in orthogonal box = (-0.06 -0.006 -0.055) to (0.06 0.006 0.055)
  create_atoms CPU = 0.000 seconds
create_atoms 11 single -0.05353157297473765 0.0029525294532872265 -0.011855670103092783
Created 1 atoms
  using lattice units in orthogonal box = (-0.06 -0.006 -0.055) to (0.06 0.006 0.055)
  create_atoms CPU = 0.000 seconds
create_atoms 11 single -0.05444355783347239 0.002629855657906056 -0.01219931271477663
Created 1 atoms
  using lattice units in orthogonal box = (-0.06 -0.006 -0.055) to (0.06 0.006 0.055)
  create_atoms CPU = 0.000 seconds
create_atoms 11 single -0.0552054391811216 0.002033725158022517 -0.012542955326460478
Created 1 atoms
  using lattice units in orthogonal box = (-0.06 -0.006 -0.055) to (0.06 0.006 0.055)
  create_atoms CPU = 0.000 seconds
create_atoms 11 single -0.05573799534560462 0.0012261245807206824 -0.012886597938144326
Created 1 atoms
  using lattice units in orthogonal box = (-0.06 -0.006 -0.055) to (0.06 0.006 0.055)
  create_atoms CPU = 0.000 seconds
create_atoms 11 single -0.055985850263499844 0.00029102955856396455 -0.013230240549828173
Created 1 atoms
  using lattice units in orthogonal box = (-0.06 -0.006 -0.055) to (0.06 0.006 0.055)
  create_atoms CPU = 0.000 seconds
create_atoms 11 single -0.05592323157394079 -0.0006743271944061633 -0.013573883161512021
Created 1 atoms
  using lattice units in orthogonal box = (-0.06 -0.006 -0.055) to (0.06 0.006 0.055)
  create_atoms CPU = 0.000 seconds
create_atoms 11 single -0.05555665047096793 -0.0015695662997463643 -0.013917525773195868
Created 1 atoms
  using lattice units in orthogonal box = (-0.06 -0.006 -0.055) to (0.06 0.006 0.055)
  create_atoms CPU = 0.000 seconds
create_atoms 11 single -0.05492422465889345 -0.0023015993270129355 -0.014261168384879716
Created 1 atoms
  using lattice units in orthogonal box = (-0.06 -0.006 -0.055) to (0.06 0.006 0.055)
  create_atoms CPU = 0.000 seconds
create_atoms 11 single -0.054091714810890486 -0.0027943082814325198 -0.014604810996563578
Created 1 atoms
  using lattice units in orthogonal box = (-0.06 -0.006 -0.055) to (0.06 0.006 0.055)
  create_atoms CPU = 0.000 seconds
create_atoms 11 single -0.053145686666343374 -0.002996460477838771 -0.014948453608247425
Created 1 atoms
  using lattice units in orthogonal box = (-0.06 -0.006 -0.055) to (0.06 0.006 0.055)
  create_atoms CPU = 0.000 seconds
create_atoms 11 single -0.052184509783290985 -0.002887035799302093 -0.015292096219931273
Created 1 atoms
  using lattice units in orthogonal box = (-0.06 -0.006 -0.055) to (0.06 0.006 0.055)
  create_atoms CPU = 0.000 seconds
create_atoms 11 single -0.051308128910447295 -0.0024774124033627772 -0.01563573883161512
Created 1 atoms
  using lattice units in orthogonal box = (-0.06 -0.006 -0.055) to (0.06 0.006 0.055)
  create_atoms CPU = 0.000 seconds
create_atoms 11 single -0.05060767156831185 -0.0018101836025487886 -0.015979381443298968
Created 1 atoms
  using lattice units in orthogonal box = (-0.06 -0.006 -0.055) to (0.06 0.006 0.055)
  create_atoms CPU = 0.000 seconds
create_atoms 11 single -0.0501559724601312 -0.0009547289418823539 -0.016323024054982815
Created 1 atoms
  using lattice units in orthogonal box = (-0.06 -0.006 -0.055) to (0.06 0.006 0.055)
  create_atoms CPU = 0.000 seconds
create_atoms 11 single -0.05 -2.866416286768713e-17 -0.016666666666666663
Created 1 atoms
  using lattice units in orthogonal box = (-0.06 -0.006 -0.055) to (0.06 0.006 0.055)
  create_atoms CPU = 0.000 seconds
create_atoms 11 single -0.05015597246013118 0.0009547289418822995 -0.01701030927835051
Created 1 atoms
  using lattice units in orthogonal box = (-0.06 -0.006 -0.055) to (0.06 0.006 0.055)
  create_atoms CPU = 0.000 seconds
create_atoms 11 single -0.050607671568311814 0.001810183602548743 -0.017353951890034358
Created 1 atoms
  using lattice units in orthogonal box = (-0.06 -0.006 -0.055) to (0.06 0.006 0.055)
  create_atoms CPU = 0.000 seconds
create_atoms 11 single -0.05130812891044728 0.002477412403362769 -0.01769759450171822
Created 1 atoms
  using lattice units in orthogonal box = (-0.06 -0.006 -0.055) to (0.06 0.006 0.055)
  create_atoms CPU = 0.000 seconds
create_atoms 11 single -0.05218450978329095 0.0028870357993020833 -0.018041237113402067
Created 1 atoms
  using lattice units in orthogonal box = (-0.06 -0.006 -0.055) to (0.06 0.006 0.055)
  create_atoms CPU = 0.000 seconds
create_atoms 11 single -0.05314568666634331 0.0029964604778387736 -0.018384879725085915
Created 1 atoms
  using lattice units in orthogonal box = (-0.06 -0.006 -0.055) to (0.06 0.006 0.055)
  create_atoms CPU = 0.000 seconds
create_atoms 11 single -0.05409171481089043 0.0027943082814325406 -0.018728522336769762
Created 1 atoms
  using lattice units in orthogonal box = (-0.06 -0.006 -0.055) to (0.06 0.006 0.055)
  create_atoms CPU = 0.000 seconds
create_atoms 11 single -0.05492422465889339 0.002301599327012986 -0.01907216494845361
Created 1 atoms
  using lattice units in orthogonal box = (-0.06 -0.006 -0.055) to (0.06 0.006 0.055)
  create_atoms CPU = 0.000 seconds
create_atoms 11 single -0.05555665047096789 0.0015695662997464313 -0.019415807560137457
Created 1 atoms
  using lattice units in orthogonal box = (-0.06 -0.006 -0.055) to (0.06 0.006 0.055)
  create_atoms CPU = 0.000 seconds
create_atoms 11 single -0.05592323157394077 0.00067432719440624 -0.019759450171821305
Created 1 atoms
  using lattice units in orthogonal box = (-0.06 -0.006 -0.055) to (0.06 0.006 0.055)
  create_atoms CPU = 0.000 seconds
create_atoms 11 single -0.05598585026349985 -0.00029102955856392867 -0.020103092783505153
Created 1 atoms
  using lattice units in orthogonal box = (-0.06 -0.006 -0.055) to (0.06 0.006 0.055)
  create_atoms CPU = 0.000 seconds
create_atoms 11 single -0.055737995345604634 -0.0012261245807206496 -0.020446735395189
Created 1 atoms
  using lattice units in orthogonal box = (-0.06 -0.006 -0.055) to (0.06 0.006 0.055)
  create_atoms CPU = 0.000 seconds
create_atoms 11 single -0.05520543918112162 -0.0020337251580224906 -0.02079037800687286
Created 1 atoms
  using lattice units in orthogonal box = (-0.06 -0.006 -0.055) to (0.06 0.006 0.055)
  create_atoms CPU = 0.000 seconds
create_atoms 11 single -0.05444355783347245 -0.0026298556579060282 -0.02113402061855671
Created 1 atoms
  using lattice units in orthogonal box = (-0.06 -0.006 -0.055) to (0.06 0.006 0.055)
  create_atoms CPU = 0.000 seconds
create_atoms 11 single -0.05353157297473771 -0.0029525294532872165 -0.021477663230240557
Created 1 atoms
  using lattice units in orthogonal box = (-0.06 -0.006 -0.055) to (0.06 0.006 0.055)
  create_atoms CPU = 0.000 seconds
create_atoms 11 single -0.05256431428626357 -0.002968194393709074 -0.021821305841924404
Created 1 atoms
  using lattice units in orthogonal box = (-0.06 -0.006 -0.055) to (0.06 0.006 0.055)
  create_atoms CPU = 0.000 seconds
create_atoms 11 single -0.05164235891286643 -0.0026752216129746643 -0.022164948453608252
Created 1 atoms
  using lattice units in orthogonal box = (-0.06 -0.006 -0.055) to (0.06 0.006 0.055)
  create_atoms CPU = 0.000 seconds
create_atoms 11 single -0.05086157328635952 -0.0021040749013257034 -0.0225085910652921
Created 1 atoms
  using lattice units in orthogonal box = (-0.06 -0.006 -0.055) to (0.06 0.006 0.055)
  create_atoms CPU = 0.000 seconds
create_atoms 11 single -0.05030314477674382 -0.0013141430305700593 -0.022852233676975947
Created 1 atoms
  using lattice units in orthogonal box = (-0.06 -0.006 -0.055) to (0.06 0.006 0.055)
  create_atoms CPU = 0.000 seconds
create_atoms 11 single -0.050025139696320726 -0.0003875644121862378 -0.023195876288659795
Created 1 atoms
  using lattice units in orthogonal box = (-0.06 -0.006 -0.055) to (0.06 0.006 0.055)
  create_atoms CPU = 0.000 seconds
create_atoms 11 single -0.050056465469305284 0.0005793137894162403 -0.023539518900343642
Created 1 atoms
  using lattice units in orthogonal box = (-0.06 -0.006 -0.055) to (0.06 0.006 0.055)
  create_atoms CPU = 0.000 seconds
create_atoms 11 single -0.05039386479044553 0.0014859539930699374 -0.02388316151202749
Created 1 atoms
  using lattice units in orthogonal box = (-0.06 -0.006 -0.055) to (0.06 0.006 0.055)
  create_atoms CPU = 0.000 seconds
create_atoms 11 single -0.051002254324964934 0.0022380822634297153 -0.024226804123711337
Created 1 atoms
  using lattice units in orthogonal box = (-0.06 -0.006 -0.055) to (0.06 0.006 0.055)
  create_atoms CPU = 0.000 seconds
create_atoms 11 single -0.0518183727312521 0.0027574910693874215 -0.024570446735395185
Created 1 atoms
  using lattice units in orthogonal box = (-0.06 -0.006 -0.055) to (0.06 0.006 0.055)
  create_atoms CPU = 0.000 seconds
create_atoms 11 single -0.05275735867891575 0.0029901714314237047 -0.024914089347079033
Created 1 atoms
  using lattice units in orthogonal box = (-0.06 -0.006 -0.055) to (0.06 0.006 0.055)
  create_atoms CPU = 0.000 seconds
create_atoms 11 single -0.05372157486909876 0.002911928863877879 -0.025257731958762894
Created 1 atoms
  using lattice units in orthogonal box = (-0.06 -0.006 -0.055) to (0.06 0.006 0.055)
  create_atoms CPU = 0.000 seconds
create_atoms 11 single -0.05461076052094695 0.0025308991572480202 -0.02560137457044674
Created 1 atoms
  using lattice units in orthogonal box = (-0.06 -0.006 -0.055) to (0.06 0.006 0.055)
  create_atoms CPU = 0.000 seconds
create_atoms 11 single -0.05533245665203894 0.0018867024053515467 -0.02594501718213059
Created 1 atoms
  using lattice units in orthogonal box = (-0.06 -0.006 -0.055) to (0.06 0.006 0.055)
  create_atoms CPU = 0.000 seconds
create_atoms 11 single -0.05581162011501903 0.0010463232429896675 -0.026288659793814437
Created 1 atoms
  using lattice units in orthogonal box = (-0.06 -0.006 -0.055) to (0.06 0.006 0.055)
  create_atoms CPU = 0.000 seconds
create_atoms 11 single -0.05599842670713655 9.714567376009481e-05 -0.026632302405498284
Created 1 atoms
  using lattice units in orthogonal box = (-0.06 -0.006 -0.055) to (0.06 0.006 0.055)
  create_atoms CPU = 0.000 seconds
create_atoms 11 single -0.05587345197256397 -0.0008621332619544535 -0.026975945017182132
Created 1 atoms
  using lattice units in orthogonal box = (-0.06 -0.006 -0.055) to (0.06 0.006 0.055)
  create_atoms CPU = 0.000 seconds
create_atoms 11 single -0.05544969098917166 -0.001731766167117028 -0.02731958762886598
Created 1 atoms
  using lattice units in orthogonal box = (-0.06 -0.006 -0.055) to (0.06 0.006 0.055)
  create_atoms CPU = 0.000 seconds
create_atoms 11 single -0.05477120711901777 -0.002421327185974828 -0.027663230240549827
Created 1 atoms
  using lattice units in orthogonal box = (-0.06 -0.006 -0.055) to (0.06 0.006 0.055)
  create_atoms CPU = 0.000 seconds
create_atoms 11 single -0.05390855022769386 -0.0028591146328465814 -0.028006872852233675
Created 1 atoms
  using lattice units in orthogonal box = (-0.06 -0.006 -0.055) to (0.06 0.006 0.055)
  create_atoms CPU = 0.000 seconds
create_atoms 11 single -0.05295142079359251 -0.0029996066509968967 -0.028350515463917522
Created 1 atoms
  using lattice units in orthogonal box = (-0.06 -0.006 -0.055) to (0.06 0.006 0.055)
  create_atoms CPU = 0.000 seconds
create_atoms 11 single -0.05199934270504755 -0.0028281946499593073 -0.02869415807560137
Created 1 atoms
  using lattice units in orthogonal box = (-0.06 -0.006 -0.055) to (0.06 0.006 0.055)
  create_atoms CPU = 0.000 seconds
create_atoms 11 single -0.05115131460319724 -0.002362702330732376 -0.029037800687285217
Created 1 atoms
  using lattice units in orthogonal box = (-0.06 -0.006 -0.055) to (0.06 0.006 0.055)
  create_atoms CPU = 0.000 seconds
create_atoms 11 single -0.050495515840912206 -0.0016515323481174316 -0.029381443298969065
Created 1 atoms
  using lattice units in orthogonal box = (-0.06 -0.006 -0.055) to (0.06 0.006 0.055)
  create_atoms CPU = 0.000 seconds
create_atoms 11 single -0.05010013744906218 -0.0007686333232877465 -0.029725085910652913
Created 1 atoms
  using lattice units in orthogonal box = (-0.06 -0.006 -0.055) to (0.06 0.006 0.055)
  create_atoms CPU = 0.000 seconds
create_atoms 11 single -0.05000629152128686 0.00019418945512327188 -0.03006872852233676
Created 1 atoms
  using lattice units in orthogonal box = (-0.06 -0.006 -0.055) to (0.06 0.006 0.055)
  create_atoms CPU = 0.000 seconds
create_atoms 11 single -0.05022373631107189 0.0011368200955029222 -0.03041237113402062
Created 1 atoms
  using lattice units in orthogonal box = (-0.06 -0.006 -0.055) to (0.06 0.006 0.055)
  create_atoms CPU = 0.000 seconds
create_atoms 11 single -0.05072986155254691 0.0019612423178677553 -0.03075601374570447
Created 1 atoms
  using lattice units in orthogonal box = (-0.06 -0.006 -0.055) to (0.06 0.006 0.055)
  create_atoms CPU = 0.000 seconds
create_atoms 11 single -0.051472039513013705 0.0025817313474117715 -0.031099656357388317
Created 1 atoms
  using lattice units in orthogonal box = (-0.06 -0.006 -0.055) to (0.06 0.006 0.055)
  create_atoms CPU = 0.000 seconds
create_atoms 11 single -0.05237309731090616 0.002933767717186709 -0.031443298969072164
Created 1 atoms
  using lattice units in orthogonal box = (-0.06 -0.006 -0.055) to (0.06 0.006 0.055)
  create_atoms CPU = 0.000 seconds
create_atoms 11 single -0.053339341478585836 0.002980746108092935 -0.03178694158075601
Created 1 atoms
  using lattice units in orthogonal box = (-0.06 -0.006 -0.055) to (0.06 0.006 0.055)
  create_atoms CPU = 0.000 seconds
create_atoms 11 single -0.05427030036277245 0.0027177816299953504 -0.03213058419243986
Created 1 atoms
  using lattice units in orthogonal box = (-0.06 -0.006 -0.055) to (0.06 0.006 0.055)
  create_atoms CPU = 0.000 seconds
create_atoms 11 single -0.055069171331834296 0.002172217760611284 -0.03247422680412371
Created 1 atoms
  using lattice units in orthogonal box = (-0.06 -0.006 -0.055) to (0.06 0.006 0.055)
  create_atoms CPU = 0.000 seconds
create_atoms 11 single -0.055652886472190057 0.0014007831258517514 -0.032817869415807555
Created 1 atoms
  using lattice units in orthogonal box = (-0.06 -0.006 -0.055) to (0.06 0.006 0.055)
  create_atoms CPU = 0.000 seconds
create_atoms 11 single -0.05596075012620167 0.0004836927642593176 -0.0331615120274914
Created 1 atoms
  using lattice units in orthogonal box = (-0.06 -0.006 -0.055) to (0.06 0.006 0.055)
  create_atoms CPU = 0.000 seconds
create_atoms 11 single -0.05596075012620168 -0.00048369276425927845 -0.033505154639175264
Created 1 atoms
  using lattice units in orthogonal box = (-0.06 -0.006 -0.055) to (0.06 0.006 0.055)
  create_atoms CPU = 0.000 seconds
create_atoms 11 single -0.05565288647219008 -0.0014007831258517165 -0.03384879725085911
Created 1 atoms
  using lattice units in orthogonal box = (-0.06 -0.006 -0.055) to (0.06 0.006 0.055)
  create_atoms CPU = 0.000 seconds
create_atoms 11 single -0.055069171331834324 -0.002172217760611257 -0.03419243986254296
Created 1 atoms
  using lattice units in orthogonal box = (-0.06 -0.006 -0.055) to (0.06 0.006 0.055)
  create_atoms CPU = 0.000 seconds
create_atoms 11 single -0.054270300362772486 -0.0027177816299953335 -0.034536082474226806
Created 1 atoms
  using lattice units in orthogonal box = (-0.06 -0.006 -0.055) to (0.06 0.006 0.055)
  create_atoms CPU = 0.000 seconds
create_atoms 11 single -0.05333934147858588 -0.0029807461080929307 -0.034879725085910654
Created 1 atoms
  using lattice units in orthogonal box = (-0.06 -0.006 -0.055) to (0.06 0.006 0.055)
  create_atoms CPU = 0.000 seconds
create_atoms 11 single -0.052373097310906204 -0.0029337677171867175 -0.0352233676975945
Created 1 atoms
  using lattice units in orthogonal box = (-0.06 -0.006 -0.055) to (0.06 0.006 0.055)
  create_atoms CPU = 0.000 seconds
create_atoms 11 single -0.05147203951301374 -0.002581731347411792 -0.03556701030927835
Created 1 atoms
  using lattice units in orthogonal box = (-0.06 -0.006 -0.055) to (0.06 0.006 0.055)
  create_atoms CPU = 0.000 seconds
create_atoms 11 single -0.05072986155254694 -0.0019612423178677852 -0.0359106529209622
Created 1 atoms
  using lattice units in orthogonal box = (-0.06 -0.006 -0.055) to (0.06 0.006 0.055)
  create_atoms CPU = 0.000 seconds
create_atoms 11 single -0.05022373631107191 -0.0011368200955029588 -0.036254295532646044
Created 1 atoms
  using lattice units in orthogonal box = (-0.06 -0.006 -0.055) to (0.06 0.006 0.055)
  create_atoms CPU = 0.000 seconds
create_atoms 11 single -0.05000629152128687 -0.0001941894551233115 -0.036597938144329906
Created 1 atoms
  using lattice units in orthogonal box = (-0.06 -0.006 -0.055) to (0.06 0.006 0.055)
  create_atoms CPU = 0.000 seconds
create_atoms 11 single -0.050100137449062165 0.000768633323287708 -0.03694158075601375
Created 1 atoms
  using lattice units in orthogonal box = (-0.06 -0.006 -0.055) to (0.06 0.006 0.055)
  create_atoms CPU = 0.000 seconds
create_atoms 11 single -0.05049551584091218 0.0016515323481173984 -0.0372852233676976
Created 1 atoms
  using lattice units in orthogonal box = (-0.06 -0.006 -0.055) to (0.06 0.006 0.055)
  create_atoms CPU = 0.000 seconds
create_atoms 11 single -0.051151314603197204 0.002362702330732351 -0.03762886597938145
Created 1 atoms
  using lattice units in orthogonal box = (-0.06 -0.006 -0.055) to (0.06 0.006 0.055)
  create_atoms CPU = 0.000 seconds
create_atoms 11 single -0.05199934270504752 0.0028281946499592947 -0.037972508591065296
Created 1 atoms
  using lattice units in orthogonal box = (-0.06 -0.006 -0.055) to (0.06 0.006 0.055)
  create_atoms CPU = 0.000 seconds
create_atoms 11 single -0.05295142079359247 0.002999606650996896 -0.038316151202749144
Created 1 atoms
  using lattice units in orthogonal box = (-0.06 -0.006 -0.055) to (0.06 0.006 0.055)
  create_atoms CPU = 0.000 seconds
create_atoms 11 single -0.05390855022769382 0.0028591146328465935 -0.03865979381443299
Created 1 atoms
  using lattice units in orthogonal box = (-0.06 -0.006 -0.055) to (0.06 0.006 0.055)
  create_atoms CPU = 0.000 seconds
create_atoms 11 single -0.05477120711901774 0.0024213271859748514 -0.03900343642611684
Created 1 atoms
  using lattice units in orthogonal box = (-0.06 -0.006 -0.055) to (0.06 0.006 0.055)
  create_atoms CPU = 0.000 seconds
create_atoms 11 single -0.05544969098917161 0.0017317661671170952 -0.039347079037800686
Created 1 atoms
  using lattice units in orthogonal box = (-0.06 -0.006 -0.055) to (0.06 0.006 0.055)
  create_atoms CPU = 0.000 seconds
create_atoms 11 single -0.055873451972563964 0.0008621332619544917 -0.03969072164948455
Created 1 atoms
  using lattice units in orthogonal box = (-0.06 -0.006 -0.055) to (0.06 0.006 0.055)
  create_atoms CPU = 0.000 seconds
create_atoms 11 single -0.05599842670713655 -9.714567376005516e-05 -0.040034364261168395
Created 1 atoms
  using lattice units in orthogonal box = (-0.06 -0.006 -0.055) to (0.06 0.006 0.055)
  create_atoms CPU = 0.000 seconds
create_atoms 11 single -0.05581162011501904 -0.0010463232429896304 -0.04037800687285224
Created 1 atoms
  using lattice units in orthogonal box = (-0.06 -0.006 -0.055) to (0.06 0.006 0.055)
  create_atoms CPU = 0.000 seconds
create_atoms 11 single -0.05533245665203897 -0.0018867024053515157 -0.04072164948453609
Created 1 atoms
  using lattice units in orthogonal box = (-0.06 -0.006 -0.055) to (0.06 0.006 0.055)
  create_atoms CPU = 0.000 seconds
create_atoms 11 single -0.054610760520946974 -0.002530899157247999 -0.04106529209621994
Created 1 atoms
  using lattice units in orthogonal box = (-0.06 -0.006 -0.055) to (0.06 0.006 0.055)
  create_atoms CPU = 0.000 seconds
create_atoms 11 single -0.053721574869098794 -0.0029119288638778697 -0.041408934707903786
Created 1 atoms
  using lattice units in orthogonal box = (-0.06 -0.006 -0.055) to (0.06 0.006 0.055)
  create_atoms CPU = 0.000 seconds
create_atoms 11 single -0.05275735867891583 -0.0029901714314237117 -0.04175257731958763
Created 1 atoms
  using lattice units in orthogonal box = (-0.06 -0.006 -0.055) to (0.06 0.006 0.055)
  create_atoms CPU = 0.000 seconds
create_atoms 11 single -0.05181837273125218 -0.0027574910693874536 -0.04209621993127148
Created 1 atoms
  using lattice units in orthogonal box = (-0.06 -0.006 -0.055) to (0.06 0.006 0.055)
  create_atoms CPU = 0.000 seconds
create_atoms 11 single -0.051002254324964996 -0.0022380822634297704 -0.04243986254295533
Created 1 atoms
  using lattice units in orthogonal box = (-0.06 -0.006 -0.055) to (0.06 0.006 0.055)
  create_atoms CPU = 0.000 seconds
create_atoms 11 single -0.05039386479044555 -0.0014859539930699719 -0.042783505154639176
Created 1 atoms
  using lattice units in orthogonal box = (-0.06 -0.006 -0.055) to (0.06 0.006 0.055)
  create_atoms CPU = 0.000 seconds
create_atoms 11 single -0.05005646546930529 -0.0005793137894162792 -0.043127147766323023
Created 1 atoms
  using lattice units in orthogonal box = (-0.06 -0.006 -0.055) to (0.06 0.006 0.055)
  create_atoms CPU = 0.000 seconds
create_atoms 11 single -0.050025139696320726 0.00038756441218619844 -0.04347079037800687
Created 1 atoms
  using lattice units in orthogonal box = (-0.06 -0.006 -0.055) to (0.06 0.006 0.055)
  create_atoms CPU = 0.000 seconds
create_atoms 11 single -0.0503031447767438 0.0013141430305700238 -0.04381443298969072
Created 1 atoms
  using lattice units in orthogonal box = (-0.06 -0.006 -0.055) to (0.06 0.006 0.055)
  create_atoms CPU = 0.000 seconds
create_atoms 11 single -0.05086157328635949 0.002104074901325675 -0.044158075601374566
Created 1 atoms
  using lattice units in orthogonal box = (-0.06 -0.006 -0.055) to (0.06 0.006 0.055)
  create_atoms CPU = 0.000 seconds
create_atoms 11 single -0.05164235891286635 0.002675221612974627 -0.044501718213058414
Created 1 atoms
  using lattice units in orthogonal box = (-0.06 -0.006 -0.055) to (0.06 0.006 0.055)
  create_atoms CPU = 0.000 seconds
create_atoms 11 single -0.05256431428626349 0.0029681943937090623 -0.04484536082474226
Created 1 atoms
  using lattice units in orthogonal box = (-0.06 -0.006 -0.055) to (0.06 0.006 0.055)
  create_atoms CPU = 0.000 seconds
create_atoms 11 single -0.05353157297473762 0.0029525294532872313 -0.04518900343642611
Created 1 atoms
  using lattice units in orthogonal box = (-0.06 -0.006 -0.055) to (0.06 0.006 0.055)
  create_atoms CPU = 0.000 seconds
create_atoms 11 single -0.05444355783347237 0.0026298556579060677 -0.045532646048109957
Created 1 atoms
  using lattice units in orthogonal box = (-0.06 -0.006 -0.055) to (0.06 0.006 0.055)
  create_atoms CPU = 0.000 seconds
create_atoms 11 single -0.0552054391811216 0.0020337251580225197 -0.04587628865979382
Created 1 atoms
  using lattice units in orthogonal box = (-0.06 -0.006 -0.055) to (0.06 0.006 0.055)
  create_atoms CPU = 0.000 seconds
create_atoms 11 single -0.05573799534560461 0.0012261245807206858 -0.046219931271477666
Created 1 atoms
  using lattice units in orthogonal box = (-0.06 -0.006 -0.055) to (0.06 0.006 0.055)
  create_atoms CPU = 0.000 seconds
create_atoms 11 single -0.055985850263499844 0.0002910295585639682 -0.04656357388316151
Created 1 atoms
  using lattice units in orthogonal box = (-0.06 -0.006 -0.055) to (0.06 0.006 0.055)
  create_atoms CPU = 0.000 seconds
create_atoms 11 single -0.05592323157394079 -0.0006743271944061597 -0.04690721649484536
Created 1 atoms
  using lattice units in orthogonal box = (-0.06 -0.006 -0.055) to (0.06 0.006 0.055)
  create_atoms CPU = 0.000 seconds
create_atoms 11 single -0.05555665047096793 -0.001569566299746361 -0.04725085910652921
Created 1 atoms
  using lattice units in orthogonal box = (-0.06 -0.006 -0.055) to (0.06 0.006 0.055)
  create_atoms CPU = 0.000 seconds
create_atoms 11 single -0.054924224658893454 -0.002301599327012933 -0.047594501718213056
Created 1 atoms
  using lattice units in orthogonal box = (-0.06 -0.006 -0.055) to (0.06 0.006 0.055)
  create_atoms CPU = 0.000 seconds
create_atoms 11 single -0.05409171481089051 -0.0027943082814325107 -0.0479381443298969
Created 1 atoms
  using lattice units in orthogonal box = (-0.06 -0.006 -0.055) to (0.06 0.006 0.055)
  create_atoms CPU = 0.000 seconds
create_atoms 11 single -0.053145686666343395 -0.0029964604778387697 -0.04828178694158075
Created 1 atoms
  using lattice units in orthogonal box = (-0.06 -0.006 -0.055) to (0.06 0.006 0.055)
  create_atoms CPU = 0.000 seconds
create_atoms 11 single -0.052184509783291026 -0.0028870357993021054 -0.0486254295532646
Created 1 atoms
  using lattice units in orthogonal box = (-0.06 -0.006 -0.055) to (0.06 0.006 0.055)
  create_atoms CPU = 0.000 seconds
create_atoms 11 single -0.051308128910447295 -0.0024774124033627794 -0.04896907216494846
Created 1 atoms
  using lattice units in orthogonal box = (-0.06 -0.006 -0.055) to (0.06 0.006 0.055)
  create_atoms CPU = 0.000 seconds
create_atoms 11 single -0.050607671568311856 -0.0018101836025487916 -0.04931271477663231
Created 1 atoms
  using lattice units in orthogonal box = (-0.06 -0.006 -0.055) to (0.06 0.006 0.055)
  create_atoms CPU = 0.000 seconds
create_atoms 11 single -0.0501559724601312 -0.0009547289418823573 -0.049656357388316155
Created 1 atoms
  using lattice units in orthogonal box = (-0.06 -0.006 -0.055) to (0.06 0.006 0.055)
  create_atoms CPU = 0.000 seconds
set type 11 diameter 0.002
Setting atom values ...
  290 settings made for diameter
set type 11 density 0.5
Setting atom values ...
  290 settings made for density
pair_coeff 11 11 granular hertz/material 0 0 0.5 tangential linear_nohistory 0 0

include structure/element_12.txt
create_atoms 12 single -0.03015597246013119 0.0009547289418823315 0.049656357388316155
Created 1 atoms
  using lattice units in orthogonal box = (-0.06 -0.006 -0.055) to (0.06 0.006 0.055)
  create_atoms CPU = 0.000 seconds
create_atoms 12 single -0.03060767156831184 0.0018101836025487736 0.04931271477663231
Created 1 atoms
  using lattice units in orthogonal box = (-0.06 -0.006 -0.055) to (0.06 0.006 0.055)
  create_atoms CPU = 0.000 seconds
create_atoms 12 single -0.031308128910447285 0.0024774124033627694 0.04896907216494845
Created 1 atoms
  using lattice units in orthogonal box = (-0.06 -0.006 -0.055) to (0.06 0.006 0.055)
  create_atoms CPU = 0.000 seconds
create_atoms 12 single -0.032184509783290974 0.0028870357993020907 0.048625429553264606
Created 1 atoms
  using lattice units in orthogonal box = (-0.06 -0.006 -0.055) to (0.06 0.006 0.055)
  create_atoms CPU = 0.000 seconds
create_atoms 12 single -0.03314568666634335 0.0029964604778387723 0.04828178694158076
Created 1 atoms
  using lattice units in orthogonal box = (-0.06 -0.006 -0.055) to (0.06 0.006 0.055)
  create_atoms CPU = 0.000 seconds
create_atoms 12 single -0.03409171481089046 0.002794308281432527 0.04793814432989691
Created 1 atoms
  using lattice units in orthogonal box = (-0.06 -0.006 -0.055) to (0.06 0.006 0.055)
  create_atoms CPU = 0.000 seconds
create_atoms 12 single -0.03492422465889342 0.002301599327012959 0.04759450171821306
Created 1 atoms
  using lattice units in orthogonal box = (-0.06 -0.006 -0.055) to (0.06 0.006 0.055)
  create_atoms CPU = 0.000 seconds
create_atoms 12 single -0.03555665047096791 0.001569566299746391 0.047250859106529215
Created 1 atoms
  using lattice units in orthogonal box = (-0.06 -0.006 -0.055) to (0.06 0.006 0.055)
  create_atoms CPU = 0.000 seconds
create_atoms 12 single -0.035923231573940784 0.0006743271944061887 0.04690721649484536
Created 1 atoms
  using lattice units in orthogonal box = (-0.06 -0.006 -0.055) to (0.06 0.006 0.055)
  create_atoms CPU = 0.000 seconds
create_atoms 12 single -0.03598585026349985 -0.00029102955856394395 0.04656357388316151
Created 1 atoms
  using lattice units in orthogonal box = (-0.06 -0.006 -0.055) to (0.06 0.006 0.055)
  create_atoms CPU = 0.000 seconds
create_atoms 12 single -0.03573799534560462 -0.0012261245807206674 0.046219931271477666
Created 1 atoms
  using lattice units in orthogonal box = (-0.06 -0.006 -0.055) to (0.06 0.006 0.055)
  create_atoms CPU = 0.000 seconds
create_atoms 12 single -0.0352054391811216 -0.002033725158022509 0.04587628865979382
Created 1 atoms
  using lattice units in orthogonal box = (-0.06 -0.006 -0.055) to (0.06 0.006 0.055)
  create_atoms CPU = 0.000 seconds
create_atoms 12 single -0.03444355783347242 -0.002629855657906042 0.04553264604810997
Created 1 atoms
  using lattice units in orthogonal box = (-0.06 -0.006 -0.055) to (0.06 0.006 0.055)
  create_atoms CPU = 0.000 seconds
create_atoms 12 single -0.033531572974737675 -0.0029525294532872226 0.04518900343642612
Created 1 atoms
  using lattice units in orthogonal box = (-0.06 -0.006 -0.055) to (0.06 0.006 0.055)
  create_atoms CPU = 0.000 seconds
create_atoms 12 single -0.03256431428626353 -0.0029681943937090683 0.04484536082474227
Created 1 atoms
  using lattice units in orthogonal box = (-0.06 -0.006 -0.055) to (0.06 0.006 0.055)
  create_atoms CPU = 0.000 seconds
create_atoms 12 single -0.03164235891286639 -0.002675221612974644 0.04450171821305842
Created 1 atoms
  using lattice units in orthogonal box = (-0.06 -0.006 -0.055) to (0.06 0.006 0.055)
  create_atoms CPU = 0.000 seconds
create_atoms 12 single -0.030861573286359516 -0.002104074901325698 0.04415807560137457
Created 1 atoms
  using lattice units in orthogonal box = (-0.06 -0.006 -0.055) to (0.06 0.006 0.055)
  create_atoms CPU = 0.000 seconds
create_atoms 12 single -0.030303144776743816 -0.0013141430305700478 0.043814432989690726
Created 1 atoms
  using lattice units in orthogonal box = (-0.06 -0.006 -0.055) to (0.06 0.006 0.055)
  create_atoms CPU = 0.000 seconds
create_atoms 12 single -0.030025139696320726 -0.00038756441218622 0.04347079037800687
Created 1 atoms
  using lattice units in orthogonal box = (-0.06 -0.006 -0.055) to (0.06 0.006 0.055)
  create_atoms CPU = 0.000 seconds
create_atoms 12 single -0.030056465469305287 0.0005793137894162632 0.043127147766323023
Created 1 atoms
  using lattice units in orthogonal box = (-0.06 -0.006 -0.055) to (0.06 0.006 0.055)
  create_atoms CPU = 0.000 seconds
create_atoms 12 single -0.03039386479044555 0.0014859539930699602 0.042783505154639176
Created 1 atoms
  using lattice units in orthogonal box = (-0.06 -0.006 -0.055) to (0.06 0.006 0.055)
  create_atoms CPU = 0.000 seconds
create_atoms 12 single -0.031002254324964958 0.002238082263429736 0.04243986254295533
Created 1 atoms
  using lattice units in orthogonal box = (-0.06 -0.006 -0.055) to (0.06 0.006 0.055)
  create_atoms CPU = 0.000 seconds
create_atoms 12 single -0.03181837273125214 0.002757491069387436 0.04209621993127148
Created 1 atoms
  using lattice units in orthogonal box = (-0.06 -0.006 -0.055) to (0.06 0.006 0.055)
  create_atoms CPU = 0.000 seconds
create_atoms 12 single -0.032757358678915785 0.002990171431423708 0.04175257731958763
Created 1 atoms
  using lattice units in orthogonal box = (-0.06 -0.006 -0.055) to (0.06 0.006 0.055)
  create_atoms CPU = 0.000 seconds
create_atoms 12 single -0.033721574869098755 0.0029119288638778788 0.041408934707903786
Created 1 atoms
  using lattice units in orthogonal box = (-0.06 -0.006 -0.055) to (0.06 0.006 0.055)
  create_atoms CPU = 0.000 seconds
create_atoms 12 single -0.03461076052094695 0.0025308991572480163 0.04106529209621993
Created 1 atoms
  using lattice units in orthogonal box = (-0.06 -0.006 -0.055) to (0.06 0.006 0.055)
  create_atoms CPU = 0.000 seconds
create_atoms 12 single -0.03533245665203895 0.0018867024053515367 0.040721649484536084
Created 1 atoms
  using lattice units in orthogonal box = (-0.06 -0.006 -0.055) to (0.06 0.006 0.055)
  create_atoms CPU = 0.000 seconds
create_atoms 12 single -0.03581162011501903 0.0010463232429896506 0.040378006872852236
Created 1 atoms
  using lattice units in orthogonal box = (-0.06 -0.006 -0.055) to (0.06 0.006 0.055)
  create_atoms CPU = 0.000 seconds
create_atoms 12 single -0.035998426707136544 9.714567376007149e-05 0.04003436426116839
Created 1 atoms
  using lattice units in orthogonal box = (-0.06 -0.006 -0.055) to (0.06 0.006 0.055)
  create_atoms CPU = 0.000 seconds
create_atoms 12 single -0.03587345197256397 -0.0008621332619544811 0.03969072164948454
Created 1 atoms
  using lattice units in orthogonal box = (-0.06 -0.006 -0.055) to (0.06 0.006 0.055)
  create_atoms CPU = 0.000 seconds
create_atoms 12 single -0.03544969098917164 -0.0017317661671170557 0.039347079037800686
Created 1 atoms
  using lattice units in orthogonal box = (-0.06 -0.006 -0.055) to (0.06 0.006 0.055)
  create_atoms CPU = 0.000 seconds
create_atoms 12 single -0.03477120711901777 -0.0024213271859748263 0.03900343642611684
Created 1 atoms
  using lattice units in orthogonal box = (-0.06 -0.006 -0.055) to (0.06 0.006 0.055)
  create_atoms CPU = 0.000 seconds
create_atoms 12 single -0.03390855022769386 -0.002859114632846582 0.03865979381443299
Created 1 atoms
  using lattice units in orthogonal box = (-0.06 -0.006 -0.055) to (0.06 0.006 0.055)
  create_atoms CPU = 0.000 seconds
create_atoms 12 single -0.0329514207935925 -0.0029996066509968967 0.038316151202749144
Created 1 atoms
  using lattice units in orthogonal box = (-0.06 -0.006 -0.055) to (0.06 0.006 0.055)
  create_atoms CPU = 0.000 seconds
create_atoms 12 single -0.03199934270504754 -0.0028281946499593034 0.037972508591065296
Created 1 atoms
  using lattice units in orthogonal box = (-0.06 -0.006 -0.055) to (0.06 0.006 0.055)
  create_atoms CPU = 0.000 seconds
create_atoms 12 single -0.03115131460319722 -0.0023627023307323646 0.03762886597938145
Created 1 atoms
  using lattice units in orthogonal box = (-0.06 -0.006 -0.055) to (0.06 0.006 0.055)
  create_atoms CPU = 0.000 seconds
create_atoms 12 single -0.03049551584091219 -0.0016515323481174167 0.0372852233676976
Created 1 atoms
  using lattice units in orthogonal box = (-0.06 -0.006 -0.055) to (0.06 0.006 0.055)
  create_atoms CPU = 0.000 seconds
create_atoms 12 single -0.03010013744906217 -0.0007686333232877187 0.036941580756013746
Created 1 atoms
  using lattice units in orthogonal box = (-0.06 -0.006 -0.055) to (0.06 0.006 0.055)
  create_atoms CPU = 0.000 seconds
create_atoms 12 single -0.03000629152128687 0.00019418945512330048 0.0365979381443299
Created 1 atoms
  using lattice units in orthogonal box = (-0.06 -0.006 -0.055) to (0.06 0.006 0.055)
  create_atoms CPU = 0.000 seconds
create_atoms 12 single -0.030223736311071888 0.001136820095502919 0.03625429553264605
Created 1 atoms
  using lattice units in orthogonal box = (-0.06 -0.006 -0.055) to (0.06 0.006 0.055)
  create_atoms CPU = 0.000 seconds
create_atoms 12 single -0.03072986155254691 0.0019612423178677527 0.035910652920962204
Created 1 atoms
[...]
  special bond factors coul:  0        1        1       
     3 = max # of 1-2 neighbors
     3 = max # of special neighbors
  special bonds CPU = 0.000 seconds
create_bonds single/dihedral 4 1265 1266 1267 1268
Finding 1-2 1-3 1-4 neighbors ...
  special bond factors lj:    0        1        1       
  special bond factors coul:  0        1        1       
     3 = max # of 1-2 neighbors
     3 = max # of special neighbors
  special bonds CPU = 0.000 seconds
create_bonds single/dihedral 4 1266 1267 1268 1269
Finding 1-2 1-3 1-4 neighbors ...
  special bond factors lj:    0        1        1       
  special bond factors coul:  0        1        1       
     3 = max # of 1-2 neighbors
     3 = max # of special neighbors
  special bonds CPU = 0.000 seconds
create_bonds single/dihedral 4 1267 1268 1269 1270
Finding 1-2 1-3 1-4 neighbors ...
  special bond factors lj:    0        1        1       
  special bond factors coul:  0        1        1       
     3 = max # of 1-2 neighbors
     3 = max # of special neighbors
  special bonds CPU = 0.000 seconds
create_bonds single/dihedral 4 1268 1269 1270 8
Finding 1-2 1-3 1-4 neighbors ...
  special bond factors lj:    0        1        1       
  special bond factors coul:  0        1        1       
     3 = max # of 1-2 neighbors
     3 = max # of special neighbors
  special bonds CPU = 0.000 seconds
create_bonds single/dihedral 4 5 1271 1272 1273
Finding 1-2 1-3 1-4 neighbors ...
  special bond factors lj:    0        1        1       
  special bond factors coul:  0        1        1       
     3 = max # of 1-2 neighbors
     3 = max # of special neighbors
  special bonds CPU = 0.000 seconds
create_bonds single/dihedral 4 1271 1272 1273 1274
Finding 1-2 1-3 1-4 neighbors ...
  special bond factors lj:    0        1        1       
  special bond factors coul:  0        1        1       
     3 = max # of 1-2 neighbors
     3 = max # of special neighbors
  special bonds CPU = 0.000 seconds
create_bonds single/dihedral 4 1272 1273 1274 1275
Finding 1-2 1-3 1-4 neighbors ...
  special bond factors lj:    0        1        1       
  special bond factors coul:  0        1        1       
     3 = max # of 1-2 neighbors
     3 = max # of special neighbors
  special bonds CPU = 0.000 seconds
create_bonds single/dihedral 4 1273 1274 1275 1276
Finding 1-2 1-3 1-4 neighbors ...
  special bond factors lj:    0        1        1       
  special bond factors coul:  0        1        1       
     3 = max # of 1-2 neighbors
     3 = max # of special neighbors
  special bonds CPU = 0.000 seconds
create_bonds single/dihedral 4 1274 1275 1276 1277
Finding 1-2 1-3 1-4 neighbors ...
  special bond factors lj:    0        1        1       
  special bond factors coul:  0        1        1       
     3 = max # of 1-2 neighbors
     3 = max # of special neighbors
  special bonds CPU = 0.000 seconds
create_bonds single/dihedral 4 1275 1276 1277 1278
Finding 1-2 1-3 1-4 neighbors ...
  special bond factors lj:    0        1        1       
  special bond factors coul:  0        1        1       
     3 = max # of 1-2 neighbors
     3 = max # of special neighbors
  special bonds CPU = 0.000 seconds
create_bonds single/dihedral 4 1276 1277 1278 1279
Finding 1-2 1-3 1-4 neighbors ...
  special bond factors lj:    0        1        1       
  special bond factors coul:  0        1        1       
     3 = max # of 1-2 neighbors
     3 = max # of special neighbors
  special bonds CPU = 0.000 seconds
create_bonds single/dihedral 4 1277 1278 1279 1280
Finding 1-2 1-3 1-4 neighbors ...
  special bond factors lj:    0        1        1       
  special bond factors coul:  0        1        1       
     3 = max # of 1-2 neighbors
     3 = max # of special neighbors
  special bonds CPU = 0.000 seconds
create_bonds single/dihedral 4 1278 1279 1280 1281
Finding 1-2 1-3 1-4 neighbors ...
  special bond factors lj:    0        1        1       
  special bond factors coul:  0        1        1       
     3 = max # of 1-2 neighbors
     3 = max # of special neighbors
  special bonds CPU = 0.000 seconds
create_bonds single/dihedral 4 1279 1280 1281 1282
Finding 1-2 1-3 1-4 neighbors ...
  special bond factors lj:    0        1        1       
  special bond factors coul:  0        1        1       
     3 = max # of 1-2 neighbors
     3 = max # of special neighbors
  special bonds CPU = 0.000 seconds
create_bonds single/dihedral 4 1280 1281 1282 1283
Finding 1-2 1-3 1-4 neighbors ...
  special bond factors lj:    0        1        1       
  special bond factors coul:  0        1        1       
     3 = max # of 1-2 neighbors
     3 = max # of special neighbors
  special bonds CPU = 0.000 seconds
create_bonds single/dihedral 4 1281 1282 1283 1284
Finding 1-2 1-3 1-4 neighbors ...
  special bond factors lj:    0        1        1       
  special bond factors coul:  0        1        1       
     3 = max # of 1-2 neighbors
     3 = max # of special neighbors
  special bonds CPU = 0.000 seconds
create_bonds single/dihedral 4 1282 1283 1284 1285
Finding 1-2 1-3 1-4 neighbors ...
  special bond factors lj:    0        1        1       
  special bond factors coul:  0        1        1       
     3 = max # of 1-2 neighbors
     3 = max # of special neighbors
  special bonds CPU = 0.000 seconds
create_bonds single/dihedral 4 1283 1284 1285 1286
Finding 1-2 1-3 1-4 neighbors ...
  special bond factors lj:    0        1        1       
  special bond factors coul:  0        1        1       
     3 = max # of 1-2 neighbors
     3 = max # of special neighbors
  special bonds CPU = 0.000 seconds
create_bonds single/dihedral 4 1284 1285 1286 1287
Finding 1-2 1-3 1-4 neighbors ...
  special bond factors lj:    0        1        1       
  special bond factors coul:  0        1        1       
     3 = max # of 1-2 neighbors
     3 = max # of special neighbors
  special bonds CPU = 0.000 seconds
create_bonds single/dihedral 4 1285 1286 1287 1288
Finding 1-2 1-3 1-4 neighbors ...
  special bond factors lj:    0        1        1       
  special bond factors coul:  0        1        1       
     3 = max # of 1-2 neighbors
     3 = max # of special neighbors
  special bonds CPU = 0.000 seconds
create_bonds single/dihedral 4 1286 1287 1288 1289
Finding 1-2 1-3 1-4 neighbors ...
  special bond factors lj:    0        1        1       
  special bond factors coul:  0        1        1       
     3 = max # of 1-2 neighbors
     3 = max # of special neighbors
  special bonds CPU = 0.000 seconds
create_bonds single/dihedral 4 1287 1288 1289 1290
Finding 1-2 1-3 1-4 neighbors ...
  special bond factors lj:    0        1        1       
  special bond factors coul:  0        1        1       
     3 = max # of 1-2 neighbors
     3 = max # of special neighbors
  special bonds CPU = 0.000 seconds
create_bonds single/dihedral 4 1288 1289 1290 7
Finding 1-2 1-3 1-4 neighbors ...
  special bond factors lj:    0        1        1       
  special bond factors coul:  0        1        1       
     3 = max # of 1-2 neighbors
     3 = max # of special neighbors
  special bonds CPU = 0.000 seconds
create_bonds single/dihedral 4 8 1581 1582 1583
Finding 1-2 1-3 1-4 neighbors ...
  special bond factors lj:    0        1        1       
  special bond factors coul:  0        1        1       
     3 = max # of 1-2 neighbors
     3 = max # of special neighbors
  special bonds CPU = 0.000 seconds
create_bonds single/dihedral 4 1581 1582 1583 1584
Finding 1-2 1-3 1-4 neighbors ...
  special bond factors lj:    0        1        1       
  special bond factors coul:  0        1        1       
     3 = max # of 1-2 neighbors
     3 = max # of special neighbors
  special bonds CPU = 0.000 seconds
create_bonds single/dihedral 4 1582 1583 1584 1585
Finding 1-2 1-3 1-4 neighbors ...
  special bond factors lj:    0        1        1       
  special bond factors coul:  0        1        1       
     3 = max # of 1-2 neighbors
     3 = max # of special neighbors
  special bonds CPU = 0.000 seconds
create_bonds single/dihedral 4 1583 1584 1585 1586
Finding 1-2 1-3 1-4 neighbors ...
  special bond factors lj:    0        1        1       
  special bond factors coul:  0        1        1       
     3 = max # of 1-2 neighbors
     3 = max # of special neighbors
  special bonds CPU = 0.000 seconds
create_bonds single/dihedral 4 1584 1585 1586 1587
Finding 1-2 1-3 1-4 neighbors ...
  special bond factors lj:    0        1        1       
  special bond factors coul:  0        1        1       
     3 = max # of 1-2 neighbors
     3 = max # of special neighbors
  special bonds CPU = 0.000 seconds
create_bonds single/dihedral 4 1585 1586 1587 1588
Finding 1-2 1-3 1-4 neighbors ...
  special bond factors lj:    0        1        1       
  special bond factors coul:  0        1        1       
     3 = max # of 1-2 neighbors
     3 = max # of special neighbors
  special bonds CPU = 0.000 seconds
create_bonds single/dihedral 4 1586 1587 1588 1589
Finding 1-2 1-3 1-4 neighbors ...
  special bond factors lj:    0        1        1       
  special bond factors coul:  0        1        1       
     3 = max # of 1-2 neighbors
     3 = max # of special neighbors
  special bonds CPU = 0.000 seconds
create_bonds single/dihedral 4 1587 1588 1589 1590
Finding 1-2 1-3 1-4 neighbors ...
  special bond factors lj:    0        1        1       
  special bond factors coul:  0        1        1       
     3 = max # of 1-2 neighbors
     3 = max # of special neighbors
  special bonds CPU = 0.000 seconds
create_bonds single/dihedral 4 1588 1589 1590 1591
Finding 1-2 1-3 1-4 neighbors ...
  special bond factors lj:    0        1        1       
  special bond factors coul:  0        1        1       
     3 = max # of 1-2 neighbors
     3 = max # of special neighbors
  special bonds CPU = 0.000 seconds
create_bonds single/dihedral 4 1589 1590 1591 1592
Finding 1-2 1-3 1-4 neighbors ...
  special bond factors lj:    0        1        1       
  special bond factors coul:  0        1        1       
     3 = max # of 1-2 neighbors
     3 = max # of special neighbors
  special bonds CPU = 0.000 seconds
create_bonds single/dihedral 4 1590 1591 1592 1593
Finding 1-2 1-3 1-4 neighbors ...
  special bond factors lj:    0        1        1       
  special bond factors coul:  0        1        1       
     3 = max # of 1-2 neighbors
     3 = max # of special neighbors
  special bonds CPU = 0.000 seconds
create_bonds single/dihedral 4 1591 1592 1593 1594
Finding 1-2 1-3 1-4 neighbors ...
  special bond factors lj:    0        1        1       
  special bond factors coul:  0        1        1       
     3 = max # of 1-2 neighbors
     3 = max # of special neighbors
  special bonds CPU = 0.000 seconds
create_bonds single/dihedral 4 1592 1593 1594 1595
Finding 1-2 1-3 1-4 neighbors ...
  special bond factors lj:    0        1        1       
  special bond factors coul:  0        1        1       
     3 = max # of 1-2 neighbors
     3 = max # of special neighbors
  special bonds CPU = 0.000 seconds
create_bonds single/dihedral 4 1593 1594 1595 1596
Finding 1-2 1-3 1-4 neighbors ...
  special bond factors lj:    0        1        1       
  special bond factors coul:  0        1        1       
     3 = max # of 1-2 neighbors
     3 = max # of special neighbors
  special bonds CPU = 0.000 seconds
create_bonds single/dihedral 4 1594 1595 1596 1597
Finding 1-2 1-3 1-4 neighbors ...
  special bond factors lj:    0        1        1       
  special bond factors coul:  0        1        1       
     3 = max # of 1-2 neighbors
     3 = max # of special neighbors
  special bonds CPU = 0.000 seconds
create_bonds single/dihedral 4 1595 1596 1597 1598
Finding 1-2 1-3 1-4 neighbors ...
  special bond factors lj:    0        1        1       
  special bond factors coul:  0        1        1       
     3 = max # of 1-2 neighbors
     3 = max # of special neighbors
  special bonds CPU = 0.000 seconds
create_bonds single/dihedral 4 1596 1597 1598 1599
Finding 1-2 1-3 1-4 neighbors ...
  special bond factors lj:    0        1        1       
  special bond factors coul:  0        1        1       
     3 = max # of 1-2 neighbors
     3 = max # of special neighbors
  special bonds CPU = 0.000 seconds
create_bonds single/dihedral 4 1597 1598 1599 1600
Finding 1-2 1-3 1-4 neighbors ...
  special bond factors lj:    0        1        1       
  special bond factors coul:  0        1        1       
     3 = max # of 1-2 neighbors
     3 = max # of special neighbors
  special bonds CPU = 0.000 seconds
create_bonds single/dihedral 4 1598 1599 1600 10
Finding 1-2 1-3 1-4 neighbors ...
  special bond factors lj:    0        1        1       
  special bond factors coul:  0        1        1       
     3 = max # of 1-2 neighbors
     3 = max # of special neighbors
  special bonds CPU = 0.000 seconds
create_bonds single/dihedral 4 7 1601 1602 1603
Finding 1-2 1-3 1-4 neighbors ...
  special bond factors lj:    0        1        1       
  special bond factors coul:  0        1        1       
     3 = max # of 1-2 neighbors
     3 = max # of special neighbors
  special bonds CPU = 0.000 seconds
create_bonds single/dihedral 4 1601 1602 1603 1604
Finding 1-2 1-3 1-4 neighbors ...
  special bond factors lj:    0        1        1       
  special bond factors coul:  0        1        1       
     3 = max # of 1-2 neighbors
     3 = max # of special neighbors
  special bonds CPU = 0.000 seconds
create_bonds single/dihedral 4 1602 1603 1604 1605
Finding 1-2 1-3 1-4 neighbors ...
  special bond factors lj:    0        1        1       
  special bond factors coul:  0        1        1       
     3 = max # of 1-2 neighbors
     3 = max # of special neighbors
  special bonds CPU = 0.000 seconds
create_bonds single/dihedral 4 1603 1604 1605 1606
Finding 1-2 1-3 1-4 neighbors ...
  special bond factors lj:    0        1        1       
  special bond factors coul:  0        1        1       
     3 = max # of 1-2 neighbors
     3 = max # of special neighbors
  special bonds CPU = 0.000 seconds
create_bonds single/dihedral 4 1604 1605 1606 1607
Finding 1-2 1-3 1-4 neighbors ...
  special bond factors lj:    0        1        1       
  special bond factors coul:  0        1        1       
     3 = max # of 1-2 neighbors
     3 = max # of special neighbors
  special bonds CPU = 0.000 seconds
create_bonds single/dihedral 4 1605 1606 1607 1608
Finding 1-2 1-3 1-4 neighbors ...
  special bond factors lj:    0        1        1       
  special bond factors coul:  0        1        1       
     3 = max # of 1-2 neighbors
     3 = max # of special neighbors
  special bonds CPU = 0.000 seconds
create_bonds single/dihedral 4 1606 1607 1608 1609
Finding 1-2 1-3 1-4 neighbors ...
  special bond factors lj:    0        1        1       
  special bond factors coul:  0        1        1       
     3 = max # of 1-2 neighbors
     3 = max # of special neighbors
  special bonds CPU = 0.000 seconds
create_bonds single/dihedral 4 1607 1608 1609 1610
Finding 1-2 1-3 1-4 neighbors ...
  special bond factors lj:    0        1        1       
  special bond factors coul:  0        1        1       
     3 = max # of 1-2 neighbors
     3 = max # of special neighbors
  special bonds CPU = 0.000 seconds
create_bonds single/dihedral 4 1608 1609 1610 1611
Finding 1-2 1-3 1-4 neighbors ...
  special bond factors lj:    0        1        1       
  special bond factors coul:  0        1        1       
     3 = max # of 1-2 neighbors
     3 = max # of special neighbors
  special bonds CPU = 0.000 seconds
create_bonds single/dihedral 4 1609 1610 1611 1612
Finding 1-2 1-3 1-4 neighbors ...
  special bond factors lj:    0        1        1       
  special bond factors coul:  0        1        1       
     3 = max # of 1-2 neighbors
     3 = max # of special neighbors
  special bonds CPU = 0.000 seconds
create_bonds single/dihedral 4 1610 1611 1612 1613
Finding 1-2 1-3 1-4 neighbors ...
  special bond factors lj:    0        1        1       
  special bond factors coul:  0        1        1       
     3 = max # of 1-2 neighbors
     3 = max # of special neighbors
  special bonds CPU = 0.000 seconds
create_bonds single/dihedral 4 1611 1612 1613 1614
Finding 1-2 1-3 1-4 neighbors ...
  special bond factors lj:    0        1        1       
  special bond factors coul:  0        1        1       
     3 = max # of 1-2 neighbors
     3 = max # of special neighbors
  special bonds CPU = 0.000 seconds
create_bonds single/dihedral 4 1612 1613 1614 1615
Finding 1-2 1-3 1-4 neighbors ...
  special bond factors lj:    0        1        1       
  special bond factors coul:  0        1        1       
     3 = max # of 1-2 neighbors
     3 = max # of special neighbors
  special bonds CPU = 0.000 seconds
create_bonds single/dihedral 4 1613 1614 1615 1616
Finding 1-2 1-3 1-4 neighbors ...
  special bond factors lj:    0        1        1       
  special bond factors coul:  0        1        1       
     3 = max # of 1-2 neighbors
     3 = max # of special neighbors
  special bonds CPU = 0.000 seconds
create_bonds single/dihedral 4 1614 1615 1616 1617
Finding 1-2 1-3 1-4 neighbors ...
  special bond factors lj:    0        1        1       
  special bond factors coul:  0        1        1       
     3 = max # of 1-2 neighbors
     3 = max # of special neighbors
  special bonds CPU = 0.000 seconds
create_bonds single/dihedral 4 1615 1616 1617 1618
Finding 1-2 1-3 1-4 neighbors ...
  special bond factors lj:    0        1        1       
  special bond factors coul:  0        1        1       
     3 = max # of 1-2 neighbors
     3 = max # of special neighbors
  special bonds CPU = 0.000 seconds
create_bonds single/dihedral 4 1616 1617 1618 1619
Finding 1-2 1-3 1-4 neighbors ...
  special bond factors lj:    0        1        1       
  special bond factors coul:  0        1        1       
     3 = max # of 1-2 neighbors
     3 = max # of special neighbors
  special bonds CPU = 0.000 seconds
create_bonds single/dihedral 4 1617 1618 1619 1620
Finding 1-2 1-3 1-4 neighbors ...
  special bond factors lj:    0        1        1       
  special bond factors coul:  0        1        1       
     3 = max # of 1-2 neighbors
     3 = max # of special neighbors
  special bonds CPU = 0.000 seconds
create_bonds single/dihedral 4 1618 1619 1620 9
Finding 1-2 1-3 1-4 neighbors ...
  special bond factors lj:    0        1        1       
  special bond factors coul:  0        1        1       
     3 = max # of 1-2 neighbors
     3 = max # of special neighbors
  special bonds CPU = 0.000 seconds
angle_coeff 5 0.00128 90
include structure/angle_5.txt
create_bonds single/angle 5 300 2 591
Finding 1-2 1-3 1-4 neighbors ...
  special bond factors lj:    0        1        1       
  special bond factors coul:  0        1        1       
     3 = max # of 1-2 neighbors
     3 = max # of special neighbors
  special bonds CPU = 0.000 seconds
create_bonds single/angle 5 11 1 611
Finding 1-2 1-3 1-4 neighbors ...
  special bond factors lj:    0        1        1       
  special bond factors coul:  0        1        1       
     3 = max # of 1-2 neighbors
     3 = max # of special neighbors
  special bonds CPU = 0.000 seconds
create_bonds single/angle 5 590 4 921
Finding 1-2 1-3 1-4 neighbors ...
  special bond factors lj:    0        1        1       
  special bond factors coul:  0        1        1       
     3 = max # of 1-2 neighbors
     3 = max # of special neighbors
  special bonds CPU = 0.000 seconds
create_bonds single/angle 5 301 3 941
Finding 1-2 1-3 1-4 neighbors ...
  special bond factors lj:    0        1        1       
  special bond factors coul:  0        1        1       
     3 = max # of 1-2 neighbors
     3 = max # of special neighbors
  special bonds CPU = 0.000 seconds
create_bonds single/angle 5 920 6 1251
Finding 1-2 1-3 1-4 neighbors ...
  special bond factors lj:    0 