LAMMPS (29 Aug 2024 - Update 1)
  using 1 OpenMP thread(s) per MPI task
atom_style hybrid molecular sphere
WARNING: Atom style hybrid defines both, per-type and per-atom masses; both must be set, but only per-atom masses will be used (src/src/atom_vec_hybrid.cpp:132)
units si
processors	* * 1
comm_modify vel yes
comm_modify cutoff 0.01

region simulationStation block -0.060000000000000005 0.060000000000000005 -0.006 0.006 -0.055 0.055
create_box 100 simulationStation bond/types 100000 extra/bond/per/atom 100 angle/types 10000 extra/angle/per/atom 100 dihedral/types 1000 extra/dihedral/per/atom 100
Created orthogonal box = (-0.06 -0.006 -0.055) to (0.06 0.006 0.055)
  1 by 1 by 1 MPI processor grid
change_box	all boundary f f f
Changing box ...

pair_style hybrid/overlay granular lj/cut 0
pair_coeff  * * granular hertz/material 0 0 0 tangential linear_nohistory 0 0
pair_coeff  * * lj/cut 0 0 0

special_bonds lj/coul 0 1.0 1.0
Finding 1-2 1-3 1-4 neighbors ...
  special bond factors lj:    0        1        1       
  special bond factors coul:  0        1        1       
     0 = max # of 1-2 neighbors
     1 = max # of special neighbors
  special bonds CPU = 0.000 seconds
bond_style harmonic
angle_style cosine/shift
dihedral_style spherical

bond_coeff * 0 0
angle_coeff * 0 0
dihedral_coeff * 1 0 1 0 1 1 90 0 1 90 0
fix integration all nve/sphere
neigh_modify page 500000 one 50000


### Here we will begin to include particles ###


fix fix_walls_1 all wall/gran/region granular hertz/material 10000 0.25 0.25 tangential linear_nohistory 0 0 region simulationStation
pair_coeff * * granular hertz/material 10000 0 0.5 tangential linear_nohistory 0 0

include node_1.txt
create_atoms 1 single -0.05 0.0 -0.05
Created 1 atoms
  using lattice units in orthogonal box = (-0.06 -0.006 -0.055) to (0.06 0.006 0.055)
  create_atoms CPU = 0.000 seconds
set type 1 diameter 0.002
Setting atom values ...
  1 settings made for diameter
set type 1 density 0.5
Setting atom values ...
  1 settings made for density

include node_2.txt
create_atoms 2 single -0.05 -7.34788079488412e-18 0.05
Created 1 atoms
  using lattice units in orthogonal box = (-0.06 -0.006 -0.055) to (0.06 0.006 0.055)
  create_atoms CPU = 0.002 seconds
set type 2 diameter 0.002
Setting atom values ...
  1 settings made for diameter
set type 2 density 0.5
Setting atom values ...
  1 settings made for density

include node_3.txt
create_atoms 3 single -0.030000000000000002 0.0 -0.05
Created 1 atoms
  using lattice units in orthogonal box = (-0.06 -0.006 -0.055) to (0.06 0.006 0.055)
  create_atoms CPU = 0.000 seconds
set type 3 diameter 0.002
Setting atom values ...
  1 settings made for diameter
set type 3 density 0.5
Setting atom values ...
  1 settings made for density

include node_4.txt
create_atoms 4 single -0.030000000000000002 -7.34788079488412e-18 0.05
Created 1 atoms
  using lattice units in orthogonal box = (-0.06 -0.006 -0.055) to (0.06 0.006 0.055)
  create_atoms CPU = 0.000 seconds
set type 4 diameter 0.002
Setting atom values ...
  1 settings made for diameter
set type 4 density 0.5
Setting atom values ...
  1 settings made for density

include node_5.txt
create_atoms 5 single -0.010000000000000002 0.0 -0.05
Created 1 atoms
  using lattice units in orthogonal box = (-0.06 -0.006 -0.055) to (0.06 0.006 0.055)
  create_atoms CPU = 0.000 seconds
set type 5 diameter 0.002
Setting atom values ...
  1 settings made for diameter
set type 5 density 0.5
Setting atom values ...
  1 settings made for density

include node_6.txt
create_atoms 6 single -0.010000000000000002 -7.34788079488412e-18 0.05
Created 1 atoms
  using lattice units in orthogonal box = (-0.06 -0.006 -0.055) to (0.06 0.006 0.055)
  create_atoms CPU = 0.000 seconds
set type 6 diameter 0.002
Setting atom values ...
  1 settings made for diameter
set type 6 density 0.5
Setting atom values ...
  1 settings made for density

include node_7.txt
create_atoms 7 single 0.009999999999999998 0.0 -0.05
Created 1 atoms
  using lattice units in orthogonal box = (-0.06 -0.006 -0.055) to (0.06 0.006 0.055)
  create_atoms CPU = 0.000 seconds
set type 7 diameter 0.002
Setting atom values ...
  1 settings made for diameter
set type 7 density 0.5
Setting atom values ...
  1 settings made for density

include node_8.txt
create_atoms 8 single 0.009999999999999998 -7.34788079488412e-18 0.05
Created 1 atoms
  using lattice units in orthogonal box = (-0.06 -0.006 -0.055) to (0.06 0.006 0.055)
  create_atoms CPU = 0.000 seconds
set type 8 diameter 0.002
Setting atom values ...
  1 settings made for diameter
set type 8 density 0.5
Setting atom values ...
  1 settings made for density

include node_9.txt
create_atoms 9 single 0.029999999999999995 0.0 -0.05
Created 1 atoms
  using lattice units in orthogonal box = (-0.06 -0.006 -0.055) to (0.06 0.006 0.055)
  create_atoms CPU = 0.000 seconds
set type 9 diameter 0.002
Setting atom values ...
  1 settings made for diameter
set type 9 density 0.5
Setting atom values ...
  1 settings made for density

include node_10.txt
create_atoms 10 single 0.029999999999999995 -7.34788079488412e-18 0.05
Created 1 atoms
  using lattice units in orthogonal box = (-0.06 -0.006 -0.055) to (0.06 0.006 0.055)
  create_atoms CPU = 0.000 seconds
set type 10 diameter 0.002
Setting atom values ...
  1 settings made for diameter
set type 10 density 0.5
Setting atom values ...
  1 settings made for density

include node_11.txt
create_atoms 11 single 0.05 0.0 -0.05
Created 1 atoms
  using lattice units in orthogonal box = (-0.06 -0.006 -0.055) to (0.06 0.006 0.055)
  create_atoms CPU = 0.000 seconds
set type 11 diameter 0.002
Setting atom values ...
  1 settings made for diameter
set type 11 density 0.5
Setting atom values ...
  1 settings made for density

include node_12.txt
create_atoms 12 single 0.05 -7.34788079488412e-18 0.05
Created 1 atoms
  using lattice units in orthogonal box = (-0.06 -0.006 -0.055) to (0.06 0.006 0.055)
  create_atoms CPU = 0.000 seconds
set type 12 diameter 0.002
Setting atom values ...
  1 settings made for diameter
set type 12 density 0.5
Setting atom values ...
  1 settings made for density

include element_13.txt
create_atoms 13 single -0.05013203057121466 0.0008801996111977593 -0.049526066350710905
Created 1 atoms
  using lattice units in orthogonal box = (-0.06 -0.006 -0.055) to (0.06 0.006 0.055)
  create_atoms CPU = 0.000 seconds
create_atoms 13 single -0.05051650090370179 0.0016829237174292777 -0.0490521327014218
Created 1 atoms
  using lattice units in orthogonal box = (-0.06 -0.006 -0.055) to (0.06 0.006 0.055)
  create_atoms CPU = 0.000 seconds
create_atoms 13 single -0.05111956977238582 0.0023375162371788724 -0.0485781990521327
Created 1 atoms
  using lattice units in orthogonal box = (-0.06 -0.006 -0.055) to (0.06 0.006 0.055)
  create_atoms CPU = 0.000 seconds
create_atoms 13 single -0.05188815482579066 0.002786359687582956 -0.048104265402843606
Created 1 atoms
  using lattice units in orthogonal box = (-0.06 -0.006 -0.055) to (0.06 0.006 0.055)
  create_atoms CPU = 0.000 seconds
create_atoms 13 single -0.05275460491483091 0.0029899466972129877 -0.04763033175355451
Created 1 atoms
  using lattice units in orthogonal box = (-0.06 -0.006 -0.055) to (0.06 0.006 0.055)
  create_atoms CPU = 0.000 seconds
create_atoms 13 single -0.05364265477271658 0.0029303574599534093 -0.047156398104265404
Created 1 atoms
  using lattice units in orthogonal box = (-0.06 -0.006 -0.055) to (0.06 0.006 0.055)
  create_atoms CPU = 0.000 seconds
create_atoms 13 single -0.05447413791277854 0.0026128370431599732 -0.04668246445497631
Created 1 atoms
  using lattice units in orthogonal box = (-0.06 -0.006 -0.055) to (0.06 0.006 0.055)
  create_atoms CPU = 0.000 seconds
create_atoms 13 single -0.055175866872391593 0.002065333714833715 -0.04620853080568721
Created 1 atoms
  using lattice units in orthogonal box = (-0.06 -0.006 -0.055) to (0.06 0.006 0.055)
  create_atoms CPU = 0.000 seconds
create_atoms 13 single -0.05568607520130538 0.0013360389264285308 -0.045734597156398105
Created 1 atoms
  using lattice units in orthogonal box = (-0.06 -0.006 -0.055) to (0.06 0.006 0.055)
  create_atoms CPU = 0.000 seconds
create_atoms 13 single -0.05595985416811657 0.000489145482942427 -0.04526066350710901
Created 1 atoms
  using lattice units in orthogonal box = (-0.06 -0.006 -0.055) to (0.06 0.006 0.055)
  create_atoms CPU = 0.000 seconds
create_atoms 13 single -0.055973105643908755 -0.00040080273222364816 -0.04478672985781991
Created 1 atoms
  using lattice units in orthogonal box = (-0.06 -0.006 -0.055) to (0.06 0.006 0.055)
  create_atoms CPU = 0.000 seconds
create_atoms 13 single -0.0557246632287364 -0.0012554721382698017 -0.044312796208530805
Created 1 atoms
  using lattice units in orthogonal box = (-0.06 -0.006 -0.055) to (0.06 0.006 0.055)
  create_atoms CPU = 0.000 seconds
create_atoms 13 single -0.05523639491859229 -0.0019996344086093873 -0.04383886255924171
Created 1 atoms
  using lattice units in orthogonal box = (-0.06 -0.006 -0.055) to (0.06 0.006 0.055)
  create_atoms CPU = 0.000 seconds
create_atoms 13 single -0.05455127827607264 -0.0025677880968228506 -0.04336492890995261
Created 1 atoms
  using lattice units in orthogonal box = (-0.06 -0.006 -0.055) to (0.06 0.006 0.055)
  create_atoms CPU = 0.000 seconds
create_atoms 13 single -0.05372961752895115 -0.0029099240989151638 -0.042890995260663506
Created 1 atoms
  using lattice units in orthogonal box = (-0.06 -0.006 -0.055) to (0.06 0.006 0.055)
  create_atoms CPU = 0.000 seconds
create_atoms 13 single -0.05284373556908589 -0.002995927473693429 -0.04241706161137441
Created 1 atoms
  using lattice units in orthogonal box = (-0.06 -0.006 -0.055) to (0.06 0.006 0.055)
  create_atoms CPU = 0.000 seconds
create_atoms 13 single -0.05197160806393672 -0.002818228171358738 -0.04194312796208531
Created 1 atoms
  using lattice units in orthogonal box = (-0.06 -0.006 -0.055) to (0.06 0.006 0.055)
  create_atoms CPU = 0.000 seconds
create_atoms 13 single -0.05119000000862153 -0.0023924673521722203 -0.041469194312796206
Created 1 atoms
  using lattice units in orthogonal box = (-0.06 -0.006 -0.055) to (0.06 0.006 0.055)
  create_atoms CPU = 0.000 seconds
create_atoms 13 single -0.05056770884181317 -0.001756120645572554 -0.04099526066350711
Created 1 atoms
  using lattice units in orthogonal box = (-0.06 -0.006 -0.055) to (0.06 0.006 0.055)
  create_atoms CPU = 0.000 seconds
create_atoms 13 single -0.05015950886898866 -0.0009651995310016895 -0.04052132701421801
Created 1 atoms
  using lattice units in orthogonal box = (-0.06 -0.006 -0.055) to (0.06 0.006 0.055)
  create_atoms CPU = 0.000 seconds
create_atoms 13 single -0.05000133000720254 -8.932118615464235e-05 -0.040047393364928914
Created 1 atoms
  using lattice units in orthogonal box = (-0.06 -0.006 -0.055) to (0.06 0.006 0.055)
  create_atoms CPU = 0.000 seconds
create_atoms 13 single -0.0501070952201053 0.0007944192435121169 -0.03957345971563981
Created 1 atoms
  using lattice units in orthogonal box = (-0.06 -0.006 -0.055) to (0.06 0.006 0.055)
  create_atoms CPU = 0.000 seconds
create_atoms 13 single -0.0504674950133808 0.0016082345888423304 -0.03909952606635071
Created 1 atoms
  using lattice units in orthogonal box = (-0.06 -0.006 -0.055) to (0.06 0.006 0.055)
  create_atoms CPU = 0.000 seconds
create_atoms 13 single -0.05105080685998117 0.0022804925132311913 -0.038625592417061615
Created 1 atoms
  using lattice units in orthogonal box = (-0.06 -0.006 -0.055) to (0.06 0.006 0.055)
  create_atoms CPU = 0.000 seconds
create_atoms 13 single -0.051805687429037794 0.0027520206181716076 -0.03815165876777252
Created 1 atoms
  using lattice units in orthogonal box = (-0.06 -0.006 -0.055) to (0.06 0.006 0.055)
  create_atoms CPU = 0.000 seconds
create_atoms 13 single -0.05266569184539641 0.002981314820304213 -0.03767772511848341
Created 1 atoms
  using lattice units in orthogonal box = (-0.06 -0.006 -0.055) to (0.06 0.006 0.055)
  create_atoms CPU = 0.000 seconds
create_atoms 13 single -0.05355512219283105 0.0029481925566398216 -0.037203791469194315
Created 1 atoms
  using lattice units in orthogonal box = (-0.06 -0.006 -0.055) to (0.06 0.006 0.055)
  create_atoms CPU = 0.000 seconds
create_atoms 13 single -0.05439569047345675 0.0026555692614394543 -0.03672985781990522
Created 1 atoms
  using lattice units in orthogonal box = (-0.06 -0.006 -0.055) to (0.06 0.006 0.055)
  create_atoms CPU = 0.000 seconds
create_atoms 13 single -0.0551134095471162 0.0021292017485804618 -0.03625592417061611
Created 1 atoms
  using lattice units in orthogonal box = (-0.06 -0.006 -0.055) to (0.06 0.006 0.055)
  create_atoms CPU = 0.000 seconds
create_atoms 13 single -0.055645105507631486 0.0014154210869905752 -0.035781990521327016
Created 1 atoms
  using lattice units in orthogonal box = (-0.06 -0.006 -0.055) to (0.06 0.006 0.055)
  create_atoms CPU = 0.000 seconds
create_atoms 13 single -0.05594397827408302 0.0005770545223176041 -0.03530805687203792
Created 1 atoms
  using lattice units in orthogonal box = (-0.06 -0.006 -0.055) to (0.06 0.006 0.055)
  create_atoms CPU = 0.000 seconds
create_atoms 13 single -0.055983720951754065 -0.00031210460115776886 -0.034834123222748814
Created 1 atoms
  using lattice units in orthogonal box = (-0.06 -0.006 -0.055) to (0.06 0.006 0.055)
  create_atoms CPU = 0.000 seconds
create_atoms 13 single -0.05576083537502162 -0.0011737921587867477 -0.034360189573459717
Created 1 atoms
  using lattice units in orthogonal box = (-0.06 -0.006 -0.055) to (0.06 0.006 0.055)
  create_atoms CPU = 0.000 seconds
create_atoms 13 single -0.05529494001722668 -0.0019321620836077968 -0.03388625592417062
Created 1 atoms
  using lattice units in orthogonal box = (-0.06 -0.006 -0.055) to (0.06 0.006 0.055)
  create_atoms CPU = 0.000 seconds
create_atoms 13 single -0.05462704316517986 -0.0025204623660434826 -0.033412322274881515
Created 1 atoms
  using lattice units in orthogonal box = (-0.06 -0.006 -0.055) to (0.06 0.006 0.055)
  create_atoms CPU = 0.000 seconds
create_atoms 13 single -0.05381593335413997 -0.0028869105912033197 -0.03293838862559242
Created 1 atoms
  using lattice units in orthogonal box = (-0.06 -0.006 -0.055) to (0.06 0.006 0.055)
  create_atoms CPU = 0.000 seconds
create_atoms 13 single -0.05293300477855329 -0.002999251846761673 -0.03246445497630332
Created 1 atoms
  using lattice units in orthogonal box = (-0.06 -0.006 -0.055) to (0.06 0.006 0.055)
  create_atoms CPU = 0.000 seconds
create_atoms 13 single -0.05205597314787078 -0.0028475978126236484 -0.031990521327014215
Created 1 atoms
  using lattice units in orthogonal box = (-0.06 -0.006 -0.055) to (0.06 0.006 0.055)
  create_atoms CPU = 0.000 seconds
create_atoms 13 single -0.05126203512020734 -0.0024452971346254166 -0.03151658767772512
Created 1 atoms
  using lattice units in orthogonal box = (-0.06 -0.006 -0.055) to (0.06 0.006 0.055)
  create_atoms CPU = 0.000 seconds
create_atoms 13 single -0.050621073423097254 -0.0018277604716444068 -0.03104265402843602
Created 1 atoms
  using lattice units in orthogonal box = (-0.06 -0.006 -0.055) to (0.06 0.006 0.055)
  create_atoms CPU = 0.000 seconds
create_atoms 13 single -0.050189505749204645 -0.0010493436359202105 -0.03056872037914692
Created 1 atoms
  using lattice units in orthogonal box = (-0.06 -0.006 -0.055) to (0.06 0.006 0.055)
  create_atoms CPU = 0.000 seconds
create_atoms 13 single -0.05000531884953072 -0.0001785631737620014 -0.030094786729857822
Created 1 atoms
  using lattice units in orthogonal box = (-0.06 -0.006 -0.055) to (0.06 0.006 0.055)
  create_atoms CPU = 0.000 seconds
create_atoms 13 single -0.050084724925124946 0.0007079344869493409 -0.02962085308056872
Created 1 atoms
  using lattice units in orthogonal box = (-0.06 -0.006 -0.055) to (0.06 0.006 0.055)
  create_atoms CPU = 0.000 seconds
create_atoms 13 single -0.05042073462297491 0.0015321194845310262 -0.02914691943127962
Created 1 atoms
  using lattice units in orthogonal box = (-0.06 -0.006 -0.055) to (0.06 0.006 0.055)
  create_atoms CPU = 0.000 seconds
create_atoms 13 single -0.05098377224152009 0.0022214467416382224 -0.028672985781990522
Created 1 atoms
  using lattice units in orthogonal box = (-0.06 -0.006 -0.055) to (0.06 0.006 0.055)
  create_atoms CPU = 0.000 seconds
create_atoms 13 single -0.05172427899516591 0.0027152414105977925 -0.02819905213270142
Created 1 atoms
  using lattice units in orthogonal box = (-0.06 -0.006 -0.055) to (0.06 0.006 0.055)
  create_atoms CPU = 0.000 seconds
create_atoms 13 single -0.05257707519746425 0.0029700394966060794 -0.02772511848341232
Created 1 atoms
  using lattice units in orthogonal box = (-0.06 -0.006 -0.055) to (0.06 0.006 0.055)
  create_atoms CPU = 0.000 seconds
create_atoms 13 single -0.05346709740193568 0.002963413575103033 -0.027251184834123223
Created 1 atoms
  using lattice units in orthogonal box = (-0.06 -0.006 -0.055) to (0.06 0.006 0.055)
  create_atoms CPU = 0.000 seconds
create_atoms 13 single -0.054316005515213484 0.0026959468622225675 -0.026777251184834122
Created 1 atoms
  using lattice units in orthogonal box = (-0.06 -0.006 -0.055) to (0.06 0.006 0.055)
  create_atoms CPU = 0.000 seconds
create_atoms 13 single -0.05504907832189443 0.002191181879886362 -0.026303317535545025
Created 1 atoms
  using lattice units in orthogonal box = (-0.06 -0.006 -0.055) to (0.06 0.006 0.055)
  create_atoms CPU = 0.000 seconds
create_atoms 13 single -0.055601790474373185 0.0014935482340590772 -0.025829383886255924
Created 1 atoms
  using lattice units in orthogonal box = (-0.06 -0.006 -0.055) to (0.06 0.006 0.055)
  create_atoms CPU = 0.000 seconds
create_atoms 13 single -0.05592549203851036 0.0006644519039121574 -0.025355450236966823
Created 1 atoms
  using lattice units in orthogonal box = (-0.06 -0.006 -0.055) to (0.06 0.006 0.055)
  create_atoms CPU = 0.000 seconds
create_atoms 13 single -0.05599169067936191 -0.00022312973584689947 -0.024881516587677722
Created 1 atoms
  using lattice units in orthogonal box = (-0.06 -0.006 -0.055) to (0.06 0.006 0.055)
  create_atoms CPU = 0.000 seconds
create_atoms 13 single -0.055794559567350965 -0.0010910714112867179 -0.024407582938388624
Created 1 atoms
  using lattice units in orthogonal box = (-0.06 -0.006 -0.055) to (0.06 0.006 0.055)
  create_atoms CPU = 0.000 seconds
create_atoms 13 single -0.0553514502580262 -0.0018629765656144283 -0.023933649289099523
Created 1 atoms
  using lattice units in orthogonal box = (-0.06 -0.006 -0.055) to (0.06 0.006 0.055)
  create_atoms CPU = 0.000 seconds
create_atoms 13 single -0.05470136540153473 -0.0024709018131970732 -0.023459715639810426
Created 1 atoms
  using lattice units in orthogonal box = (-0.06 -0.006 -0.055) to (0.06 0.006 0.055)
  create_atoms CPU = 0.000 seconds
create_atoms 13 single -0.05390152571450361 -0.00286133734223855 -0.02298578199052133
Created 1 atoms
  using lattice units in orthogonal box = (-0.06 -0.006 -0.055) to (0.06 0.006 0.055)
  create_atoms CPU = 0.000 seconds
create_atoms 13 single -0.053022333390772065 -0.0029999168687909706 -0.022511848341232227
Created 1 atoms
  using lattice units in orthogonal box = (-0.06 -0.006 -0.055) to (0.06 0.006 0.055)
  create_atoms CPU = 0.000 seconds
create_atoms 13 single -0.052141175273479994 -0.0028744425701547486 -0.02203791469194313
Created 1 atoms
  using lattice units in orthogonal box = (-0.06 -0.006 -0.055) to (0.06 0.006 0.055)
  create_atoms CPU = 0.000 seconds
create_atoms 13 single -0.05133561123566506 -0.0024959587418776764 -0.021563981042654026
Created 1 atoms
  using lattice units in orthogonal box = (-0.06 -0.006 -0.055) to (0.06 0.006 0.055)
  create_atoms CPU = 0.000 seconds
create_atoms 13 single -0.050676547330702405 -0.0018977796746550602 -0.021090047393364925
Created 1 atoms
  using lattice units in orthogonal box = (-0.06 -0.006 -0.055) to (0.06 0.006 0.055)
  create_atoms CPU = 0.000 seconds
create_atoms 13 single -0.0502219946144848 -0.0011325573177762523 -0.020616113744075827
Created 1 atoms
  using lattice units in orthogonal box = (-0.06 -0.006 -0.055) to (0.06 0.006 0.055)
  create_atoms CPU = 0.000 seconds
create_atoms 13 single -0.050011962990191845 -0.0002676468344978834 -0.02014218009478673
Created 1 atoms
  using lattice units in orthogonal box = (-0.06 -0.006 -0.055) to (0.06 0.006 0.055)
  create_atoms CPU = 0.000 seconds
create_atoms 13 single -0.050064939521375904 0.0006208220250755195 -0.01966824644549763
Created 1 atoms
  using lattice units in orthogonal box = (-0.06 -0.006 -0.055) to (0.06 0.006 0.055)
  create_atoms CPU = 0.000 seconds
create_atoms 13 single -0.05037626119358816 0.0014546458935866713 -0.01919431279620853
Created 1 atoms
  using lattice units in orthogonal box = (-0.06 -0.006 -0.055) to (0.06 0.006 0.055)
  create_atoms CPU = 0.000 seconds
create_atoms 13 single -0.05091852535468617 0.002160431276600962 -0.01872037914691943
Created 1 atoms
  using lattice units in orthogonal box = (-0.06 -0.006 -0.055) to (0.06 0.006 0.055)
  create_atoms CPU = 0.000 seconds
create_atoms 13 single -0.051644001706710595 0.0026760546759354914 -0.018246445497630333
Created 1 atoms
  using lattice units in orthogonal box = (-0.06 -0.006 -0.055) to (0.06 0.006 0.055)
  create_atoms CPU = 0.000 seconds
create_atoms 13 single -0.05248883354488775 0.0029561307236264053 -0.017772511848341235
Created 1 atoms
  using lattice units in orthogonal box = (-0.06 -0.006 -0.055) to (0.06 0.006 0.055)
  create_atoms CPU = 0.000 seconds
create_atoms 13 single -0.05337865844910107 0.002976007019300253 -0.01729857819905213
Created 1 atoms
  using lattice units in orthogonal box = (-0.06 -0.006 -0.055) to (0.06 0.006 0.055)
  create_atoms CPU = 0.000 seconds
create_atoms 13 single -0.05423515369242768 0.0027339340438427336 -0.016824644549763033
Created 1 atoms
  using lattice units in orthogonal box = (-0.06 -0.006 -0.055) to (0.06 0.006 0.055)
  create_atoms CPU = 0.000 seconds
create_atoms 13 single -0.0549829302373882 0.0022512191527373744 -0.01635071090047393
Created 1 atoms
  using lattice units in orthogonal box = (-0.06 -0.006 -0.055) to (0.06 0.006 0.055)
  create_atoms CPU = 0.000 seconds
create_atoms 13 single -0.0555561685077346 0.0015703510945218164 -0.01587677725118483
Created 1 atoms
  using lattice units in orthogonal box = (-0.06 -0.006 -0.055) to (0.06 0.006 0.055)
  create_atoms CPU = 0.000 seconds
create_atoms 13 single -0.055904411852616256 0.0007512601349614148 -0.015402843601895734
Created 1 atoms
  using lattice units in orthogonal box = (-0.06 -0.006 -0.055) to (0.06 0.006 0.055)
  create_atoms CPU = 0.000 seconds
create_atoms 13 single -0.05599700776020221 -0.00013395702776550146 -0.014928909952606637
Created 1 atoms
  using lattice units in orthogonal box = (-0.06 -0.006 -0.055) to (0.06 0.006 0.055)
  create_atoms CPU = 0.000 seconds
create_atoms 13 single -0.05582580590344532 -0.001007383241896353 -0.014454976303317539
Created 1 atoms
  using lattice units in orthogonal box = (-0.06 -0.006 -0.055) to (0.06 0.006 0.055)
  create_atoms CPU = 0.000 seconds
create_atoms 13 single -0.055405875534972664 -0.0017921391994541122 -0.013981042654028435
Created 1 atoms
  using lattice units in orthogonal box = (-0.06 -0.006 -0.055) to (0.06 0.006 0.055)
  create_atoms CPU = 0.000 seconds
create_atoms 13 single -0.054774179085730804 -0.002419150382211782 -0.01350710900473933
Created 1 atoms
  using lattice units in orthogonal box = (-0.06 -0.006 -0.055) to (0.06 0.006 0.055)
  create_atoms CPU = 0.000 seconds
create_atoms 13 single -0.05398631871773819 -0.0028332270270910714 -0.013033175355450233
Created 1 atoms
  using lattice units in orthogonal box = (-0.06 -0.006 -0.055) to (0.06 0.006 0.055)
  create_atoms CPU = 0.000 seconds
create_atoms 13 single -0.05311164220061044 -0.0029979219501252625 -0.012559241706161135
Created 1 atoms
  using lattice units in orthogonal box = (-0.06 -0.006 -0.055) to (0.06 0.006 0.055)
  create_atoms CPU = 0.000 seconds
create_atoms 13 single -0.052227138894470525 -0.002898738641471451 -0.012085308056872038
Created 1 atoms
  using lattice units in orthogonal box = (-0.06 -0.006 -0.055) to (0.06 0.006 0.055)
  create_atoms CPU = 0.000 seconds
create_atoms 13 single -0.05141066311715239 -0.0025444072537273237 -0.011611374407582933
Created 1 atoms
  using lattice units in orthogonal box = (-0.06 -0.006 -0.055) to (0.06 0.006 0.055)
  create_atoms CPU = 0.000 seconds
create_atoms 13 single -0.0507340813774975 -0.001966116170574965 -0.011137440758293836
Created 1 atoms
  using lattice units in orthogonal box = (-0.06 -0.006 -0.055) to (0.06 0.006 0.055)
  create_atoms CPU = 0.000 seconds
create_atoms 13 single -0.05025694665787924 -0.0012147667933723454 -0.010663507109004738
Created 1 atoms
  using lattice units in orthogonal box = (-0.06 -0.006 -0.055) to (0.06 0.006 0.055)
  create_atoms CPU = 0.000 seconds
create_atoms 13 single -0.05002125653801597 -0.0003564931804220248 -0.010189573459715641
Created 1 atoms
  using lattice units in orthogonal box = (-0.06 -0.006 -0.055) to (0.06 0.006 0.055)
  create_atoms CPU = 0.000 seconds
create_atoms 13 single -0.050047756552011165 0.0005331590980251296 -0.009715639810426537
Created 1 atoms
  using lattice units in orthogonal box = (-0.06 -0.006 -0.055) to (0.06 0.006 0.055)
  create_atoms CPU = 0.000 seconds
create_atoms 13 single -0.050334114158541485 0.001375882509631917 -0.009241706161137439
Created 1 atoms
  using lattice units in orthogonal box = (-0.06 -0.006 -0.055) to (0.06 0.006 0.055)
  create_atoms CPU = 0.000 seconds
create_atoms 13 single -0.05085512405203237 0.0020975002187913964 -0.008767772511848335
Created 1 atoms
  using lattice units in orthogonal box = (-0.06 -0.006 -0.055) to (0.06 0.006 0.055)
  create_atoms CPU = 0.000 seconds
create_atoms 13 single -0.05156492674325308 0.00263449515994427 -0.008293838862559237
Created 1 atoms
  using lattice units in orthogonal box = (-0.06 -0.006 -0.055) to (0.06 0.006 0.055)
  create_atoms CPU = 0.000 seconds
create_atoms 13 single -0.052401045129022585 0.002939600833877352 -0.00781990521327014
Created 1 atoms
  using lattice units in orthogonal box = (-0.06 -0.006 -0.055) to (0.06 0.006 0.055)
  create_atoms CPU = 0.000 seconds
create_atoms 13 single -0.053289883750623386 0.002985961722983823 -0.007345971563981042
Created 1 atoms
  using lattice units in orthogonal box = (-0.06 -0.006 -0.055) to (0.06 0.006 0.055)
  create_atoms CPU = 0.000 seconds
create_atoms 13 single -0.054153206694103756 0.0027694971241498515 -0.006872037914691945
Created 1 atoms
  using lattice units in orthogonal box = (-0.06 -0.006 -0.055) to (0.06 0.006 0.055)
  create_atoms CPU = 0.000 seconds
create_atoms 13 single -0.05491502394521673 0.0023092603337966384 -0.00639810426540284
Created 1 atoms
  using lattice units in orthogonal box = (-0.06 -0.006 -0.055) to (0.06 0.006 0.055)
  create_atoms CPU = 0.000 seconds
create_atoms 13 single -0.0555082800594119 0.0016457615694737417 -0.005924170616113736
Created 1 atoms
  using lattice units in orthogonal box = (-0.06 -0.006 -0.055) to (0.06 0.006 0.055)
  create_atoms CPU = 0.000 seconds
create_atoms 13 single -0.05588075640760007 0.000837402245083676 -0.005450236966824638
Created 1 atoms
  using lattice units in orthogonal box = (-0.06 -0.006 -0.055) to (0.06 0.006 0.055)
  create_atoms CPU = 0.000 seconds
create_atoms 13 single -0.05599966747977109 -4.46655438096136e-05 -0.004976303317535541
Created 1 atoms
  using lattice units in orthogonal box = (-0.06 -0.006 -0.055) to (0.06 0.006 0.055)
  create_atoms CPU = 0.000 seconds
create_atoms 13 single -0.055854546678069966 -0.0009228018545276954 -0.004502369668246443
Created 1 atoms
  using lattice units in orthogonal box = (-0.06 -0.006 -0.055) to (0.06 0.006 0.055)
  create_atoms CPU = 0.000 seconds
create_atoms 13 single -0.05545816759072585 -0.001719712794598295 -0.004028436018957346
Created 1 atoms
  using lattice units in orthogonal box = (-0.06 -0.006 -0.055) to (0.06 0.006 0.055)
  create_atoms CPU = 0.000 seconds
create_atoms 13 single -0.054845419655951806 -0.002365253959604914 -0.0035545023696682415
Created 1 atoms
  using lattice units in orthogonal box = (-0.06 -0.006 -0.055) to (0.06 0.006 0.055)
  create_atoms CPU = 0.000 seconds
create_atoms 13 single -0.05407023718030705 -0.002802604570375284 -0.003080568720379144
Created 1 atoms
  using lattice units in orthogonal box = (-0.06 -0.006 -0.055) to (0.06 0.006 0.055)
  create_atoms CPU = 0.000 seconds
create_atoms 13 single -0.05320085202049489 -0.0029932688596020105 -0.0026066350710900466
Created 1 atoms
  using lattice units in orthogonal box = (-0.06 -0.006 -0.055) to (0.06 0.006 0.055)
  create_atoms CPU = 0.000 seconds
create_atoms 13 single -0.05231378778935234 -0.002920464483940534 -0.002132701421800942
Created 1 atoms
  using lattice units in orthogonal box = (-0.06 -0.006 -0.055) to (0.06 0.006 0.055)
  create_atoms CPU = 0.000 seconds
create_atoms 13 single -0.051487124218307326 -0.002590599712261194 -0.0016587677725118447
Created 1 atoms
  using lattice units in orthogonal box = (-0.06 -0.006 -0.055) to (0.06 0.006 0.055)
  create_atoms CPU = 0.000 seconds
create_atoms 13 single -0.050793624549684786 -0.002032709367382934 -0.0011848341232227472
Created 1 atoms
  using lattice units in orthogonal box = (-0.06 -0.006 -0.055) to (0.06 0.006 0.055)
  create_atoms CPU = 0.000 seconds
create_atoms 13 single -0.05029433088840833 -0.0012958991699120453 -0.0007109004739336428
Created 1 atoms
  using lattice units in orthogonal box = (-0.06 -0.006 -0.055) to (0.06 0.006 0.055)
  create_atoms CPU = 0.000 seconds
create_atoms 13 single -0.0500331912526794 -0.0004450234340144214 -0.00023696682464454527
Created 1 atoms
  using lattice units in orthogonal box = (-0.06 -0.006 -0.055) to (0.06 0.006 0.055)
  create_atoms CPU = 0.000 seconds
create_atoms 13 single -0.05003319125267941 0.00044502343401443524 0.00023696682464455915
Created 1 atoms
  using lattice units in orthogonal box = (-0.06 -0.006 -0.055) to (0.06 0.006 0.055)
  create_atoms CPU = 0.000 seconds
create_atoms 13 single -0.05029433088840833 0.0012958991699120483 0.0007109004739336497
Created 1 atoms
  using lattice units in orthogonal box = (-0.06 -0.006 -0.055) to (0.06 0.006 0.055)
  create_atoms CPU = 0.000 seconds
create_atoms 13 single -0.05079362454968479 0.002032709367382944 0.0011848341232227541
Created 1 atoms
  using lattice units in orthogonal box = (-0.06 -0.006 -0.055) to (0.06 0.006 0.055)
  create_atoms CPU = 0.000 seconds
create_atoms 13 single -0.05148712421830733 0.002590599712261195 0.0016587677725118516
Created 1 atoms
  using lattice units in orthogonal box = (-0.06 -0.006 -0.055) to (0.06 0.006 0.055)
  create_atoms CPU = 0.000 seconds
create_atoms 13 single -0.052313787789352355 0.0029204644839405376 0.002132701421800956
Created 1 atoms
  using lattice units in orthogonal box = (-0.06 -0.006 -0.055) to (0.06 0.006 0.055)
  create_atoms CPU = 0.000 seconds
create_atoms 13 single -0.05320085202049488 0.0029932688596020114 0.0026066350710900466
Created 1 atoms
  using lattice units in orthogonal box = (-0.06 -0.006 -0.055) to (0.06 0.006 0.055)
  create_atoms CPU = 0.000 seconds
create_atoms 13 single -0.054070237180307054 0.002802604570375279 0.003080568720379151
Created 1 atoms
  using lattice units in orthogonal box = (-0.06 -0.006 -0.055) to (0.06 0.006 0.055)
  create_atoms CPU = 0.000 seconds
create_atoms 13 single -0.05484541965595183 0.0023652539596048985 0.0035545023696682554
Created 1 atoms
  using lattice units in orthogonal box = (-0.06 -0.006 -0.055) to (0.06 0.006 0.055)
  create_atoms CPU = 0.000 seconds
create_atoms 13 single -0.055458167590725846 0.001719712794598301 0.004028436018957346
Created 1 atoms
  using lattice units in orthogonal box = (-0.06 -0.006 -0.055) to (0.06 0.006 0.055)
  create_atoms CPU = 0.000 seconds
create_atoms 13 single -0.055854546678069966 0.0009228018545276922 0.00450236966824645
Created 1 atoms
  using lattice units in orthogonal box = (-0.06 -0.006 -0.055) to (0.06 0.006 0.055)
  create_atoms CPU = 0.000 seconds
create_atoms 13 single -0.05599966747977109 4.466554380961029e-05 0.004976303317535548
Created 1 atoms
  using lattice units in orthogonal box = (-0.06 -0.006 -0.055) to (0.06 0.006 0.055)
  create_atoms CPU = 0.000 seconds
create_atoms 13 single -0.05588075640760006 -0.0008374022450836895 0.005450236966824652
Created 1 atoms
  using lattice units in orthogonal box = (-0.06 -0.006 -0.055) to (0.06 0.006 0.055)
  create_atoms CPU = 0.000 seconds
create_atoms 13 single -0.05550828005941189 -0.0016457615694737443 0.005924170616113743
Created 1 atoms
  using lattice units in orthogonal box = (-0.06 -0.006 -0.055) to (0.06 0.006 0.055)
  create_atoms CPU = 0.000 seconds
create_atoms 13 single -0.05491502394521672 -0.0023092603337966475 0.006398104265402847
Created 1 atoms
  using lattice units in orthogonal box = (-0.06 -0.006 -0.055) to (0.06 0.006 0.055)
  create_atoms CPU = 0.000 seconds
create_atoms 13 single -0.05415320669410373 -0.0027694971241498606 0.006872037914691952
Created 1 atoms
  using lattice units in orthogonal box = (-0.06 -0.006 -0.055) to (0.06 0.006 0.055)
  create_atoms CPU = 0.000 seconds
create_atoms 13 single -0.05328988375062337 -0.0029859617229838244 0.007345971563981049
Created 1 atoms
  using lattice units in orthogonal box = (-0.06 -0.006 -0.055) to (0.06 0.006 0.055)
  create_atoms CPU = 0.000 seconds
create_atoms 13 single -0.05240104512902258 -0.0029396008338773514 0.007819905213270154
Created 1 atoms
  using lattice units in orthogonal box = (-0.06 -0.006 -0.055) to (0.06 0.006 0.055)
  create_atoms CPU = 0.000 seconds
create_atoms 13 single -0.05156492674325309 -0.0026344951599442733 0.008293838862559244
Created 1 atoms
  using lattice units in orthogonal box = (-0.06 -0.006 -0.055) to (0.06 0.006 0.055)
  create_atoms CPU = 0.000 seconds
create_atoms 13 single -0.05085512405203236 -0.0020975002187913865 0.008767772511848348
Created 1 atoms
  using lattice units in orthogonal box = (-0.06 -0.006 -0.055) to (0.06 0.006 0.055)
  create_atoms CPU = 0.000 seconds
create_atoms 13 single -0.050334114158541485 -0.0013758825096319139 0.009241706161137439
Created 1 atoms
  using lattice units in orthogonal box = (-0.06 -0.006 -0.055) to (0.06 0.006 0.055)
  create_atoms CPU = 0.000 seconds
create_atoms 13 single -0.05004775655201116 -0.0005331590980251158 0.009715639810426543
Created 1 atoms
  using lattice units in orthogonal box = (-0.06 -0.006 -0.055) to (0.06 0.006 0.055)
  create_atoms CPU = 0.000 seconds
create_atoms 13 single -0.05002125653801598 0.0003564931804220281 0.010189573459715641
Created 1 atoms
  using lattice units in orthogonal box = (-0.06 -0.006 -0.055) to (0.06 0.006 0.055)
  create_atoms CPU = 0.000 seconds
create_atoms 13 single -0.05025694665787925 0.0012147667933723582 0.010663507109004745
Created 1 atoms
  using lattice units in orthogonal box = (-0.06 -0.006 -0.055) to (0.06 0.006 0.055)
  create_atoms CPU = 0.000 seconds
create_atoms 13 single -0.050734081377497506 0.0019661161705749677 0.01113744075829385
Created 1 atoms
  using lattice units in orthogonal box = (-0.06 -0.006 -0.055) to (0.06 0.006 0.055)
  create_atoms CPU = 0.000 seconds
create_atoms 13 single -0.05141066311715238 0.00254440725372732 0.01161137440758294
Created 1 atoms
  using lattice units in orthogonal box = (-0.06 -0.006 -0.055) to (0.06 0.006 0.055)
  create_atoms CPU = 0.000 seconds
create_atoms 13 single -0.05222713889447054 0.002898738641471455 0.012085308056872045
Created 1 atoms
  using lattice units in orthogonal box = (-0.06 -0.006 -0.055) to (0.06 0.006 0.055)
  create_atoms CPU = 0.000 seconds
create_atoms 13 single -0.053111642200610445 0.0029979219501252625 0.012559241706161142
Created 1 atoms
  using lattice units in orthogonal box = (-0.06 -0.006 -0.055) to (0.06 0.006 0.055)
  create_atoms CPU = 0.000 seconds
create_atoms 13 single -0.053986318717738194 0.0028332270270910666 0.013033175355450247
Created 1 atoms
  using lattice units in orthogonal box = (-0.06 -0.006 -0.055) to (0.06 0.006 0.055)
  create_atoms CPU = 0.000 seconds
create_atoms 13 single -0.05477417908573081 0.00241915038221178 0.013507109004739337
Created 1 atoms
  using lattice units in orthogonal box = (-0.06 -0.006 -0.055) to (0.06 0.006 0.055)
  create_atoms CPU = 0.000 seconds
create_atoms 13 single -0.05540587553497268 0.0017921391994540922 0.013981042654028442
Created 1 atoms
  using lattice units in orthogonal box = (-0.06 -0.006 -0.055) to (0.06 0.006 0.055)
  create_atoms CPU = 0.000 seconds
create_atoms 13 single -0.05582580590344532 0.0010073832418963497 0.014454976303317532
Created 1 atoms
  using lattice units in orthogonal box = (-0.06 -0.006 -0.055) to (0.06 0.006 0.055)
  create_atoms CPU = 0.000 seconds
create_atoms 13 single -0.05599700776020221 0.0001339570277655088 0.014928909952606637
Created 1 atoms
  using lattice units in orthogonal box = (-0.06 -0.006 -0.055) to (0.06 0.006 0.055)
  create_atoms CPU = 0.000 seconds
create_atoms 13 single -0.05590441185261625 -0.000751260134961418 0.015402843601895741
Created 1 atoms
  using lattice units in orthogonal box = (-0.06 -0.006 -0.055) to (0.06 0.006 0.055)
  create_atoms CPU = 0.000 seconds
create_atoms 13 single -0.0555561685077346 -0.0015703510945218194 0.01587677725118483
Created 1 atoms
  using lattice units in orthogonal box = (-0.06 -0.006 -0.055) to (0.06 0.006 0.055)
  create_atoms CPU = 0.000 seconds
create_atoms 13 single -0.05498293023738819 -0.0022512191527373836 0.016350710900473936
Created 1 atoms
  using lattice units in orthogonal box = (-0.06 -0.006 -0.055) to (0.06 0.006 0.055)
  create_atoms CPU = 0.000 seconds
create_atoms 13 single -0.05423515369242767 -0.0027339340438427354 0.01682464454976304
Created 1 atoms
  using lattice units in orthogonal box = (-0.06 -0.006 -0.055) to (0.06 0.006 0.055)
  create_atoms CPU = 0.000 seconds
create_atoms 13 single -0.05337865844910106 -0.0029760070193002542 0.017298578199052145
Created 1 atoms
  using lattice units in orthogonal box = (-0.06 -0.006 -0.055) to (0.06 0.006 0.055)
  create_atoms CPU = 0.000 seconds
create_atoms 13 single -0.052488833544887745 -0.002956130723626405 0.017772511848341235
Created 1 atoms
  using lattice units in orthogonal box = (-0.06 -0.006 -0.055) to (0.06 0.006 0.055)
  create_atoms CPU = 0.000 seconds
create_atoms 13 single -0.05164400170671058 -0.0026760546759354853 0.01824644549763034
Created 1 atoms
  using lattice units in orthogonal box = (-0.06 -0.006 -0.055) to (0.06 0.006 0.055)
  create_atoms CPU = 0.000 seconds
create_atoms 13 single -0.05091852535468617 -0.0021604312766009596 0.018720379146919444
Created 1 atoms
  using lattice units in orthogonal box = (-0.06 -0.006 -0.055) to (0.06 0.006 0.055)
  create_atoms CPU = 0.000 seconds
create_atoms 13 single -0.050376261193588165 -0.0014546458935866776 0.019194312796208535
Created 1 atoms
  using lattice units in orthogonal box = (-0.06 -0.006 -0.055) to (0.06 0.006 0.055)
  create_atoms CPU = 0.000 seconds
create_atoms 13 single -0.0500649395213759 -0.0006208220250755058 0.01966824644549764
Created 1 atoms
  using lattice units in orthogonal box = (-0.06 -0.006 -0.055) to (0.06 0.006 0.055)
  create_atoms CPU = 0.000 seconds
create_atoms 13 single -0.050011962990191845 0.0002676468344978867 0.02014218009478673
Created 1 atoms
  using lattice units in orthogonal box = (-0.06 -0.006 -0.055) to (0.06 0.006 0.055)
  create_atoms CPU = 0.000 seconds
create_atoms 13 single -0.05022199461448481 0.0011325573177762651 0.020616113744075834
Created 1 atoms
  using lattice units in orthogonal box = (-0.06 -0.006 -0.055) to (0.06 0.006 0.055)
  create_atoms CPU = 0.000 seconds
create_atoms 13 single -0.050676547330702405 0.0018977796746550628 0.021090047393364925
Created 1 atoms
  using lattice units in orthogonal box = (-0.06 -0.006 -0.055) to (0.06 0.006 0.055)
  create_atoms CPU = 0.000 seconds
create_atoms 13 single -0.05133561123566508 0.00249595874187769 0.02156398104265403
Created 1 atoms
  using lattice units in orthogonal box = (-0.06 -0.006 -0.055) to (0.06 0.006 0.055)
  create_atoms CPU = 0.000 seconds
create_atoms 13 single -0.05214117527348002 0.0028744425701547555 0.022037914691943133
Created 1 atoms
  using lattice units in orthogonal box = (-0.06 -0.006 -0.055) to (0.06 0.006 0.055)
  create_atoms CPU = 0.000 seconds
create_atoms 13 single -0.05302233339077206 0.0029999168687909706 0.022511848341232238
Created 1 atoms
  using lattice units in orthogonal box = (-0.06 -0.006 -0.055) to (0.06 0.006 0.055)
  create_atoms CPU = 0.000 seconds
create_atoms 13 single -0.05390152571450361 0.0028613373422385485 0.022985781990521342
Created 1 atoms
  using lattice units in orthogonal box = (-0.06 -0.006 -0.055) to (0.06 0.006 0.055)
  create_atoms CPU = 0.000 seconds
create_atoms 13 single -0.05470136540153473 0.002470901813197071 0.023459715639810433
Created 1 atoms
  using lattice units in orthogonal box = (-0.06 -0.006 -0.055) to (0.06 0.006 0.055)
  create_atoms CPU = 0.000 seconds
create_atoms 13 single -0.05535145025802621 0.0018629765656144174 0.023933649289099537
Created 1 atoms
  using lattice units in orthogonal box = (-0.06 -0.006 -0.055) to (0.06 0.006 0.055)
  create_atoms CPU = 0.000 seconds
create_atoms 13 single -0.055794559567350965 0.0010910714112867149 0.024407582938388628
Created 1 atoms
  using lattice units in orthogonal box = (-0.06 -0.006 -0.055) to (0.06 0.006 0.055)
  create_atoms CPU = 0.000 seconds
create_atoms 13 single -0.05599169067936191 0.0002231297358468802 0.024881516587677732
Created 1 atoms
  using lattice units in orthogonal box = (-0.06 -0.006 -0.055) to (0.06 0.006 0.055)
  create_atoms CPU = 0.000 seconds
create_atoms 13 single -0.05592549203851036 -0.0006644519039121605 0.025355450236966823
Created 1 atoms
  using lattice units in orthogonal box = (-0.06 -0.006 -0.055) to (0.06 0.006 0.055)
  create_atoms CPU = 0.000 seconds
create_atoms 13 single -0.05560179047437317 -0.001493548234059094 0.025829383886255927
Created 1 atoms
  using lattice units in orthogonal box = (-0.06 -0.006 -0.055) to (0.06 0.006 0.055)
  create_atoms CPU = 0.000 seconds
create_atoms 13 single -0.05504907832189442 -0.0021911818798863642 0.02630331753554503
Created 1 atoms
  using lattice units in orthogonal box = (-0.06 -0.006 -0.055) to (0.06 0.006 0.055)
  create_atoms CPU = 0.000 seconds
create_atoms 13 single -0.054316005515213484 -0.0026959468622225666 0.026777251184834136
Created 1 atoms
  using lattice units in orthogonal box = (-0.06 -0.006 -0.055) to (0.06 0.006 0.055)
  create_atoms CPU = 0.000 seconds
create_atoms 13 single -0.05346709740193567 -0.002963413575103035 0.02725118483412324
Created 1 atoms
  using lattice units in orthogonal box = (-0.06 -0.006 -0.055) to (0.06 0.006 0.055)
  create_atoms CPU = 0.000 seconds
create_atoms 13 single -0.05257707519746425 -0.002970039496606079 0.02772511848341233
Created 1 atoms
  using lattice units in orthogonal box = (-0.06 -0.006 -0.055) to (0.06 0.006 0.055)
  create_atoms CPU = 0.000 seconds
create_atoms 13 single -0.0517242789951659 -0.0027152414105977864 0.028199052132701435
Created 1 atoms
  using lattice units in orthogonal box = (-0.06 -0.006 -0.055) to (0.06 0.006 0.055)
  create_atoms CPU = 0.000 seconds
create_atoms 13 single -0.05098377224152009 -0.00222144674163822 0.028672985781990526
Created 1 atoms
  using lattice units in orthogonal box = (-0.06 -0.006 -0.055) to (0.06 0.006 0.055)
  create_atoms CPU = 0.000 seconds
create_atoms 13 single -0.0504207346229749 -0.001532119484531014 0.02914691943127963
Created 1 atoms
  using lattice units in orthogonal box = (-0.06 -0.006 -0.055) to (0.06 0.006 0.055)
  create_atoms CPU = 0.000 seconds
create_atoms 13 single -0.050084724925124946 -0.0007079344869493324 0.02962085308056872
Created 1 atoms
  using lattice units in orthogonal box = (-0.06 -0.006 -0.055) to (0.06 0.006 0.055)
  create_atoms CPU = 0.000 seconds
create_atoms 13 single -0.05000531884953072 0.00017856317376199938 0.030094786729857825
Created 1 atoms
  using lattice units in orthogonal box = (-0.06 -0.006 -0.055) to (0.06 0.006 0.055)
  create_atoms CPU = 0.000 seconds
create_atoms 13 single -0.05018950574920465 0.0010493436359202187 0.03056872037914693
Created 1 atoms
  using lattice units in orthogonal box = (-0.06 -0.006 -0.055) to (0.06 0.006 0.055)
  create_atoms CPU = 0.000 seconds
create_atoms 13 single -0.05062107342309726 0.0018277604716444096 0.03104265402843602
Created 1 atoms
  using lattice units in orthogonal box = (-0.06 -0.006 -0.055) to (0.06 0.006 0.055)
  create_atoms CPU = 0.000 seconds
create_atoms 13 single -0.05126203512020735 0.0024452971346254244 0.031516587677725125
Created 1 atoms
  using lattice units in orthogonal box = (-0.06 -0.006 -0.055) to (0.06 0.006 0.055)
  create_atoms CPU = 0.000 seconds
create_atoms 13 single -0.052055973147870784 0.002847597812623651 0.03199052132701423
Created 1 atoms
  using lattice units in orthogonal box = (-0.06 -0.006 -0.055) to (0.06 0.006 0.055)
  create_atoms CPU = 0.000 seconds
create_atoms 13 single -0.052933004778553304 0.0029992518467616735 0.032464454976303334
Created 1 atoms
  using lattice units in orthogonal box = (-0.06 -0.006 -0.055) to (0.06 0.006 0.055)
  create_atoms CPU = 0.000 seconds
create_atoms 13 single -0.05381593335413998 0.002886910591203317 0.032938388625592424
Created 1 atoms
  using lattice units in orthogonal box = (-0.06 -0.006 -0.055) to (0.06 0.006 0.055)
  create_atoms CPU = 0.000 seconds
create_atoms 13 single -0.054627043165179856 0.002520462366043484 0.03341232227488153
Created 1 atoms
  using lattice units in orthogonal box = (-0.06 -0.006 -0.055) to (0.06 0.006 0.055)
  create_atoms CPU = 0.000 seconds
create_atoms 13 single -0.055294940017226686 0.00193216208360779 0.03388625592417063
Created 1 atoms
  using lattice units in orthogonal box = (-0.06 -0.006 -0.055) to (0.06 0.006 0.055)
  create_atoms CPU = 0.000 seconds
create_atoms 13 single -0.05576083537502162 0.0011737921587867497 0.03436018957345972
Created 1 atoms
  using lattice units in orthogonal box = (-0.06 -0.006 -0.055) to (0.06 0.006 0.055)
  create_atoms CPU = 0.000 seconds
create_atoms 13 single -0.055983720951754065 0.000312104601157755 0.03483412322274883
Created 1 atoms
  using lattice units in orthogonal box = (-0.06 -0.006 -0.055) to (0.06 0.006 0.055)
  create_atoms CPU = 0.000 seconds
create_atoms 13 single -0.05594397827408302 -0.0005770545223176074 0.03530805687203792
Created 1 atoms
  using lattice units in orthogonal box = (-0.06 -0.006 -0.055) to (0.06 0.006 0.055)
  create_atoms CPU = 0.000 seconds
create_atoms 13 single -0.05564510550763148 -0.0014154210869905923 0.03578199052132702
Created 1 atoms
  using lattice units in orthogonal box = (-0.06 -0.006 -0.055) to (0.06 0.006 0.055)
  create_atoms CPU = 0.000 seconds
create_atoms 13 single -0.0551134095471162 -0.002129201748580464 0.03625592417061611
Created 1 atoms
  using lattice units in orthogonal box = (-0.06 -0.006 -0.055) to (0.06 0.006 0.055)
  create_atoms CPU = 0.000 seconds
create_atoms 13 single -0.05439569047345673 -0.002655569261439463 0.03672985781990522
Created 1 atoms
  using lattice units in orthogonal box = (-0.06 -0.006 -0.055) to (0.06 0.006 0.055)
  create_atoms CPU = 0.000 seconds
create_atoms 13 single -0.053555122192831046 -0.0029481925566398233 0.03720379146919432
Created 1 atoms
  using lattice units in orthogonal box = (-0.06 -0.006 -0.055) to (0.06 0.006 0.055)
  create_atoms CPU = 0.000 seconds
create_atoms 13 single -0.05266569184539641 -0.002981314820304213 0.03767772511848343
Created 1 atoms
  using lattice units in orthogonal box = (-0.06 -0.006 -0.055) to (0.06 0.006 0.055)
  create_atoms CPU = 0.000 seconds
create_atoms 13 single -0.05180568742903779 -0.002752020618171604 0.03815165876777253
Created 1 atoms
  using lattice units in orthogonal box = (-0.06 -0.006 -0.055) to (0.06 0.006 0.055)
  create_atoms CPU = 0.000 seconds
create_atoms 13 single -0.05105080685998117 -0.002280492513231191 0.03862559241706162
Created 1 atoms
  using lattice units in orthogonal box = (-0.06 -0.006 -0.055) to (0.06 0.006 0.055)
  create_atoms CPU = 0.000 seconds
create_atoms 13 single -0.05046749501338079 -0.0016082345888423187 0.039099526066350726
Created 1 atoms
  using lattice units in orthogonal box = (-0.06 -0.006 -0.055) to (0.06 0.006 0.055)
  create_atoms CPU = 0.000 seconds
create_atoms 13 single -0.0501070952201053 -0.0007944192435121138 0.03957345971563982
Created 1 atoms
  using lattice units in orthogonal box = (-0.06 -0.006 -0.055) to (0.06 0.006 0.055)
  create_atoms CPU = 0.000 seconds
create_atoms 13 single -0.05000133000720254 8.932118615465897e-05 0.04004739336492892
Created 1 atoms
  using lattice units in orthogonal box = (-0.06 -0.006 -0.055) to (0.06 0.006 0.055)
  create_atoms CPU = 0.000 seconds
create_atoms 13 single -0.05015950886898866 0.0009651995310016976 0.04052132701421801
Created 1 atoms
  using lattice units in orthogonal box = (-0.06 -0.006 -0.055) to (0.06 0.006 0.055)
  create_atoms CPU = 0.000 seconds
create_atoms 13 single -0.05056770884181317 0.0017561206455725543 0.040995260663507116
Created 1 atoms
  using lattice units in orthogonal box = (-0.06 -0.006 -0.055) to (0.06 0.006 0.055)
  create_atoms CPU = 0.000 seconds
create_atoms 13 single -0.05119000000862155 0.002392467352172227 0.04146919431279622
Created 1 atoms
  using lattice units in orthogonal box = (-0.06 -0.006 -0.055) to (0.06 0.006 0.055)
  create_atoms CPU = 0.000 seconds
create_atoms 13 single -0.05197160806393672 0.002818228171358738 0.04194312796208531
Created 1 atoms
  using lattice units in orthogonal box = (-0.06 -0.006 -0.055) to (0.06 0.006 0.055)
  create_atoms CPU = 0.000 seconds
create_atoms 13 single -0.052843735569085906 0.0029959274736934293 0.042417061611374415
Created 1 atoms
  using lattice units in orthogonal box = (-0.06 -0.006 -0.055) to (0.06 0.006 0.055)
  create_atoms CPU = 0.000 seconds
create_atoms 13 single -0.053729617528951154 0.0029099240989151624 0.04289099526066352
Created 1 atoms
  using lattice units in orthogonal box = (-0.06 -0.006 -0.055) to (0.06 0.006 0.055)
  create_atoms CPU = 0.000 seconds
create_atoms 13 single -0.05455127827607265 0.002567788096822842 0.043364928909952624
Created 1 atoms
  using lattice units in orthogonal box = (-0.06 -0.006 -0.055) to (0.06 0.006 0.055)
  create_atoms CPU = 0.000 seconds
create_atoms 13 single -0.055236394918592294 0.001999634408609383 0.043838862559241715
Created 1 atoms
  using lattice units in orthogonal box = (-0.06 -0.006 -0.055) to (0.06 0.006 0.055)
  create_atoms CPU = 0.000 seconds
create_atoms 13 single -0.055724663228736405 0.0012554721382697853 0.04431279620853082
Created 1 atoms
  using lattice units in orthogonal box = (-0.06 -0.006 -0.055) to (0.06 0.006 0.055)
  create_atoms CPU = 0.000 seconds
create_atoms 13 single -0.05597310564390875 0.00040080273222366073 0.04478672985781991
Created 1 atoms
  using lattice units in orthogonal box = (-0.06 -0.006 -0.055) to (0.06 0.006 0.055)
  create_atoms CPU = 0.000 seconds
create_atoms 13 single -0.05595985416811657 -0.0004891454829424277 0.045260663507109014
Created 1 atoms
  using lattice units in orthogonal box = (-0.06 -0.006 -0.055) to (0.06 0.006 0.055)
  create_atoms CPU = 0.000 seconds
create_atoms 13 single -0.05568607520130537 -0.001336038926428542 0.04573459715639812
Created 1 atoms
  using lattice units in orthogonal box = (-0.06 -0.006 -0.055) to (0.06 0.006 0.055)
  create_atoms CPU = 0.000 seconds
create_atoms 13 single -0.055175866872391593 -0.0020653337148337178 0.04620853080568721
Created 1 atoms
  using lattice units in orthogonal box = (-0.06 -0.006 -0.055) to (0.06 0.006 0.055)
  create_atoms CPU = 0.000 seconds
create_atoms 13 single -0.054474137912778525 -0.0026128370431599806 0.046682464454976313
Created 1 atoms
  using lattice units in orthogonal box = (-0.06 -0.006 -0.055) to (0.06 0.006 0.055)
  create_atoms CPU = 0.000 seconds
create_atoms 13 single -0.05364265477271658 -0.0029303574599534106 0.047156398104265404
Created 1 atoms
  using lattice units in orthogonal box = (-0.06 -0.006 -0.055) to (0.06 0.006 0.055)
  create_atoms CPU = 0.000 seconds
create_atoms 13 single -0.05275460491483089 -0.002989946697212986 0.04763033175355451
Created 1 atoms
  using lattice units in orthogonal box = (-0.06 -0.006 -0.055) to (0.06 0.006 0.055)
  create_atoms CPU = 0.000 seconds
create_atoms 13 single -0.05188815482579065 -0.002786359687582953 0.04810426540284361
Created 1 atoms
  using lattice units in orthogonal box = (-0.06 -0.006 -0.055) to (0.06 0.006 0.055)
  create_atoms CPU = 0.000 seconds
create_atoms 13 single -0.05111956977238582 -0.0023375162371788733 0.04857819905213272
Created 1 atoms
  using lattice units in orthogonal box = (-0.06 -0.006 -0.055) to (0.06 0.006 0.055)
  create_atoms CPU = 0.000 seconds
create_atoms 13 single -0.050516500903701786 -0.0016829237174292684 0.04905213270142182
Created 1 atoms
  using lattice units in orthogonal box = (-0.06 -0.006 -0.055) to (0.06 0.006 0.055)
  create_atoms CPU = 0.000 seconds
create_atoms 13 single -0.05013203057121466 -0.0008801996111977575 0.04952606635071091
Created 1 atoms
  using lattice units in orthogonal box = (-0.06 -0.006 -0.055) to (0.06 0.006 0.055)
  create_atoms CPU = 0.000 seconds
set type 13 diameter 0.002
Setting atom values ...
  210 settings made for diameter
set type 13 density 0.5
Setting atom values ...
  210 settings made for density

include element_14.txt
create_atoms 14 single -0.030132030571214663 0.0008801996111977593 -0.049526066350710905
Created 1 atoms
  using lattice units in orthogonal box = (-0.06 -0.006 -0.055) to (0.06 0.006 0.055)
  create_atoms CPU = 0.000 seconds
create_atoms 14 single -0.030516500903701792 0.0016829237174292777 -0.0490521327014218
Created 1 atoms
  using lattice units in orthogonal box = (-0.06 -0.006 -0.055) to (0.06 0.006 0.055)
  create_atoms CPU = 0.000 seconds
create_atoms 14 single -0.03111956977238582 0.0023375162371788724 -0.0485781990521327
Created 1 atoms
  using lattice units in orthogonal box = (-0.06 -0.006 -0.055) to (0.06 0.006 0.055)
  create_atoms CPU = 0.000 seconds
create_atoms 14 single -0.03188815482579065 0.002786359687582956 -0.048104265402843606
Created 1 atoms
  using lattice units in orthogonal box = (-0.06 -0.006 -0.055) to (0.06 0.006 0.055)
  create_atoms CPU = 0.000 seconds
create_atoms 14 single -0.032754604914830905 0.0029899466972129877 -0.04763033175355451
Created 1 atoms
  using lattice units in orthogonal box = (-0.06 -0.006 -0.055) to (0.06 0.006 0.055)
  create_atoms CPU = 0.000 seconds
create_atoms 14 single -0.033642654772716586 0.0029303574599534093 -0.047156398104265404
Created 1 atoms
  using lattice units in orthogonal box = (-0.06 -0.006 -0.055) to (0.06 0.006 0.055)
  create_atoms CPU = 0.000 seconds
create_atoms 14 single -0.034474137912778535 0.0026128370431599732 -0.04668246445497631
Created 1 atoms
  using lattice units in orthogonal box = (-0.06 -0.006 -0.055) to (0.06 0.006 0.055)
  create_atoms CPU = 0.000 seconds
create_atoms 14 single -0.0351758668723916 0.002065333714833715 -0.04620853080568721
Created 1 atoms
  using lattice units in orthogonal box = (-0.06 -0.006 -0.055) to (0.06 0.006 0.055)
  create_atoms CPU = 0.000 seconds
create_atoms 14 single -0.03568607520130537 0.0013360389264285308 -0.045734597156398105
Created 1 atoms
  using lattice units in orthogonal box = (-0.06 -0.006 -0.055) to (0.06 0.006 0.055)
  create_atoms CPU = 0.000 seconds
create_atoms 14 single -0.03595985416811657 0.000489145482942427 -0.04526066350710901
Created 1 atoms
  using lattice units in orthogonal box = (-0.06 -0.006 -0.055) to (0.06 0.006 0.055)
  create_atoms CPU = 0.000 seconds
create_atoms 14 single -0.03597310564390875 -0.00040080273222364816 -0.04478672985781991
Created 1 atoms
  using lattice units in orthogonal box = (-0.06 -0.006 -0.055) to (0.06 0.006 0.055)
  create_atoms CPU = 0.000 seconds
create_atoms 14 single -0.0357246632287364 -0.0012554721382698017 -0.044312796208530805
Created 1 atoms
  using lattice units in orthogonal box = (-0.06 -0.006 -0.055) to (0.06 0.006 0.055)
  create_atoms CPU = 0.000 seconds
create_atoms 14 single -0.03523639491859228 -0.0019996344086093873 -0.04383886255924171
Created 1 atoms
  using lattice units in orthogonal box = (-0.06 -0.006 -0.055) to (0.06 0.006 0.055)
  create_atoms CPU = 0.000 seconds
create_atoms 14 single -0.034551278276072635 -0.0025677880968228506 -0.04336492890995261
Created 1 atoms
  using lattice units in orthogonal box = (-0.06 -0.006 -0.055) to (0.06 0.006 0.055)
  create_atoms CPU = 0.000 seconds
create_atoms 14 single -0.03372961752895114 -0.0029099240989151638 -0.042890995260663506
Created 1 atoms
  using lattice units in orthogonal box = (-0.06 -0.006 -0.055) to (0.06 0.006 0.055)
  create_atoms CPU = 0.000 seconds
create_atoms 14 single -0.03284373556908589 -0.002995927473693429 -0.04241706161137441
Created 1 atoms
  using lattice units in orthogonal box = (-0.06 -0.006 -0.055) to (0.06 0.006 0.055)
  create_atoms CPU = 0.000 seconds
create_atoms 14 single -0.03197160806393672 -0.002818228171358738 -0.04194312796208531
Created 1 atoms
  using lattice units in orthogonal box = (-0.06 -0.006 -0.055) to (0.06 0.006 0.055)
  create_atoms CPU = 0.000 seconds
create_atoms 14 single -0.031190000008621536 -0.0023924673521722203 -0.041469194312796206
Created 1 atoms
  using lattice units in orthogonal box = (-0.06 -0.006 -0.055) to (0.06 0.006 0.055)
  create_atoms CPU = 0.000 seconds
create_atoms 14 single -0.03056770884181317 -0.001756120645572554 -0.04099526066350711
Created 1 atoms
  using lattice units in orthogonal box = (-0.06 -0.006 -0.055) to (0.06 0.006 0.055)
  create_atoms CPU = 0.000 seconds
create_atoms 14 single -0.030159508868988657 -0.0009651995310016895 -0.04052132701421801
Created 1 atoms
  using lattice units in orthogonal box = (-0.06 -0.006 -0.055) to (0.06 0.006 0.055)
  create_atoms CPU = 0.000 seconds
create_atoms 14 single -0.03000133000720254 -8.932118615464235e-05 -0.040047393364928914
Created 1 atoms
  using lattice units in orthogonal box = (-0.06 -0.006 -0.055) to (0.06 0.006 0.055)
  create_atoms CPU = 0.000 seconds
create_atoms 14 single -0.030107095220105295 0.0007944192435121169 -0.03957345971563981
Created 1 atoms
  using lattice units in orthogonal box = (-0.06 -0.006 -0.055) to (0.06 0.006 0.055)
  create_atoms CPU = 0.000 seconds
create_atoms 14 single -0.030467495013380797 0.0016082345888423304 -0.03909952606635071
Created 1 atoms
  using lattice units in orthogonal box = (-0.06 -0.006 -0.055) to (0.06 0.006 0.055)
  create_atoms CPU = 0.000 seconds
create_atoms 14 single -0.031050806859981166 0.0022804925132311913 -0.038625592417061615
Created 1 atoms
  using lattice units in orthogonal box = (-0.06 -0.006 -0.055) to (0.06 0.006 0.055)
  create_atoms CPU = 0.000 seconds
create_atoms 14 single -0.03180568742903779 0.0027520206181716076 -0.03815165876777252
Created 1 atoms
  using lattice units in orthogonal box = (-0.06 -0.006 -0.055) to (0.06 0.006 0.055)
  create_atoms CPU = 0.000 seconds
create_atoms 14 single -0.03266569184539641 0.002981314820304213 -0.03767772511848341
Created 1 atoms
  using lattice units in orthogonal box = (-0.06 -0.006 -0.055) to (0.06 0.006 0.055)
  create_atoms CPU = 0.000 seconds
create_atoms 14 single -0.03355512219283105 0.0029481925566398216 -0.037203791469194315
Created 1 atoms
  using lattice units in orthogonal box = (-0.06 -0.006 -0.055) to (0.06 0.006 0.055)
  create_atoms CPU = 0.000 seconds
create_atoms 14 single -0.034395690473456746 0.0026555692614394543 -0.03672985781990522
Created 1 atoms
  using lattice units in orthogonal box = (-0.06 -0.006 -0.055) to (0.06 0.006 0.055)
  create_atoms CPU = 0.000 seconds
create_atoms 14 single -0.035113409547116205 0.0021292017485804618 -0.03625592417061611
Created 1 atoms
  using lattice units in orthogonal box = (-0.06 -0.006 -0.055) to (0.06 0.006 0.055)
  create_atoms CPU = 0.000 seconds
create_atoms 14 single -0.03564510550763149 0.0014154210869905752 -0.035781990521327016
Created 1 atoms
  using lattice units in orthogonal box = (-0.06 -0.006 -0.055) to (0.06 0.006 0.055)
  create_atoms CPU = 0.000 seconds
create_atoms 14 single -0.035943978274083015 0.0005770545223176041 -0.03530805687203792
Created 1 atoms
  using lattice units in orthogonal box = (-0.06 -0.006 -0.055) to (0.06 0.006 0.055)
  create_atoms CPU = 0.000 seconds
create_atoms 14 single -0.03598372095175406 -0.00031210460115776886 -0.034834123222748814
Created 1 atoms
  using lattice units in orthogonal box = (-0.06 -0.006 -0.055) to (0.06 0.006 0.055)
  create_atoms CPU = 0.000 seconds
create_atoms 14 single -0.035760835375021616 -0.0011737921587867477 -0.034360189573459717
Created 1 atoms
  using lattice units in orthogonal box = (-0.06 -0.006 -0.055) to (0.06 0.006 0.055)
  create_atoms CPU = 0.000 seconds
create_atoms 14 single -0.035294940017226675 -0.0019321620836077968 -0.03388625592417062
Created 1 atoms
  using lattice units in orthogonal box = (-0.06 -0.006 -0.055) to (0.06 0.006 0.055)
  create_atoms CPU = 0.000 seconds
create_atoms 14 single -0.03462704316517986 -0.0025204623660434826 -0.033412322274881515
Created 1 atoms
  using lattice units in orthogonal box = (-0.06 -0.006 -0.055) to (0.06 0.006 0.055)
  create_atoms CPU = 0.000 seconds
create_atoms 14 single -0.033815933354139974 -0.0028869105912033197 -0.03293838862559242
Created 1 atoms
  using lattice units in orthogonal box = (-0.06 -0.006 -0.055) to (0.06 0.006 0.055)
  create_atoms CPU = 0.000 seconds
create_atoms 14 single -0.03293300477855329 -0.002999251846761673 -0.03246445497630332
Created 1 atoms
  using lattice units in orthogonal box = (-0.06 -0.006 -0.055) to (0.06 0.006 0.055)
  create_atoms CPU = 0.000 seconds
create_atoms 14 single -0.03205597314787078 -0.0028475978126236484 -0.031990521327014215
Created 1 atoms
  using lattice units in orthogonal box = (-0.06 -0.006 -0.055) to (0.06 0.006 0.055)
  create_atoms CPU = 0.000 seconds
create_atoms 14 single -0.03126203512020734 -0.0024452971346254166 -0.03151658767772512
Created 1 atoms
  using lattice units in orthogonal box = (-0.06 -0.006 -0.055) to (0.06 0.006 0.055)
  create_atoms CPU = 0.000 seconds
create_atoms 14 single -0.030621073423097257 -0.0018277604716444068 -0.03104265402843602
Created 1 atoms
  using lattice units in orthogonal box = (-0.06 -0.006 -0.055) to (0.06 0.006 0.055)
  create_atoms CPU = 0.000 seconds
create_atoms 14 single -0.030189505749204645 -0.0010493436359202105 -0.03056872037914692
Created 1 atoms
  using lattice units in orthogonal box = (-0.06 -0.006 -0.055) to (0.06 0.006 0.055)
  create_atoms CPU = 0.000 seconds
create_atoms 14 single -0.030005318849530716 -0.0001785631737620014 -0.030094786729857822
Created 1 atoms
  using lattice units in orthogonal box = (-0.06 -0.006 -0.055) to (0.06 0.006 0.055)
  create_atoms CPU = 0.000 seconds
create_atoms 14 single -0.030084724925124946 0.0007079344869493409 -0.02962085308056872
Created 1 atoms
  using lattice units in orthogonal box = (-0.06 -0.006 -0.055) to (0.06 0.006 0.055)
  create_atoms CPU = 0.000 seconds
create_atoms 14 single -0.030420734622974913 0.0015321194845310262 -0.02914691943127962
Created 1 atoms
  using lattice units in orthogonal box = (-0.06 -0.006 -0.055) to (0.06 0.006 0.055)
  create_atoms CPU = 0.000 seconds
create_atoms 14 single -0.030983772241520092 0.0022214467416382224 -0.028672985781990522
Created 1 atoms
  using lattice units in orthogonal box = (-0.06 -0.006 -0.055) to (0.06 0.006 0.055)
  create_atoms CPU = 0.000 seconds
create_atoms 14 single -0.03172427899516591 0.0027152414105977925 -0.02819905213270142
Created 1 atoms
  using lattice units in orthogonal box = (-0.06 -0.006 -0.055) to (0.06 0.006 0.055)
  create_atoms CPU = 0.000 seconds
create_atoms 14 single -0.03257707519746425 0.0029700394966060794 -0.02772511848341232
Created 1 atoms
  using lattice units in orthogonal box = (-0.06 -0.006 -0.055) to (0.06 0.006 0.055)
  create_atoms CPU = 0.000 seconds
create_atoms 14 single -0.03346709740193568 0.002963413575103033 -0.027251184834123223
Created 1 atoms
  using lattice units in orthogonal box = (-0.06 -0.006 -0.055) to (0.06 0.006 0.055)
  create_atoms CPU = 0.000 seconds
create_atoms 14 single -0.03431600551521348 0.0026959468622225675 -0.026777251184834122
Created 1 atoms
  using lattice units in orthogonal box = (-0.06 -0.006 -0.055) to (0.06 0.006 0.055)
  create_atoms CPU = 0.000 seconds
create_atoms 14 single -0.035049078321894425 0.002191181879886362 -0.026303317535545025
Created 1 atoms
  using lattice units in orthogonal box = (-0.06 -0.006 -0.055) to (0.06 0.006 0.055)
  create_atoms CPU = 0.000 seconds
create_atoms 14 single -0.03560179047437318 0.0014935482340590772 -0.025829383886255924
Created 1 atoms
  using lattice units in orthogonal box = (-0.06 -0.006 -0.055) to (0.06 0.006 0.055)
  create_atoms CPU = 0.000 seconds
create_atoms 14 single -0.035925492038510365 0.0006644519039121574 -0.025355450236966823
Created 1 atoms
  using lattice units in orthogonal box = (-0.06 -0.006 -0.055) to (0.06 0.006 0.055)
  create_atoms CPU = 0.000 seconds
create_atoms 14 single -0.03599169067936191 -0.00022312973584689947 -0.024881516587677722
Created 1 atoms
  using lattice units in orthogonal box = (-0.06 -0.006 -0.055) to (0.06 0.006 0.055)
  create_atoms CPU = 0.000 seconds
create_atoms 14 single -0.03579455956735097 -0.0010910714112867179 -0.024407582938388624
Created 1 atoms
  using lattice units in orthogonal box = (-0.06 -0.006 -0.055) to (0.06 0.006 0.055)
  create_atoms CPU = 0.000 seconds
create_atoms 14 single -0.0353514502580262 -0.0018629765656144283 -0.023933649289099523
Created 1 atoms
  using lattice units in orthogonal box = (-0.06 -0.006 -0.055) to (0.06 0.006 0.055)
  create_atoms CPU = 0.000 seconds
create_atoms 14 single -0.03470136540153473 -0.0024709018131970732 -0.023459715639810426
Created 1 atoms
  using lattice units in orthogonal box = (-0.06 -0.006 -0.055) to (0.06 0.006 0.055)
  create_atoms CPU = 0.000 seconds
create_atoms 14 single -0.033901525714503604 -0.00286133734223855 -0.02298578199052133
Created 1 atoms
  using lattice units in orthogonal box = (-0.06 -0.006 -0.055) to (0.06 0.006 0.055)
  create_atoms CPU = 0.000 seconds
create_atoms 14 single -0.03302233339077207 -0.0029999168687909706 -0.022511848341232227
Created 1 atoms
  using lattice units in orthogonal box = (-0.06 -0.006 -0.055) to (0.06 0.006 0.055)
  create_atoms CPU = 0.000 seconds
create_atoms 14 single -0.03214117527348 -0.0028744425701547486 -0.02203791469194313
Created 1 atoms
  using lattice units in orthogonal box = (-0.06 -0.006 -0.055) to (0.06 0.006 0.055)
  create_atoms CPU = 0.000 seconds
create_atoms 14 single -0.031335611235665056 -0.0024959587418776764 -0.021563981042654026
Created 1 atoms
  using lattice units in orthogonal box = (-0.06 -0.006 -0.055) to (0.06 0.006 0.055)
  create_atoms CPU = 0.000 seconds
create_atoms 14 single -0.030676547330702405 -0.0018977796746550602 -0.021090047393364925
Created 1 atoms
  using lattice units in orthogonal box = (-0.06 -0.006 -0.055) to (0.06 0.006 0.055)
  create_atoms CPU = 0.000 seconds
create_atoms 14 single -0.030221994614484802 -0.0011325573177762523 -0.020616113744075827
Created 1 atoms
  using lattice units in orthogonal box = (-0.06 -0.006 -0.055) to (0.06 0.006 0.055)
  create_atoms CPU = 0.000 seconds
create_atoms 14 single -0.03001196299019185 -0.0002676468344978834 -0.02014218009478673
Created 1 atoms
  using lattice units in orthogonal box = (-0.06 -0.006 -0.055) to (0.06 0.006 0.055)
  create_atoms CPU = 0.000 seconds
create_atoms 14 single -0.030064939521375903 0.0006208220250755195 -0.01966824644549763
Created 1 atoms
  using lattice units in orthogonal box = (-0.06 -0.006 -0.055) to (0.06 0.006 0.055)
  create_atoms CPU = 0.000 seconds
create_atoms 14 single -0.03037626119358816 0.0014546458935866713 -0.01919431279620853
Created 1 atoms
  using lattice units in orthogonal box = (-0.06 -0.006 -0.055) to (0.06 0.006 0.055)
  create_atoms CPU = 0.000 seconds
create_atoms 14 single -0.03091852535468617 0.002160431276600962 -0.01872037914691943
Created 1 atoms
  using lattice units in orthogonal box = (-0.06 -0.006 -0.055) to (0.06 0.006 0.055)
  create_atoms CPU = 0.000 seconds
create_atoms 14 single -0.03164400170671059 0.0026760546759354914 -0.018246445497630333
Created 1 atoms
  using lattice units in orthogonal box = (-0.06 -0.006 -0.055) to (0.06 0.006 0.055)
  create_atoms CPU = 0.000 seconds
create_atoms 14 single -0.03248883354488775 0.0029561307236264053 -0.017772511848341235
Created 1 atoms
  using lattice units in orthogonal box = (-0.06 -0.006 -0.055) to (0.06 0.006 0.055)
  create_atoms CPU = 0.000 seconds
create_atoms 14 single -0.03337865844910107 0.002976007019300253 -0.01729857819905213
Created 1 atoms
  using lattice units in orthogonal box = (-0.06 -0.006 -0.055) to (0.06 0.006 0.055)
  create_atoms CPU = 0.000 seconds
create_atoms 14 single -0.034235153692427675 0.0027339340438427336 -0.016824644549763033
Created 1 atoms
  using lattice units in orthogonal box = (-0.06 -0.006 -0.055) to (0.06 0.006 0.055)
  create_atoms CPU = 0.000 seconds
create_atoms 14 single -0.0349829302373882 0.0022512191527373744 -0.01635071090047393
Created 1 atoms
  using lattice units in orthogonal box = (-0.06 -0.006 -0.055) to (0.06 0.006 0.055)
  create_atoms CPU = 0.000 seconds
create_atoms 14 single -0.0355561685077346 0.0015703510945218164 -0.01587677725118483
Created 1 atoms
  using lattice units in orthogonal box = (-0.06 -0.006 -0.055) to (0.06 0.006 0.055)
  create_atoms CPU = 0.000 seconds
create_atoms 14 single -0.03590441185261625 0.0007512601349614148 -0.015402843601895734
Created 1 atoms
  using lattice units in orthogonal box = (-0.06 -0.006 -0.055) to (0.06 0.006 0.055)
  create_atoms CPU = 0.000 seconds
create_atoms 14 single -0.035997007760202204 -0.00013395702776550146 -0.014928909952606637
Created 1 atoms
  using lattice units in orthogonal box = (-0.06 -0.006 -0.055) to (0.06 0.006 0.055)
  create_atoms CPU = 0.000 seconds
create_atoms 14 single -0.03582580590344532 -0.001007383241896353 -0.014454976303317539
Created 1 atoms
  using lattice units in orthogonal box = (-0.06 -0.006 -0.055) to (0.06 0.006 0.055)
  create_atoms CPU = 0.000 seconds
create_atoms 14 single -0.03540587553497266 -0.0017921391994541122 -0.013981042654028435
Created 1 atoms
  using lattice units in orthogonal box = (-0.06 -0.006 -0.055) to (0.06 0.006 0.055)
  create_atoms CPU = 0.000 seconds
create_atoms 14 single -0.03477417908573081 -0.002419150382211782 -0.01350710900473933
Created 1 atoms
  using lattice units in orthogonal box = (-0.06 -0.006 -0.055) to (0.06 0.006 0.055)
  create_atoms CPU = 0.000 seconds
create_atoms 14 single -0.03398631871773818 -0.0028332270270910714 -0.013033175355450233
Created 1 atoms
  using lattice units in orthogonal box = (-0.06 -0.006 -0.055) to (0.06 0.006 0.055)
  create_atoms CPU = 0.000 seconds
create_atoms 14 single -0.03311164220061044 -0.0029979219501252625 -0.012559241706161135
Created 1 atoms
  using lattice units in orthogonal box = (-0.06 -0.006 -0.055) to (0.06 0.006 0.055)
  create_atoms CPU = 0.000 seconds
create_atoms 14 single -0.03222713889447053 -0.002898738641471451 -0.012085308056872038
Created 1 atoms
  using lattice units in orthogonal box = (-0.06 -0.006 -0.055) to (0.06 0.006 0.055)
  create_atoms CPU = 0.000 seconds
create_atoms 14 single -0.03141066311715238 -0.0025444072537273237 -0.011611374407582933
Created 1 atoms
  using lattice units in orthogonal box = (-0.06 -0.006 -0.055) to (0.06 0.006 0.055)
  create_atoms CPU = 0.000 seconds
create_atoms 14 single -0.030734081377497502 -0.001966116170574965 -0.011137440758293836
Created 1 atoms
  using lattice units in orthogonal box = (-0.06 -0.006 -0.055) to (0.06 0.006 0.055)
  create_atoms CPU = 0.000 seconds
create_atoms 14 single -0.030256946657879244 -0.0012147667933723454 -0.010663507109004738
Created 1 atoms
  using lattice units in orthogonal box = (-0.06 -0.006 -0.055) to (0.06 0.006 0.055)
  create_atoms CPU = 0.000 seconds
create_atoms 14 single -0.030021256538015975 -0.0003564931804220248 -0.010189573459715641
Created 1 atoms
  using lattice units in orthogonal box = (-0.06 -0.006 -0.055) to (0.06 0.006 0.055)
  create_atoms CPU = 0.000 seconds
create_atoms 14 single -0.030047756552011164 0.0005331590980251296 -0.009715639810426537
Created 1 atoms
  using lattice units in orthogonal box = (-0.06 -0.006 -0.055) to (0.06 0.006 0.055)
  create_atoms CPU = 0.000 seconds
create_atoms 14 single -0.030334114158541488 0.001375882509631917 -0.009241706161137439
Created 1 atoms
  using lattice units in orthogonal box = (-0.06 -0.006 -0.055) to (0.06 0.006 0.055)
  create_atoms CPU = 0.000 seconds
create_atoms 14 single -0.030855124052032373 0.0020975002187913964 -0.008767772511848335
Created 1 atoms
  using lattice units in orthogonal box = (-0.06 -0.006 -0.055) to (0.06 0.006 0.055)
  create_atoms CPU = 0.000 seconds
create_atoms 14 single -0.03156492674325308 0.00263449515994427 -0.008293838862559237
Created 1 atoms
  using lattice units in orthogonal box = (-0.06 -0.006 -0.055) to (0.06 0.006 0.055)
  create_atoms CPU = 0.000 seconds
create_atoms 14 single -0.03240104512902258 0.002939600833877352 -0.00781990521327014
Created 1 atoms
  using lattice units in orthogonal box = (-0.06 -0.006 -0.055) to (0.06 0.006 0.055)
  create_atoms CPU = 0.000 seconds
create_atoms 14 single -0.03328988375062339 0.002985961722983823 -0.007345971563981042
Created 1 atoms
  using lattice units in orthogonal box = (-0.06 -0.006 -0.055) to (0.06 0.006 0.055)
  create_atoms CPU = 0.000 seconds
create_atoms 14 single -0.03415320669410375 0.0027694971241498515 -0.006872037914691945
Created 1 atoms
  using lattice units in orthogonal box = (-0.06 -0.006 -0.055) to (0.06 0.006 0.055)
  create_atoms CPU = 0.000 seconds
create_atoms 14 single -0.03491502394521673 0.0023092603337966384 -0.00639810426540284
Created 1 atoms
  using lattice units in orthogonal box = (-0.06 -0.006 -0.055) to (0.06 0.006 0.055)
  create_atoms CPU = 0.000 seconds
create_atoms 14 single -0.035508280059411895 0.0016457615694737417 -0.005924170616113736
Created 1 atoms
  using lattice units in orthogonal box = (-0.06 -0.006 -0.055) to (0.06 0.006 0.055)
  create_atoms CPU = 0.000 seconds
create_atoms 14 single -0.035880756407600065 0.000837402245083676 -0.005450236966824638
Created 1 atoms
  using lattice units in orthogonal box = (-0.06 -0.006 -0.055) to (0.06 0.006 0.055)
  create_atoms CPU = 0.000 seconds
create_atoms 14 single -0.03599966747977108 -4.46655438096136e-05 -0.004976303317535541
Created 1 atoms
  using lattice units in orthogonal box = (-0.06 -0.006 -0.055) to (0.06 0.006 0.055)
  create_atoms CPU = 0.000 seconds
create_atoms 14 single -0.03585454667806996 -0.0009228018545276954 -0.004502369668246443
Created 1 atoms
  using lattice units in orthogonal box = (-0.06 -0.006 -0.055) to (0.06 0.006 0.055)
  create_atoms CPU = 0.000 seconds
create_atoms 14 single -0.03545816759072585 -0.001719712794598295 -0.004028436018957346
Created 1 atoms
  using lattice units in orthogonal box = (-0.06 -0.006 -0.055) to (0.06 0.006 0.055)
  create_atoms CPU = 0.000 seconds
create_atoms 14 single -0.03484541965595181 -0.002365253959604914 -0.0035545023696682415
Created 1 atoms
  using lattice units in orthogonal box = (-0.06 -0.006 -0.055) to (0.06 0.006 0.055)
  create_atoms CPU = 0.000 seconds
create_atoms 14 single -0.03407023718030704 -0.002802604570375284 -0.003080568720379144
Created 1 atoms
  using lattice units in orthogonal box = (-0.06 -0.006 -0.055) to (0.06 0.006 0.055)
  create_atoms CPU = 0.000 seconds
create_atoms 14 single -0.033200852020494886 -0.0029932688596020105 -0.0026066350710900466
Created 1 atoms
  using lattice units in orthogonal box = (-0.06 -0.006 -0.055) to (0.06 0.006 0.055)
  create_atoms CPU = 0.000 seconds
create_atoms 14 single -0.032313787789352344 -0.002920464483940534 -0.002132701421800942
Created 1 atoms
  using lattice units in orthogonal box = (-0.06 -0.006 -0.055) to (0.06 0.006 0.055)
  create_atoms CPU = 0.000 seconds
create_atoms 14 single -0.03148712421830733 -0.002590599712261194 -0.0016587677725118447
Created 1 atoms
  using lattice units in orthogonal box = (-0.06 -0.006 -0.055) to (0.06 0.006 0.055)
  create_atoms CPU = 0.000 seconds
create_atoms 14 single -0.030793624549684786 -0.002032709367382934 -0.0011848341232227472
Created 1 atoms
  using lattice units in orthogonal box = (-0.06 -0.006 -0.055) to (0.06 0.006 0.055)
  create_atoms CPU = 0.000 seconds
create_atoms 14 single -0.03029433088840833 -0.0012958991699120453 -0.0007109004739336428
Created 1 atoms
  using lattice units in orthogonal box = (-0.06 -0.006 -0.055) to (0.06 0.006 0.055)
  create_atoms CPU = 0.000 seconds
create_atoms 14 single -0.030033191252679406 -0.0004450234340144214 -0.00023696682464454527
Created 1 atoms
  using lattice units in orthogonal box = (-0.06 -0.006 -0.055) to (0.06 0.006 0.055)
  create_atoms CPU = 0.000 seconds
create_atoms 14 single -0.030033191252679406 0.00044502343401443524 0.00023696682464455915
Created 1 atoms
  using lattice units in orthogonal box = (-0.06 -0.006 -0.055) to (0.06 0.006 0.055)
  create_atoms CPU = 0.000 seconds
create_atoms 14 single -0.03029433088840833 0.0012958991699120483 0.0007109004739336497
Created 1 atoms
  using lattice units in orthogonal box = (-0.06 -0.006 -0.055) to (0.06 0.006 0.055)
  create_atoms CPU = 0.000 seconds
create_atoms 14 single -0.030793624549684796 0.002032709367382944 0.0011848341232227541
Created 1 atoms
  using lattice units in orthogonal box = (-0.06 -0.006 -0.055) to (0.06 0.006 0.055)
  create_atoms CPU = 0.000 seconds
create_atoms 14 single -0.03148712421830733 0.002590599712261195 0.0016587677725118516
Created 1 atoms
  using lattice units in orthogonal box = (-0.06 -0.006 -0.055) to (0.06 0.006 0.055)
  create_atoms CPU = 0.000 seconds
create_atoms 14 single -0.03231378778935236 0.0029204644839405376 0.002132701421800956
Created 1 atoms
  using lattice units in orthogonal box = (-0.06 -0.006 -0.055) to (0.06 0.006 0.055)
  create_atoms CPU = 0.000 seconds
create_atoms 14 single -0.03320085202049488 0.0029932688596020114 0.0026066350710900466
Created 1 atoms
  using lattice units in orthogonal box = (-0.06 -0.006 -0.055) to (0.06 0.006 0.055)
  create_atoms CPU = 0.000 seconds
create_atoms 14 single -0.03407023718030706 0.002802604570375279 0.003080568720379151
Created 1 atoms
  using lattice units in orthogonal box = (-0.06 -0.006 -0.055) to (0.06 0.006 0.055)
  create_atoms CPU = 0.000 seconds
create_atoms 14 single -0.03484541965595182 0.0023652539596048985 0.0035545023696682554
Created 1 atoms
  using lattice units in orthogonal box = (-0.06 -0.006 -0.055) to (0.06 0.006 0.055)
  create_atoms CPU = 0.000 seconds
create_atoms 14 single -0.03545816759072585 0.001719712794598301 0.004028436018957346
Created 1 atoms
  using lattice units in orthogonal box = (-0.06 -0.006 -0.055) to (0.06 0.006 0.055)
  create_atoms CPU = 0.000 seconds
create_atoms 14 single -0.03585454667806996 0.0009228018545276922 0.00450236966824645
Created 1 atoms
  using lattice units in orthogonal box = (-0.06 -0.006 -0.055) to (0.06 0.006 0.055)
  create_atoms CPU = 0.000 seconds
create_atoms 14 single -0.03599966747977108 4.466554380961029e-05 0.004976303317535548
Created 1 atoms
  using lattice units in orthogonal box = (-0.06 -0.006 -0.055) to (0.06 0.006 0.055)
  create_atoms CPU = 0.000 seconds
create_atoms 14 single -0.035880756407600065 -0.0008374022450836895 0.005450236966824652
Created 1 atoms
  using lattice units in orthogonal box = (-0.06 -0.006 -0.055) to (0.06 0.006 0.055)
  create_atoms CPU = 0.000 seconds
create_atoms 14 single -0.035508280059411895 -0.0016457615694737443 0.005924170616113743
Created 1 atoms
[...]
     6 = max # of 1-2 neighbors
     3 = max # of special neighbors
  special bonds CPU = 0.000 seconds
create_bonds single/dihedral 5 1395 1396 1397 1398
Finding 1-2 1-3 1-4 neighbors ...
  special bond factors lj:    0        1        1       
  special bond factors coul:  0        1        1       
     6 = max # of 1-2 neighbors
     3 = max # of special neighbors
  special bonds CPU = 0.000 seconds
create_bonds single/dihedral 5 1396 1397 1398 1399
Finding 1-2 1-3 1-4 neighbors ...
  special bond factors lj:    0        1        1       
  special bond factors coul:  0        1        1       
     6 = max # of 1-2 neighbors
     3 = max # of special neighbors
  special bonds CPU = 0.000 seconds
create_bonds single/dihedral 5 1397 1398 1399 1400
Finding 1-2 1-3 1-4 neighbors ...
  special bond factors lj:    0        1        1       
  special bond factors coul:  0        1        1       
     6 = max # of 1-2 neighbors
     3 = max # of special neighbors
  special bonds CPU = 0.000 seconds
create_bonds single/dihedral 5 1398 1399 1400 1401
Finding 1-2 1-3 1-4 neighbors ...
  special bond factors lj:    0        1        1       
  special bond factors coul:  0        1        1       
     6 = max # of 1-2 neighbors
     3 = max # of special neighbors
  special bonds CPU = 0.000 seconds
create_bonds single/dihedral 5 1399 1400 1401 1402
Finding 1-2 1-3 1-4 neighbors ...
  special bond factors lj:    0        1        1       
  special bond factors coul:  0        1        1       
     6 = max # of 1-2 neighbors
     3 = max # of special neighbors
  special bonds CPU = 0.000 seconds
create_bonds single/dihedral 5 1400 1401 1402 1403
Finding 1-2 1-3 1-4 neighbors ...
  special bond factors lj:    0        1        1       
  special bond factors coul:  0        1        1       
     6 = max # of 1-2 neighbors
     3 = max # of special neighbors
  special bonds CPU = 0.000 seconds
create_bonds single/dihedral 5 1401 1402 1403 1404
Finding 1-2 1-3 1-4 neighbors ...
  special bond factors lj:    0        1        1       
  special bond factors coul:  0        1        1       
     6 = max # of 1-2 neighbors
     3 = max # of special neighbors
  special bonds CPU = 0.000 seconds
create_bonds single/dihedral 5 1402 1403 1404 1405
Finding 1-2 1-3 1-4 neighbors ...
  special bond factors lj:    0        1        1       
  special bond factors coul:  0        1        1       
     6 = max # of 1-2 neighbors
     3 = max # of special neighbors
  special bonds CPU = 0.000 seconds
create_bonds single/dihedral 5 1403 1404 1405 1406
Finding 1-2 1-3 1-4 neighbors ...
  special bond factors lj:    0        1        1       
  special bond factors coul:  0        1        1       
     6 = max # of 1-2 neighbors
     3 = max # of special neighbors
  special bonds CPU = 0.000 seconds
create_bonds single/dihedral 5 1404 1405 1406 1407
Finding 1-2 1-3 1-4 neighbors ...
  special bond factors lj:    0        1        1       
  special bond factors coul:  0        1        1       
     6 = max # of 1-2 neighbors
     3 = max # of special neighbors
  special bonds CPU = 0.000 seconds
create_bonds single/dihedral 5 1405 1406 1407 1408
Finding 1-2 1-3 1-4 neighbors ...
  special bond factors lj:    0        1        1       
  special bond factors coul:  0        1        1       
     6 = max # of 1-2 neighbors
     3 = max # of special neighbors
  special bonds CPU = 0.000 seconds
create_bonds single/dihedral 5 1406 1407 1408 1409
Finding 1-2 1-3 1-4 neighbors ...
  special bond factors lj:    0        1        1       
  special bond factors coul:  0        1        1       
     6 = max # of 1-2 neighbors
     3 = max # of special neighbors
  special bonds CPU = 0.000 seconds
create_bonds single/dihedral 5 1407 1408 1409 1410
Finding 1-2 1-3 1-4 neighbors ...
  special bond factors lj:    0        1        1       
  special bond factors coul:  0        1        1       
     6 = max # of 1-2 neighbors
     3 = max # of special neighbors
  special bonds CPU = 0.000 seconds
create_bonds single/dihedral 5 1408 1409 1410 1411
Finding 1-2 1-3 1-4 neighbors ...
  special bond factors lj:    0        1        1       
  special bond factors coul:  0        1        1       
     6 = max # of 1-2 neighbors
     3 = max # of special neighbors
  special bonds CPU = 0.000 seconds
create_bonds single/dihedral 5 1409 1410 1411 1412
Finding 1-2 1-3 1-4 neighbors ...
  special bond factors lj:    0        1        1       
  special bond factors coul:  0        1        1       
     6 = max # of 1-2 neighbors
     3 = max # of special neighbors
  special bonds CPU = 0.000 seconds
create_bonds single/dihedral 5 1410 1411 1412 1413
Finding 1-2 1-3 1-4 neighbors ...
  special bond factors lj:    0        1        1       
  special bond factors coul:  0        1        1       
     6 = max # of 1-2 neighbors
     3 = max # of special neighbors
  special bonds CPU = 0.000 seconds
create_bonds single/dihedral 5 1411 1412 1413 1414
Finding 1-2 1-3 1-4 neighbors ...
  special bond factors lj:    0        1        1       
  special bond factors coul:  0        1        1       
     6 = max # of 1-2 neighbors
     3 = max # of special neighbors
  special bonds CPU = 0.000 seconds
create_bonds single/dihedral 5 1412 1413 1414 1415
Finding 1-2 1-3 1-4 neighbors ...
  special bond factors lj:    0        1        1       
  special bond factors coul:  0        1        1       
     6 = max # of 1-2 neighbors
     3 = max # of special neighbors
  special bonds CPU = 0.000 seconds
create_bonds single/dihedral 5 1413 1414 1415 1416
Finding 1-2 1-3 1-4 neighbors ...
  special bond factors lj:    0        1        1       
  special bond factors coul:  0        1        1       
     6 = max # of 1-2 neighbors
     3 = max # of special neighbors
  special bonds CPU = 0.000 seconds
create_bonds single/dihedral 5 1414 1415 1416 1417
Finding 1-2 1-3 1-4 neighbors ...
  special bond factors lj:    0        1        1       
  special bond factors coul:  0        1        1       
     6 = max # of 1-2 neighbors
     3 = max # of special neighbors
  special bonds CPU = 0.000 seconds
create_bonds single/dihedral 5 1415 1416 1417 1418
Finding 1-2 1-3 1-4 neighbors ...
  special bond factors lj:    0        1        1       
  special bond factors coul:  0        1        1       
     6 = max # of 1-2 neighbors
     3 = max # of special neighbors
  special bonds CPU = 0.000 seconds
create_bonds single/dihedral 5 1416 1417 1418 1419
Finding 1-2 1-3 1-4 neighbors ...
  special bond factors lj:    0        1        1       
  special bond factors coul:  0        1        1       
     6 = max # of 1-2 neighbors
     3 = max # of special neighbors
  special bonds CPU = 0.000 seconds
create_bonds single/dihedral 5 1417 1418 1419 1420
Finding 1-2 1-3 1-4 neighbors ...
  special bond factors lj:    0        1        1       
  special bond factors coul:  0        1        1       
     6 = max # of 1-2 neighbors
     3 = max # of special neighbors
  special bonds CPU = 0.000 seconds
create_bonds single/dihedral 5 1418 1419 1420 1421
Finding 1-2 1-3 1-4 neighbors ...
  special bond factors lj:    0        1        1       
  special bond factors coul:  0        1        1       
     6 = max # of 1-2 neighbors
     3 = max # of special neighbors
  special bonds CPU = 0.000 seconds
create_bonds single/dihedral 5 1419 1420 1421 1422
Finding 1-2 1-3 1-4 neighbors ...
  special bond factors lj:    0        1        1       
  special bond factors coul:  0        1        1       
     6 = max # of 1-2 neighbors
     3 = max # of special neighbors
  special bonds CPU = 0.000 seconds
create_bonds single/dihedral 5 1420 1421 1422 1423
Finding 1-2 1-3 1-4 neighbors ...
  special bond factors lj:    0        1        1       
  special bond factors coul:  0        1        1       
     6 = max # of 1-2 neighbors
     3 = max # of special neighbors
  special bonds CPU = 0.000 seconds
create_bonds single/dihedral 5 1421 1422 1423 1424
Finding 1-2 1-3 1-4 neighbors ...
  special bond factors lj:    0        1        1       
  special bond factors coul:  0        1        1       
     6 = max # of 1-2 neighbors
     3 = max # of special neighbors
  special bonds CPU = 0.000 seconds
create_bonds single/dihedral 5 1422 1423 1424 1425
Finding 1-2 1-3 1-4 neighbors ...
  special bond factors lj:    0        1        1       
  special bond factors coul:  0        1        1       
     6 = max # of 1-2 neighbors
     3 = max # of special neighbors
  special bonds CPU = 0.000 seconds
create_bonds single/dihedral 5 1423 1424 1425 1426
Finding 1-2 1-3 1-4 neighbors ...
  special bond factors lj:    0        1        1       
  special bond factors coul:  0        1        1       
     6 = max # of 1-2 neighbors
     3 = max # of special neighbors
  special bonds CPU = 0.000 seconds
create_bonds single/dihedral 5 1424 1425 1426 1427
Finding 1-2 1-3 1-4 neighbors ...
  special bond factors lj:    0        1        1       
  special bond factors coul:  0        1        1       
     6 = max # of 1-2 neighbors
     3 = max # of special neighbors
  special bonds CPU = 0.000 seconds
create_bonds single/dihedral 5 1425 1426 1427 1428
Finding 1-2 1-3 1-4 neighbors ...
  special bond factors lj:    0        1        1       
  special bond factors coul:  0        1        1       
     6 = max # of 1-2 neighbors
     3 = max # of special neighbors
  special bonds CPU = 0.000 seconds
create_bonds single/dihedral 5 1426 1427 1428 1429
Finding 1-2 1-3 1-4 neighbors ...
  special bond factors lj:    0        1        1       
  special bond factors coul:  0        1        1       
     6 = max # of 1-2 neighbors
     3 = max # of special neighbors
  special bonds CPU = 0.000 seconds
create_bonds single/dihedral 5 1427 1428 1429 1430
Finding 1-2 1-3 1-4 neighbors ...
  special bond factors lj:    0        1        1       
  special bond factors coul:  0        1        1       
     6 = max # of 1-2 neighbors
     3 = max # of special neighbors
  special bonds CPU = 0.000 seconds
create_bonds single/dihedral 5 1428 1429 1430 1431
Finding 1-2 1-3 1-4 neighbors ...
  special bond factors lj:    0        1        1       
  special bond factors coul:  0        1        1       
     6 = max # of 1-2 neighbors
     3 = max # of special neighbors
  special bonds CPU = 0.000 seconds
create_bonds single/dihedral 5 1429 1430 1431 1432
Finding 1-2 1-3 1-4 neighbors ...
  special bond factors lj:    0        1        1       
  special bond factors coul:  0        1        1       
     6 = max # of 1-2 neighbors
     3 = max # of special neighbors
  special bonds CPU = 0.000 seconds
create_bonds single/dihedral 5 1430 1431 1432 12
Finding 1-2 1-3 1-4 neighbors ...
  special bond factors lj:    0        1        1       
  special bond factors coul:  0        1        1       
     6 = max # of 1-2 neighbors
     3 = max # of special neighbors
  special bonds CPU = 0.000 seconds
create_bonds single/dihedral 5 9 1433 1434 1435
Finding 1-2 1-3 1-4 neighbors ...
  special bond factors lj:    0        1        1       
  special bond factors coul:  0        1        1       
     6 = max # of 1-2 neighbors
     3 = max # of special neighbors
  special bonds CPU = 0.000 seconds
create_bonds single/dihedral 5 1434 1435 1436 1437
Finding 1-2 1-3 1-4 neighbors ...
  special bond factors lj:    0        1        1       
  special bond factors coul:  0        1        1       
     6 = max # of 1-2 neighbors
     3 = max # of special neighbors
  special bonds CPU = 0.000 seconds
create_bonds single/dihedral 5 1435 1436 1437 1438
Finding 1-2 1-3 1-4 neighbors ...
  special bond factors lj:    0        1        1       
  special bond factors coul:  0        1        1       
     6 = max # of 1-2 neighbors
     3 = max # of special neighbors
  special bonds CPU = 0.000 seconds
create_bonds single/dihedral 5 1436 1437 1438 1439
Finding 1-2 1-3 1-4 neighbors ...
  special bond factors lj:    0        1        1       
  special bond factors coul:  0        1        1       
     6 = max # of 1-2 neighbors
     3 = max # of special neighbors
  special bonds CPU = 0.000 seconds
create_bonds single/dihedral 5 1437 1438 1439 1440
Finding 1-2 1-3 1-4 neighbors ...
  special bond factors lj:    0        1        1       
  special bond factors coul:  0        1        1       
     6 = max # of 1-2 neighbors
     3 = max # of special neighbors
  special bonds CPU = 0.000 seconds
create_bonds single/dihedral 5 1438 1439 1440 1441
Finding 1-2 1-3 1-4 neighbors ...
  special bond factors lj:    0        1        1       
  special bond factors coul:  0        1        1       
     6 = max # of 1-2 neighbors
     3 = max # of special neighbors
  special bonds CPU = 0.000 seconds
create_bonds single/dihedral 5 1439 1440 1441 1442
Finding 1-2 1-3 1-4 neighbors ...
  special bond factors lj:    0        1        1       
  special bond factors coul:  0        1        1       
     6 = max # of 1-2 neighbors
     3 = max # of special neighbors
  special bonds CPU = 0.000 seconds
create_bonds single/dihedral 5 1440 1441 1442 1443
Finding 1-2 1-3 1-4 neighbors ...
  special bond factors lj:    0        1        1       
  special bond factors coul:  0        1        1       
     6 = max # of 1-2 neighbors
     3 = max # of special neighbors
  special bonds CPU = 0.000 seconds
create_bonds single/dihedral 5 1441 1442 1443 1444
Finding 1-2 1-3 1-4 neighbors ...
  special bond factors lj:    0        1        1       
  special bond factors coul:  0        1        1       
     6 = max # of 1-2 neighbors
     3 = max # of special neighbors
  special bonds CPU = 0.000 seconds
create_bonds single/dihedral 5 1442 1443 1444 1445
Finding 1-2 1-3 1-4 neighbors ...
  special bond factors lj:    0        1        1       
  special bond factors coul:  0        1        1       
     6 = max # of 1-2 neighbors
     3 = max # of special neighbors
  special bonds CPU = 0.000 seconds
create_bonds single/dihedral 5 1443 1444 1445 1446
Finding 1-2 1-3 1-4 neighbors ...
  special bond factors lj:    0        1        1       
  special bond factors coul:  0        1        1       
     6 = max # of 1-2 neighbors
     3 = max # of special neighbors
  special bonds CPU = 0.000 seconds
create_bonds single/dihedral 5 1444 1445 1446 1447
Finding 1-2 1-3 1-4 neighbors ...
  special bond factors lj:    0        1        1       
  special bond factors coul:  0        1        1       
     6 = max # of 1-2 neighbors
     3 = max # of special neighbors
  special bonds CPU = 0.000 seconds
create_bonds single/dihedral 5 1445 1446 1447 1448
Finding 1-2 1-3 1-4 neighbors ...
  special bond factors lj:    0        1        1       
  special bond factors coul:  0        1        1       
     6 = max # of 1-2 neighbors
     3 = max # of special neighbors
  special bonds CPU = 0.000 seconds
create_bonds single/dihedral 5 1446 1447 1448 1449
Finding 1-2 1-3 1-4 neighbors ...
  special bond factors lj:    0        1        1       
  special bond factors coul:  0        1        1       
     6 = max # of 1-2 neighbors
     3 = max # of special neighbors
  special bonds CPU = 0.000 seconds
create_bonds single/dihedral 5 1447 1448 1449 1450
Finding 1-2 1-3 1-4 neighbors ...
  special bond factors lj:    0        1        1       
  special bond factors coul:  0        1        1       
     6 = max # of 1-2 neighbors
     3 = max # of special neighbors
  special bonds CPU = 0.000 seconds
create_bonds single/dihedral 5 1448 1449 1450 1451
Finding 1-2 1-3 1-4 neighbors ...
  special bond factors lj:    0        1        1       
  special bond factors coul:  0        1        1       
     6 = max # of 1-2 neighbors
     3 = max # of special neighbors
  special bonds CPU = 0.000 seconds
create_bonds single/dihedral 5 1449 1450 1451 1452
Finding 1-2 1-3 1-4 neighbors ...
  special bond factors lj:    0        1        1       
  special bond factors coul:  0        1        1       
     6 = max # of 1-2 neighbors
     3 = max # of special neighbors
  special bonds CPU = 0.000 seconds
create_bonds single/dihedral 5 1450 1451 1452 11
Finding 1-2 1-3 1-4 neighbors ...
  special bond factors lj:    0        1        1       
  special bond factors coul:  0        1        1       
     6 = max # of 1-2 neighbors
     3 = max # of special neighbors
  special bonds CPU = 0.000 seconds
create_bonds single/dihedral 5 10 1453 1454 1455
Finding 1-2 1-3 1-4 neighbors ...
  special bond factors lj:    0        1        1       
  special bond factors coul:  0        1        1       
     6 = max # of 1-2 neighbors
     3 = max # of special neighbors
  special bonds CPU = 0.000 seconds
create_bonds single/dihedral 5 1454 1455 1456 1457
Finding 1-2 1-3 1-4 neighbors ...
  special bond factors lj:    0        1        1       
  special bond factors coul:  0        1        1       
     6 = max # of 1-2 neighbors
     3 = max # of special neighbors
  special bonds CPU = 0.000 seconds
create_bonds single/dihedral 5 1455 1456 1457 1458
Finding 1-2 1-3 1-4 neighbors ...
  special bond factors lj:    0        1        1       
  special bond factors coul:  0        1        1       
     6 = max # of 1-2 neighbors
     3 = max # of special neighbors
  special bonds CPU = 0.000 seconds
create_bonds single/dihedral 5 1456 1457 1458 1459
Finding 1-2 1-3 1-4 neighbors ...
  special bond factors lj:    0        1        1       
  special bond factors coul:  0        1        1       
     6 = max # of 1-2 neighbors
     3 = max # of special neighbors
  special bonds CPU = 0.000 seconds
create_bonds single/dihedral 5 1457 1458 1459 1460
Finding 1-2 1-3 1-4 neighbors ...
  special bond factors lj:    0        1        1       
  special bond factors coul:  0        1        1       
     6 = max # of 1-2 neighbors
     3 = max # of special neighbors
  special bonds CPU = 0.000 seconds
create_bonds single/dihedral 5 1458 1459 1460 1461
Finding 1-2 1-3 1-4 neighbors ...
  special bond factors lj:    0        1        1       
  special bond factors coul:  0        1        1       
     6 = max # of 1-2 neighbors
     3 = max # of special neighbors
  special bonds CPU = 0.000 seconds
create_bonds single/dihedral 5 1459 1460 1461 1462
Finding 1-2 1-3 1-4 neighbors ...
  special bond factors lj:    0        1        1       
  special bond factors coul:  0        1        1       
     6 = max # of 1-2 neighbors
     3 = max # of special neighbors
  special bonds CPU = 0.000 seconds
create_bonds single/dihedral 5 1460 1461 1462 1463
Finding 1-2 1-3 1-4 neighbors ...
  special bond factors lj:    0        1        1       
  special bond factors coul:  0        1        1       
     6 = max # of 1-2 neighbors
     3 = max # of special neighbors
  special bonds CPU = 0.000 seconds
create_bonds single/dihedral 5 1461 1462 1463 1464
Finding 1-2 1-3 1-4 neighbors ...
  special bond factors lj:    0        1        1       
  special bond factors coul:  0        1        1       
     6 = max # of 1-2 neighbors
     3 = max # of special neighbors
  special bonds CPU = 0.000 seconds
create_bonds single/dihedral 5 1462 1463 1464 1465
Finding 1-2 1-3 1-4 neighbors ...
  special bond factors lj:    0        1        1       
  special bond factors coul:  0        1        1       
     6 = max # of 1-2 neighbors
     3 = max # of special neighbors
  special bonds CPU = 0.000 seconds
create_bonds single/dihedral 5 1463 1464 1465 1466
Finding 1-2 1-3 1-4 neighbors ...
  special bond factors lj:    0        1        1       
  special bond factors coul:  0        1        1       
     6 = max # of 1-2 neighbors
     3 = max # of special neighbors
  special bonds CPU = 0.000 seconds
create_bonds single/dihedral 5 1464 1465 1466 1467
Finding 1-2 1-3 1-4 neighbors ...
  special bond factors lj:    0        1        1       
  special bond fact