ITEM: TIMESTEP
7200000
ITEM: NUMBER OF ATOMS
1970
ITEM: BOX BOUNDS ff ff ff
-6.0000000000000005e-02 6.0000000000000005e-02
-6.0000000000000001e-03 6.0000000000000001e-03
-5.5000000000000000e-02 5.5000000000000000e-02
ITEM: ATOMS id type radius x y z fx fy fz c_bendingE c_stretchingE
384 11 0.001 -0.0508186 -0.00263733 -0.0489938 -3.03763e-13 7.98371e-14 -1.31648e-13 0 2.25664e-17
385 11 0.001 -0.0503195 -0.00183468 -0.0493174 -2.58646e-13 -1.08709e-14 -4.93285e-14 0 9.49786e-15
760 12 0.001 -0.0308183 -0.0026373 -0.0489934 -3.33357e-13 4.19538e-14 -9.01413e-14 0 2.29378e-17
761 12 0.001 -0.0303193 -0.00183463 -0.0493171 -1.80058e-13 5.35568e-14 -6.1499e-14 0 9.41228e-15
1156 14 0.001 -0.0108183 -0.0026373 -0.0489934 -3.01745e-13 4.95627e-14 -9.82218e-14 0 2.29378e-17
1157 14 0.001 -0.0103193 -0.00183463 -0.0493171 -2.04381e-13 4.88767e-14 -5.63476e-14 0 9.41228e-15
1552 16 0.001 0.00918172 -0.0026373 -0.0489934 -3.09116e-13 3.81954e-14 -9.22325e-14 0 2.29378e-17
1553 16 0.001 0.00968068 -0.00183463 -0.0493171 -1.9884e-13 5.59849e-14 -6.03658e-14 0 9.41228e-15
1948 18 0.001 0.0291817 -0.0026373 -0.0489934 -3.44382e-13 3.85796e-14 -8.78511e-14 0 2.29378e-17
1949 18 0.001 0.0296807 -0.00183463 -0.0493171 -1.66384e-13 5.5525e-14 -6.33047e-14 0 9.41228e-15
2 2 0.001 -0.05 -4.31175e-17 -0.05 -2.70458e-06 2.91161e-06 1.99627e-06 0 8.37023e-15
386 11 0.001 -0.050041 -0.000936433 -0.0496544 -8.4326e-14 2.572e-14 -3.77598e-14 0 1.78592e-14
762 12 0.001 -0.0300409 -0.000936389 -0.0496543 -1.10465e-13 -1.36412e-14 -1.26979e-14 0 1.76766e-14
4 4 0.001 -0.03 -4.31175e-17 -0.05 -2.73068e-06 2.97549e-06 1.9799e-06 0 8.27555e-15
6 6 0.001 -0.01 -4.31175e-17 -0.05 -2.73068e-06 2.97549e-06 1.9799e-06 0 8.27555e-15
1158 14 0.001 -0.0100409 -0.000936389 -0.0496543 -1.03319e-13 -1.56702e-14 -1.29503e-14 0 1.76766e-14
8 8 0.001 0.01 -4.31175e-17 -0.05 -2.73068e-06 2.97549e-06 1.9799e-06 0 8.27555e-15
1554 16 0.001 0.0099591 -0.000936389 -0.0496543 -1.06568e-13 -1.92213e-14 -1.09987e-14 0 1.76766e-14
10 10 0.001 0.03 -4.31175e-17 -0.05 -2.73068e-06 2.97549e-06 1.9799e-06 0 8.27555e-15
1950 18 0.001 0.0299591 -0.000936389 -0.0496543 -1.18684e-13 -1.47309e-14 -1.18897e-14 0 1.76766e-14
379 11 0.001 -0.0551854 -0.00378224 -0.0476525 -4.62916e-13 4.48617e-13 -4.09392e-13 0 9.61983e-16
380 11 0.001 -0.0542415 -0.00401278 -0.0478847 -4.86646e-13 3.52932e-13 -3.80321e-13 0 8.32331e-16
381 11 0.001 -0.0532739 -0.00400432 -0.0481331 -5.78255e-13 2.69324e-13 -2.98345e-13 0 5.98805e-16
382 11 0.001 -0.0523432 -0.00375872 -0.0484003 -4.03741e-13 1.99833e-13 -2.73556e-13 0 3.29812e-16
383 11 0.001 -0.0515074 -0.00329284 -0.0486873 -4.29575e-13 9.40791e-14 -1.73337e-13 0 1.12149e-16
755 12 0.001 -0.035185 -0.00378257 -0.047652 -4.46604e-13 4.32496e-13 -3.77379e-13 0 9.68846e-16
756 12 0.001 -0.0342411 -0.00401302 -0.0478843 -5.29706e-13 3.37923e-13 -3.30462e-13 0 8.33878e-16
757 12 0.001 -0.0332735 -0.00400447 -0.0481326 -4.2101e-13 2.52904e-13 -2.97117e-13 0 5.95307e-16
758 12 0.001 -0.0323427 -0.0037588 -0.0483998 -4.64837e-13 1.96365e-13 -2.22916e-13 0 3.23352e-16
759 12 0.001 -0.031507 -0.00329285 -0.0486869 -3.55828e-13 1.01102e-13 -1.59991e-13 0 1.06598e-16
1151 14 0.001 -0.015185 -0.00378257 -0.047652 -4.69273e-13 4.24337e-13 -3.72723e-13 0 9.68846e-16
1152 14 0.001 -0.0142411 -0.00401302 -0.0478843 -4.8311e-13 3.42858e-13 -3.41511e-13 0 8.33878e-16
1153 14 0.001 -0.0132735 -0.00400447 -0.0481326 -4.7829e-13 2.52334e-13 -2.8375e-13 0 5.95307e-16
1154 14 0.001 -0.0123427 -0.0037588 -0.0483998 -4.2581e-13 1.92919e-13 -2.31335e-13 0 3.23352e-16
1155 14 0.001 -0.011507 -0.00329285 -0.0486869 -3.81994e-13 1.01894e-13 -1.54212e-13 0 1.06598e-16
1547 16 0.001 0.004815 -0.00378257 -0.047652 -4.78377e-13 4.25206e-13 -3.71203e-13 0 9.68846e-16
1548 16 0.001 0.00575892 -0.00401302 -0.0478843 -4.8034e-13 3.38594e-13 -3.41955e-13 0 8.33878e-16
1549 16 0.001 0.00672652 -0.00400447 -0.0481326 -4.81704e-13 2.54433e-13 -2.82999e-13 0 5.95307e-16
1550 16 0.001 0.00765727 -0.0037588 -0.0483998 -4.25482e-13 1.91341e-13 -2.30674e-13 0 3.23352e-16
1551 16 0.001 0.00849301 -0.00329285 -0.0486869 -3.77564e-13 1.09353e-13 -1.57997e-13 0 1.06598e-16
1943 18 0.001 0.024815 -0.00378257 -0.047652 -4.86619e-13 4.30918e-13 -3.68492e-13 0 9.68846e-16
1944 18 0.001 0.0257589 -0.00401302 -0.0478843 -4.65203e-13 3.32415e-13 -3.46181e-13 0 8.33878e-16
1945 18 0.001 0.0267265 -0.00400447 -0.0481326 -4.77438e-13 2.5791e-13 -2.83437e-13 0 5.95307e-16
1946 18 0.001 0.0276573 -0.0037588 -0.0483998 -4.46194e-13 1.92394e-13 -2.26644e-13 0 3.23352e-16
1947 18 0.001 0.028493 -0.00329285 -0.0486869 -3.54862e-13 1.05798e-13 -1.61027e-13 0 1.06598e-16
378 11 0.001 -0.0560465 -0.00332602 -0.0474324 -5.16493e-13 5.18693e-13 -3.98767e-13 0 9.57377e-16
754 12 0.001 -0.0360461 -0.00332643 -0.047432 -4.72814e-13 4.76238e-13 -3.78159e-13 0 9.68431e-16
1150 14 0.001 -0.0160461 -0.00332643 -0.047432 -4.55529e-13 4.85305e-13 -3.80044e-13 0 9.68431e-16
1546 16 0.001 0.00395388 -0.00332643 -0.047432 -4.33607e-13 4.87689e-13 -3.83827e-13 0 9.68431e-16
1942 18 0.001 0.0239539 -0.00332643 -0.047432 -4.44085e-13 4.84905e-13 -3.82536e-13 0 9.68431e-16
376 11 0.001 -0.0573136 -0.00185976 -0.0470096 -2.9348e-13 6.15174e-13 -3.44774e-13 0 6.27654e-16
377 11 0.001 -0.0567709 -0.00267178 -0.0472198 -3.98608e-13 5.89744e-13 -3.87406e-13 0 8.30917e-16
753 12 0.001 -0.0367706 -0.00267225 -0.0472195 -3.25226e-13 5.64342e-13 -3.7106e-13 0 8.44263e-16
752 12 0.001 -0.0373134 -0.00186028 -0.0470093 -3.57644e-13 5.84551e-13 -3.15336e-13 0 6.41225e-16
1149 14 0.001 -0.0167706 -0.00267225 -0.0472195 -3.50098e-13 5.60313e-13 -3.68744e-13 0 8.44263e-16
1148 14 0.001 -0.0173134 -0.00186028 -0.0470093 -3.39971e-13 5.83645e-13 -3.16852e-13 0 6.41225e-16
1544 16 0.001 0.00268664 -0.00186028 -0.0470093 -3.0368e-13 5.80988e-13 -3.2165e-13 0 6.41225e-16
1545 16 0.001 0.00322938 -0.00267225 -0.0472195 -3.78477e-13 5.56707e-13 -3.64949e-13 0 8.44263e-16
1941 18 0.001 0.0232294 -0.00267225 -0.0472195 -3.61436e-13 5.63387e-13 -3.66853e-13 0 8.44263e-16
1940 18 0.001 0.0226866 -0.00186028 -0.0470093 -3.16699e-13 5.76393e-13 -3.19898e-13 0 6.41225e-16
375 11 0.001 -0.0576409 -0.00094018 -0.0467969 -2.24698e-13 6.45931e-13 -2.60496e-13 0 4.05721e-16
751 12 0.001 -0.0376408 -0.000940721 -0.0467967 -1.68135e-13 5.94333e-13 -2.56645e-13 0 4.17742e-16
1147 14 0.001 -0.0176408 -0.000940721 -0.0467967 -1.82465e-13 5.95758e-13 -2.57396e-13 0 4.17742e-16
1543 16 0.001 0.0023592 -0.000940721 -0.0467967 -2.18355e-13 6.07775e-13 -2.51884e-13 0 4.17742e-16
1939 18 0.001 0.0223592 -0.000940721 -0.0467967 -2.01458e-13 5.99049e-13 -2.55681e-13 0 4.17742e-16
373 11 0.001 -0.0575848 0.000990924 -0.0463477 1.9824e-14 5.77604e-13 -7.35581e-14 0 8.6334e-17
374 11 0.001 -0.057733 3.00502e-05 -0.0465774 -1.81342e-13 6.32974e-13 -1.82081e-13 0 2.15683e-16
749 12 0.001 -0.0375849 0.000990414 -0.0463476 4.60823e-14 5.67291e-13 -5.84579e-14 0 9.22977e-17
750 12 0.001 -0.037733 2.95117e-05 -0.0465773 -2.05095e-13 5.8999e-13 -1.73996e-13 0 2.24946e-16
1145 14 0.001 -0.0175849 0.000990414 -0.0463476 -2.66269e-14 5.63207e-13 -6.80499e-14 0 9.22977e-17
1146 14 0.001 -0.017733 2.95117e-05 -0.0465773 -1.54525e-13 5.87659e-13 -1.69171e-13 0 2.24946e-16
1541 16 0.001 0.00241507 0.000990414 -0.0463476 -3.53983e-14 5.7241e-13 -6.61e-14 0 9.22977e-17
1542 16 0.001 0.00226698 2.95117e-05 -0.0465773 -1.32552e-13 5.75896e-13 -1.72702e-13 0 2.24946e-16
1937 18 0.001 0.0224151 0.000990414 -0.0463476 -8.48549e-15 5.65513e-13 -6.53188e-14 0 9.22977e-17
1938 18 0.001 0.022267 2.95117e-05 -0.0465773 -1.57481e-13 5.85793e-13 -1.70703e-13 0 2.24946e-16
372 11 0.001 -0.0572062 0.00188315 -0.0461055 3.42987e-14 5.30861e-13 1.0541e-14 0 2.08567e-17
748 12 0.001 -0.0372065 0.00188269 -0.0461055 2.66182e-14 4.81575e-13 1.19814e-14 0 2.36161e-17
1144 14 0.001 -0.0172065 0.00188269 -0.0461055 2.55178e-14 4.93107e-13 1.08924e-14 0 2.36161e-17
1540 16 0.001 0.00279355 0.00188269 -0.0461055 3.58516e-14 4.83037e-13 1.11179e-14 0 2.36161e-17
1936 18 0.001 0.0227935 0.00188269 -0.0461055 1.57509e-14 4.95619e-13 1.03067e-14 0 2.36161e-17
371 11 0.001 -0.0566215 0.00265181 -0.04585 1.16678e-13 4.21284e-13 9.75634e-14 0 2.74433e-18
747 12 0.001 -0.0366218 0.00265143 -0.04585 2.92887e-14 4.2459e-13 8.42577e-14 0 2.90248e-18
1143 14 0.001 -0.0166218 0.00265143 -0.04585 1.35683e-13 4.03709e-13 1.06635e-13 0 2.90248e-18
1539 16 0.001 0.00337818 0.00265143 -0.04585 9.87245e-14 4.16132e-13 9.86075e-14 0 2.90248e-18
1935 18 0.001 0.0233782 0.00265143 -0.04585 1.18924e-13 3.98008e-13 1.01128e-13 0 2.90248e-18
370 11 0.001 -0.0558676 0.00324975 -0.0455816 1.56425e-13 3.60908e-13 1.48022e-13 0 7.36945e-18
369 11 0.001 -0.0549918 0.00364043 -0.0453017 2.89226e-13 2.00674e-13 2.10432e-13 0 1.37687e-17
368 11 0.001 -0.0540489 0.0038001 -0.0450126 1.72976e-13 1.13287e-13 1.69483e-13 0 1.21283e-17
367 11 0.001 -0.053098 0.00371927 -0.0447173 2.72252e-13 -2.50081e-14 1.71056e-13 0 4.89075e-18
745 12 0.001 -0.0349922 0.00364026 -0.0453016 1.73541e-13 2.0218e-13 1.85683e-13 0 1.15975e-17
746 12 0.001 -0.035868 0.00324947 -0.0455816 2.11658e-13 2.97343e-13 1.63535e-13 0 5.84972e-18
744 12 0.001 -0.0340494 0.00380005 -0.0450126 2.65875e-13 1.14314e-13 2.04341e-13 0 1.0226e-17
743 12 0.001 -0.0330984 0.00371935 -0.0447173 1.50859e-13 -2.0629e-14 1.45482e-13 0 3.90812e-18
1142 14 0.001 -0.015868 0.00324947 -0.0455816 1.12832e-13 3.28963e-13 1.42889e-13 0 5.84972e-18
1140 14 0.001 -0.0140494 0.00380005 -0.0450126 2.04501e-13 9.65297e-14 1.87743e-13 0 1.0226e-17
1141 14 0.001 -0.0149922 0.00364026 -0.0453016 2.2584e-13 1.93464e-13 1.9777e-13 0 1.15975e-17
1139 14 0.001 -0.0130984 0.00371935 -0.0447173 2.0968e-13 -3.25112e-15 1.60217e-13 0 3.90812e-18
1538 16 0.001 0.00413204 0.00324947 -0.0455816 1.68526e-13 3.12941e-13 1.575e-13 0 5.84972e-18
1537 16 0.001 0.00500779 0.00364026 -0.0453016 1.9223e-13 2.08618e-13 1.87556e-13 0 1.15975e-17
1536 16 0.001 0.00595061 0.00380005 -0.0450126 2.15333e-13 9.37816e-14 1.91632e-13 0 1.0226e-17
1535 16 0.001 0.00690157 0.00371935 -0.0447173 1.93571e-13 -1.26319e-14 1.56283e-13 0 3.90812e-18
1933 18 0.001 0.0250078 0.00364026 -0.0453016 1.98438e-13 1.91401e-13 1.89912e-13 0 1.15975e-17
1934 18 0.001 0.024132 0.00324947 -0.0455816 1.45256e-13 3.31923e-13 1.5185e-13 0 5.84972e-18
1932 18 0.001 0.0259506 0.00380005 -0.0450126 2.17719e-13 1.04984e-13 1.91823e-13 0 1.0226e-17
1931 18 0.001 0.0269016 0.00371935 -0.0447173 1.9793e-13 -1.77231e-14 1.56608e-13 0 3.90812e-18
361 11 0.001 -0.0501523 -0.000586064 -0.0429782 -1.2834e-13 -4.48317e-13 -2.72451e-13 0 1.81974e-16
737 12 0.001 -0.0301522 -0.000585595 -0.042978 -1.34556e-13 -4.17562e-13 -2.6402e-13 0 1.84753e-16
1133 14 0.001 -0.0101522 -0.000585595 -0.042978 -1.47735e-13 -4.17042e-13 -2.64998e-13 0 1.84753e-16
1529 16 0.001 0.00984776 -0.000585595 -0.042978 -1.45357e-13 -4.16181e-13 -2.65018e-13 0 1.84753e-16
1925 18 0.001 0.0298478 -0.000585595 -0.042978 -1.10419e-13 -4.18217e-13 -2.64067e-13 0 1.84753e-16
362 11 0.001 -0.0501243 0.000373797 -0.0432537 -7.33342e-14 -4.38148e-13 -2.19936e-13 0 1.43425e-16
363 11 0.001 -0.0503355 0.00130833 -0.0435366 3.37365e-14 -4.04105e-13 -1.40203e-13 0 9.35392e-17
738 12 0.001 -0.0301243 0.000374267 -0.0432535 -6.61425e-14 -4.22275e-13 -2.06909e-13 0 1.46304e-16
739 12 0.001 -0.0303357 0.00130877 -0.0435365 3.27612e-14 -3.62034e-13 -1.36449e-13 0 9.62983e-17
1134 14 0.001 -0.0101243 0.000374267 -0.0432535 -3.5938e-14 -4.19755e-13 -2.05714e-13 0 1.46304e-16
1135 14 0.001 -0.0103357 0.00130877 -0.0435365 2.71999e-15 -3.66279e-13 -1.38734e-13 0 9.62983e-17
1530 16 0.001 0.00987567 0.000374267 -0.0432535 -4.40231e-14 -4.21079e-13 -2.05931e-13 0 1.46304e-16
1531 16 0.001 0.00966432 0.00130877 -0.0435365 1.6389e-14 -3.7091e-13 -1.35976e-13 0 9.62983e-17
1926 18 0.001 0.0298757 0.000374267 -0.0432535 -8.55995e-14 -4.23673e-13 -2.07259e-13 0 1.46304e-16
1927 18 0.001 0.0296643 0.00130877 -0.0435365 4.48772e-14 -3.6054e-13 -1.35684e-13 0 9.62983e-17
365 11 0.001 -0.0514065 0.00287207 -0.0441212 1.51955e-13 -2.40425e-13 2.27532e-14 0 1.46519e-17
364 11 0.001 -0.0507722 0.00215886 -0.0438263 1.20524e-13 -3.17195e-13 -5.76943e-14 0 4.66257e-17
740 12 0.001 -0.0307725 0.00215924 -0.0438262 6.15534e-14 -2.92513e-13 -6.02516e-14 0 4.89073e-17
741 12 0.001 -0.0314069 0.00287237 -0.0441211 1.69039e-13 -2.41722e-13 4.02627e-14 0 1.60573e-17
1136 14 0.001 -0.0107725 0.00215924 -0.0438262 9.03331e-14 -2.95939e-13 -5.44718e-14 0 4.89073e-17
1137 14 0.001 -0.0114069 0.00287237 -0.0441211 1.68056e-13 -2.35483e-13 3.93006e-14 0 1.60573e-17
1533 16 0.001 0.00859311 0.00287237 -0.0441211 1.47518e-13 -2.40705e-13 3.52892e-14 0 1.60573e-17
1532 16 0.001 0.00922752 0.00215924 -0.0438262 8.63401e-14 -2.87175e-13 -5.66014e-14 0 4.89073e-17
1928 18 0.001 0.0292275 0.00215924 -0.0438262 5.87565e-14 -2.92807e-13 -5.96414e-14 0 4.89073e-17
1929 18 0.001 0.0285931 0.00287237 -0.0441211 1.66368e-13 -2.38291e-13 3.69941e-14 0 1.60573e-17
366 11 0.001 -0.0521984 0.0034033 -0.0444192 2.17965e-13 -1.41182e-13 1.07912e-13 0 2.21529e-18
742 12 0.001 -0.0321988 0.00340349 -0.0444191 2.15952e-13 -1.27888e-13 1.14556e-13 0 2.44973e-18
1138 14 0.001 -0.0121988 0.00340349 -0.0444191 1.78325e-13 -1.34654e-13 1.05655e-13 0 2.44973e-18
1534 16 0.001 0.00780119 0.00340349 -0.0444191 2.0643e-13 -1.26545e-13 1.11907e-13 0 2.44973e-18
1930 18 0.001 0.0278012 0.00340349 -0.0444191 2.02748e-13 -1.28793e-13 1.1386e-13 0 2.44973e-18
356 11 0.001 -0.0533409 -0.0038029 -0.0416881 -4.41088e-13 -1.5838e-13 -1.76293e-13 0 7.77073e-17
357 11 0.001 -0.0524145 -0.0035257 -0.0419392 -3.85712e-13 -2.3962e-13 -2.46239e-13 0 1.18532e-16
358 11 0.001 -0.0515857 -0.00302848 -0.042192 -3.30461e-13 -3.25305e-13 -2.94278e-13 0 1.59354e-16
732 12 0.001 -0.0333404 -0.00380284 -0.041688 -3.88823e-13 -1.49568e-13 -1.73564e-13 0 8.01163e-17
733 12 0.001 -0.032414 -0.00352552 -0.041939 -3.59732e-13 -2.34709e-13 -2.34734e-13 0 1.21011e-16
734 12 0.001 -0.0315853 -0.00302819 -0.0421918 -3.4462e-13 -2.97452e-13 -2.80684e-13 0 1.61838e-16
1128 14 0.001 -0.0133404 -0.00380284 -0.041688 -3.571e-13 -1.56925e-13 -1.81182e-13 0 8.01163e-17
1129 14 0.001 -0.012414 -0.00352552 -0.041939 -3.86905e-13 -2.31963e-13 -2.28858e-13 0 1.21011e-16
1130 14 0.001 -0.0115853 -0.00302819 -0.0421918 -3.21212e-13 -2.94483e-13 -2.85378e-13 0 1.61838e-16
1524 16 0.001 0.00665962 -0.00380284 -0.041688 -3.70162e-13 -1.48173e-13 -1.78389e-13 0 8.01163e-17
1525 16 0.001 0.00758596 -0.00352552 -0.041939 -3.70938e-13 -2.37424e-13 -2.3188e-13 0 1.21011e-16
1526 16 0.001 0.00841467 -0.00302819 -0.0421918 -3.35402e-13 -2.94554e-13 -2.8267e-13 0 1.61838e-16
1920 18 0.001 0.0266596 -0.00380284 -0.041688 -3.77608e-13 -1.58437e-13 -1.76266e-13 0 8.01163e-17
1921 18 0.001 0.027586 -0.00352552 -0.041939 -3.71667e-13 -2.29924e-13 -2.32766e-13 0 1.21011e-16
1922 18 0.001 0.0284147 -0.00302819 -0.0421918 -3.10112e-13 -2.96878e-13 -2.86374e-13 0 1.61838e-16
359 11 0.001 -0.0509062 -0.00234249 -0.0424484 -3.28679e-13 -3.86206e-13 -3.06955e-13 0 1.89285e-16
360 11 0.001 -0.0504184 -0.0015109 -0.04271 -2.12522e-13 -4.38707e-13 -3.07212e-13 0 1.98377e-16
735 12 0.001 -0.0309059 -0.00234212 -0.0424482 -2.65452e-13 -3.75335e-13 -2.99746e-13 0 1.91798e-16
736 12 0.001 -0.0304182 -0.00151046 -0.0427099 -2.2035e-13 -4.0144e-13 -2.98289e-13 0 2.00997e-16
1131 14 0.001 -0.0109059 -0.00234212 -0.0424482 -2.84674e-13 -3.80139e-13 -2.95648e-13 0 1.91798e-16
1132 14 0.001 -0.0104182 -0.00151046 -0.0427099 -2.17133e-13 -4.03521e-13 -2.98102e-13 0 2.00997e-16
1527 16 0.001 0.00909406 -0.00234212 -0.0424482 -2.76146e-13 -3.77339e-13 -2.97639e-13 0 1.91798e-16
1528 16 0.001 0.00958182 -0.00151046 -0.0427099 -2.18655e-13 -4.05373e-13 -2.97532e-13 0 2.00997e-16
1923 18 0.001 0.0290941 -0.00234212 -0.0424482 -3.06746e-13 -3.80337e-13 -2.92324e-13 0 1.91798e-16
1924 18 0.001 0.0295818 -0.00151046 -0.0427099 -2.18197e-13 -4.00381e-13 -3.00139e-13 0 2.00997e-16
353 11 0.001 -0.0561192 -0.00321542 -0.0409306 -3.16483e-13 9.44356e-14 -6.48452e-15 0 1.12484e-17
355 11 0.001 -0.054307 -0.00384271 -0.0414373 -3.3198e-13 -5.82001e-14 -1.34779e-13 0 4.4824e-17
354 11 0.001 -0.0552528 -0.00364269 -0.0411851 -3.94653e-13 3.60493e-14 -4.92867e-14 0 2.30294e-17
729 12 0.001 -0.0361188 -0.00321573 -0.0409305 -2.88275e-13 1.07223e-13 2.85466e-15 0 1.2839e-17
730 12 0.001 -0.0352523 -0.00364288 -0.041185 -2.83087e-13 2.72538e-14 -5.95233e-14 0 2.49375e-17
731 12 0.001 -0.0343066 -0.00384278 -0.0414371 -3.74966e-13 -6.85843e-14 -1.10011e-13 0 4.70381e-17
1125 14 0.001 -0.0161188 -0.00321573 -0.0409305 -2.95878e-13 1.05574e-13 3.16377e-15 0 1.2839e-17
1126 14 0.001 -0.0152523 -0.00364288 -0.041185 -3.13793e-13 1.93205e-14 -5.30528e-14 0 2.49375e-17
1127 14 0.001 -0.0143066 -0.00384278 -0.0414371 -3.67203e-13 -5.69938e-14 -1.11389e-13 0 4.70381e-17
1521 16 0.001 0.0038812 -0.00321573 -0.0409305 -2.72354e-13 9.53515e-14 -6.30676e-15 0 1.2839e-17
1523 16 0.001 0.00569344 -0.00384278 -0.0414371 -3.70279e-13 -6.25991e-14 -1.11458e-13 0 4.70381e-17
1522 16 0.001 0.00474767 -0.00364288 -0.041185 -3.13739e-13 2.39604e-14 -5.04287e-14 0 2.49375e-17
1917 18 0.001 0.0238812 -0.00321573 -0.0409305 -2.94706e-13 9.98855e-14 1.75918e-15 0 1.2839e-17
1918 18 0.001 0.0247477 -0.00364288 -0.041185 -3.04144e-13 1.93404e-14 -5.58146e-14 0 2.49375e-17
1919 18 0.001 0.0256934 -0.00384278 -0.0414371 -3.73739e-13 -5.60154e-14 -1.09432e-13 0 4.70381e-17
351 11 0.001 -0.057407 -0.00179868 -0.0404124 -1.29586e-13 1.91494e-13 3.28823e-14 0 6.05566e-18
352 11 0.001 -0.0568524 -0.00258768 -0.0406731 -1.57345e-13 2.26184e-13 1.98537e-14 0 6.42427e-18
727 12 0.001 -0.0374068 -0.00179916 -0.0404122 -1.46328e-14 2.19598e-13 2.64863e-14 0 7.61199e-18
728 12 0.001 -0.0368521 -0.00258808 -0.040673 -2.54242e-13 1.57316e-13 4.36928e-14 0 7.84398e-18
1123 14 0.001 -0.0174068 -0.00179916 -0.0404122 -1.33049e-13 2.11395e-13 3.71122e-14 0 7.61199e-18
1124 14 0.001 -0.0168521 -0.00258808 -0.040673 -1.79925e-13 1.65102e-13 3.48592e-14 0 7.84398e-18
1519 16 0.001 0.00259322 -0.00179916 -0.0404122 -1.18848e-13 2.12943e-13 3.46305e-14 0 7.61199e-18
1520 16 0.001 0.00314788 -0.00258808 -0.040673 -2.06467e-13 1.72013e-13 4.29679e-14 0 7.84398e-18
1915 18 0.001 0.0225932 -0.00179916 -0.0404122 -1.63939e-13 2.0466e-13 3.88419e-14 0 7.61199e-18
1916 18 0.001 0.0231479 -0.00258808 -0.040673 -1.63266e-13 1.75578e-13 3.50006e-14 0 7.84398e-18
350 11 0.001 -0.0577485 -0.000897677 -0.0401486 -1.39037e-13 3.20627e-13 3.72764e-14 0 9.76204e-18
726 12 0.001 -0.0377484 -0.000898205 -0.0401485 -1.30389e-13 2.42308e-13 4.97321e-14 0 1.18673e-17
1122 14 0.001 -0.0177484 -0.000898205 -0.0401485 -2.18926e-14 2.47851e-13 4.45749e-14 0 1.18673e-17
1518 16 0.001 0.00225158 -0.000898205 -0.0401485 -2.54673e-14 2.44745e-13 4.45573e-14 0 1.18673e-17
1914 18 0.001 0.0222516 -0.000898205 -0.0401485 1.28932e-15 2.47319e-13 4.28698e-14 0 1.18673e-17
348 11 0.001 -0.0577226 0.00101226 -0.0396142 8.2628e-14 2.95062e-13 -4.70355e-14 0 3.69838e-17
349 11 0.001 -0.0578559 5.9178e-05 -0.0398824 2.1214e-13 2.76462e-13 -2.31517e-16 0 1.92632e-17
724 12 0.001 -0.0377228 0.00101174 -0.0396141 9.31787e-14 2.87481e-13 -2.61288e-14 0 4.13504e-17
725 12 0.001 -0.037856 5.86343e-05 -0.0398822 1.4594e-13 2.81188e-13 1.69531e-15 0 2.23375e-17
1120 14 0.001 -0.0177228 0.00101174 -0.0396141 1.625e-13 2.95228e-13 -1.91826e-14 0 4.13504e-17
1121 14 0.001 -0.017856 5.86343e-05 -0.0398822 6.30411e-14 2.77674e-13 4.9794e-16 0 2.23375e-17
1516 16 0.001 0.00227719 0.00101174 -0.0396141 1.67357e-13 2.87094e-13 -1.94754e-14 0 4.13504e-17
1517 16 0.001 0.00214405 5.86343e-05 -0.0398822 6.38703e-14 2.83938e-13 1.65665e-15 0 2.23375e-17
1912 18 0.001 0.0222772 0.00101174 -0.0396141 1.62548e-13 2.79905e-13 -2.35914e-14 0 4.13504e-17
1913 18 0.001 0.022144 5.86343e-05 -0.0398822 5.76431e-14 2.83771e-13 2.61141e-15 0 2.23375e-17
347 11 0.001 -0.0573571 0.00190219 -0.0393451 2.41457e-13 2.80316e-13 -9.32108e-14 0 6.41171e-17
346 11 0.001 -0.0567821 0.00267346 -0.0390757 3.95971e-13 2.20508e-13 -1.34481e-13 0 9.9156e-17
722 12 0.001 -0.0367825 0.00267307 -0.0390756 2.68843e-13 2.24676e-13 -1.38195e-13 0 1.06346e-16
723 12 0.001 -0.0373574 0.00190171 -0.0393449 3.01145e-13 2.19024e-13 -8.76578e-14 0 6.99236e-17
1118 14 0.001 -0.0167825 0.00267307 -0.0390756 3.22781e-13 1.99914e-13 -1.33467e-13 0 1.06346e-16
1119 14 0.001 -0.0173574 0.00190171 -0.0393449 2.42742e-13 2.27004e-13 -9.38357e-14 0 6.99236e-17
1515 16 0.001 0.0026426 0.00190171 -0.0393449 2.26558e-13 2.20892e-13 -9.86784e-14 0 6.99236e-17
1514 16 0.001 0.00321745 0.00267307 -0.0390756 3.30936e-13 2.1533e-13 -1.28052e-13 0 1.06346e-16
1910 18 0.001 0.0232175 0.00267307 -0.0390756 3.2354e-13 2.02466e-13 -1.34784e-13 0 1.06346e-16
1911 18 0.001 0.0226426 0.00190171 -0.0393449 2.3488e-13 2.38992e-13 -9.05625e-14 0 6.99236e-17
345 11 0.001 -0.0560336 0.00327796 -0.0388068 3.83595e-13 1.87286e-13 -1.86167e-13 0 1.37615e-16
344 11 0.001 -0.0551583 0.00367789 -0.0385388 4.53097e-13 7.6793e-14 -2.15924e-13 0 1.73077e-16
721 12 0.001 -0.0360341 0.00327767 -0.0388066 4.21289e-13 1.45576e-13 -1.69884e-13 0 1.45949e-16
720 12 0.001 -0.0351588 0.00367772 -0.0385386 4.00526e-13 8.10215e-14 -2.12232e-13 0 1.82199e-16
1117 14 0.001 -0.0160341 0.00327767 -0.0388066 3.81525e-13 1.54924e-13 -1.75422e-13 0 1.45949e-16
1116 14 0.001 -0.0151588 0.00367772 -0.0385386 4.01878e-13 9.29597e-14 -2.12325e-13 0 1.82199e-16
1513 16 0.001 0.00396588 0.00327767 -0.0388066 3.8158e-13 1.50296e-13 -1.77538e-13 0 1.45949e-16
1512 16 0.001 0.00484118 0.00367772 -0.0385386 4.13562e-13 8.35737e-14 -2.0929e-13 0 1.82199e-16
1909 18 0.001 0.0239659 0.00327767 -0.0388066 3.96198e-13 1.50787e-13 -1.72598e-13 0 1.45949e-16
1908 18 0.001 0.0248412 0.00367772 -0.0385386 3.91624e-13 8.66377e-14 -2.14309e-13 0 1.82199e-16
338 11 0.001 -0.0504138 0.00139402 -0.0369534 2.4923e-13 -2.6263e-13 -8.22477e-14 0 1.38553e-16
714 12 0.001 -0.030414 0.00139454 -0.0369533 1.90989e-13 -2.5068e-13 -6.89522e-14 0 1.46122e-16
1110 14 0.001 -0.010414 0.00139454 -0.0369533 1.91526e-13 -2.47522e-13 -7.1709e-14 0 1.46122e-16
1506 16 0.001 0.009586 0.00139454 -0.0369533 1.92707e-13 -2.47526e-13 -7.12044e-14 0 1.46122e-16
1902 18 0.001 0.029586 0.00139454 -0.0369533 2.30957e-13 -2.51434e-13 -6.53805e-14 0 1.46122e-16
340 11 0.001 -0.0515273 0.00294903 -0.0374789 3.89173e-13 -2.02965e-13 -1.63192e-13 0 1.91931e-16
339 11 0.001 -0.0508727 0.00224161 -0.0372161 2.7972e-13 -2.68697e-13 -1.19716e-13 0 1.6697e-16
716 12 0.001 -0.0315278 0.00294939 -0.0374788 3.55531e-13 -1.8849e-13 -1.57397e-13 0 2.00721e-16
715 12 0.001 -0.0308731 0.00224206 -0.037216 2.85221e-13 -2.53402e-13 -1.09807e-13 0 1.7517e-16
1111 14 0.001 -0.0108731 0.00224206 -0.037216 2.92632e-13 -2.40431e-13 -1.10238e-13 0 1.7517e-16
1112 14 0.001 -0.0115278 0.00294939 -0.0374788 3.36013e-13 -2.06254e-13 -1.58866e-13 0 2.00721e-16
1508 16 0.001 0.00847225 0.00294939 -0.0374788 3.42883e-13 -1.97042e-13 -1.58992e-13 0 2.00721e-16
1507 16 0.001 0.00912695 0.00224206 -0.037216 2.84778e-13 -2.46243e-13 -1.10402e-13 0 1.7517e-16
1904 18 0.001 0.0284722 0.00294939 -0.0374788 3.44429e-13 -1.81624e-13 -1.61411e-13 0 2.00721e-16
1903 18 0.001 0.0291269 0.00224206 -0.037216 2.59846e-13 -2.51128e-13 -1.13833e-13 0 1.7517e-16
343 11 0.001 -0.0542107 0.00384821 -0.038272 4.5001e-13 2.06152e-14 -2.3196e-13 0 1.99107e-16
342 11 0.001 -0.0532502 0.00377818 -0.0380066 4.66733e-13 -7.43481e-14 -2.2061e-13 0 2.11226e-16
341 11 0.001 -0.0523367 0.0034721 -0.0377423 4.11241e-13 -1.46669e-13 -2.02559e-13 0 2.08155e-16
719 12 0.001 -0.0342113 0.00384818 -0.0382719 4.36689e-13 1.22663e-14 -2.19107e-13 0 2.0862e-16
718 12 0.001 -0.0332507 0.00377829 -0.0380064 4.36638e-13 -5.96345e-14 -2.14824e-13 0 2.20761e-16
717 12 0.001 -0.0323372 0.00347234 -0.0377422 3.82551e-13 -1.41562e-13 -1.95193e-13 0 2.17419e-16
1115 14 0.001 -0.0142113 0.00384818 -0.0382719 4.52348e-13 -7.81192e-16 -2.15479e-13 0 2.0862e-16
1113 14 0.001 -0.0123372 0.00347234 -0.0377422 4.13543e-13 -1.30238e-13 -1.89039e-13 0 2.17419e-16
1114 14 0.001 -0.0132507 0.00377829 -0.0380064 4.16267e-13 -6.1516e-14 -2.19397e-13 0 2.20761e-16
1511 16 0.001 0.0057887 0.00384818 -0.0382719 4.40884e-13 1.15328e-14 -2.17984e-13 0 2.0862e-16
1510 16 0.001 0.00674926 0.00377829 -0.0380064 4.15438e-13 -6.21159e-14 -2.20139e-13 0 2.20761e-16
1509 16 0.001 0.00766281 0.00347234 -0.0377422 4.14122e-13 -1.39223e-13 -1.87728e-13 0 2.17419e-16
1907 18 0.001 0.0257887 0.00384818 -0.0382719 4.54593e-13 1.18921e-14 -2.15289e-13 0 2.0862e-16
1906 18 0.001 0.0267493 0.00377829 -0.0380064 4.06049e-13 -6.22053e-14 -2.22146e-13 0 2.20761e-16
1905 18 0.001 0.0276628 0.00347234 -0.0377422 4.25866e-13 -1.49237e-13 -1.83699e-13 0 2.17419e-16
333 11 0.001 -0.0515538 -0.00298018 -0.0356325 -1.49712e-13 -1.66614e-13 -7.33645e-15 0 5.71835e-17
334 11 0.001 -0.0508931 -0.00227951 -0.0358981 -2.33347e-13 -2.13981e-13 3.46723e-14 0 6.1642e-17
709 12 0.001 -0.0315533 -0.00297982 -0.0356323 -2.12189e-13 -1.28249e-13 1.99442e-14 0 6.30389e-17
710 12 0.001 -0.0308927 -0.00227906 -0.0358979 -1.27582e-13 -2.03012e-13 2.11801e-14 0 6.74762e-17
1105 14 0.001 -0.0115533 -0.00297982 -0.0356323 -1.57386e-13 -1.41004e-13 1.1237e-14 0 6.30389e-17
1106 14 0.001 -0.0108927 -0.00227906 -0.0358979 -1.50742e-13 -1.97077e-13 2.4703e-14 0 6.74762e-17
1501 16 0.001 0.0084467 -0.00297982 -0.0356323 -1.72825e-13 -1.37714e-13 1.41628e-14 0 6.30389e-17
1502 16 0.001 0.0091073 -0.00227906 -0.0358979 -1.43404e-13 -1.95277e-13 2.28911e-14 0 6.74762e-17
1897 18 0.001 0.0284467 -0.00297982 -0.0356323 -1.86853e-13 -1.24933e-13 1.54489e-14 0 6.30389e-17
1898 18 0.001 0.0291073 -0.00227906 -0.0358979 -1.43155e-13 -2.09947e-13 2.52295e-14 0 6.74762e-17
335 11 0.001 -0.0504266 -0.00143674 -0.036163 -4.24482e-14 -2.62708e-13 1.54948e-14 0 7.20137e-17
336 11 0.001 -0.0501836 -0.000504434 -0.0364271 1.0713e-13 -2.72244e-13 -1.45275e-14 0 8.86859e-17
711 12 0.001 -0.0304264 -0.00143621 -0.0361628 -7.44185e-15 -2.38457e-13 1.62415e-14 0 7.80531e-17
712 12 0.001 -0.0301835 -0.000503871 -0.036427 -2.03122e-14 -2.66463e-13 1.44035e-14 0 9.51181e-17
1107 14 0.001 -0.0104264 -0.00143621 -0.0361628 -3.13451e-14 -2.40998e-13 1.82901e-14 0 7.80531e-17
1108 14 0.001 -0.0101835 -0.000503871 -0.036427 1.90697e-14 -2.70297e-13 1.33945e-14 0 9.51181e-17
1503 16 0.001 0.00957362 -0.00143621 -0.0361628 -3.3446e-14 -2.4315e-13 1.9095e-14 0 7.80531e-17
1504 16 0.001 0.0098165 -0.000503871 -0.036427 1.5624e-14 -2.69912e-13 1.31323e-14 0 9.51181e-17
1899 18 0.001 0.0295736 -0.00143621 -0.0361628 -3.14576e-14 -2.33089e-13 1.57851e-14 0 7.80531e-17
1900 18 0.001 0.0298165 -0.000503871 -0.036427 4.19718e-14 -2.70297e-13 1.37776e-14 0 9.51181e-17
337 11 0.001 -0.0501792 0.000459207 -0.0366905 4.27926e-14 -3.31923e-13 -2.00373e-14 0 1.11384e-16
713 12 0.001 -0.0301793 0.00045977 -0.0366904 1.49418e-13 -2.7049e-13 -3.55107e-14 0 1.18345e-16
1109 14 0.001 -0.0101793 0.00045977 -0.0366904 1.26392e-13 -2.713e-13 -3.39847e-14 0 1.18345e-16
1505 16 0.001 0.00982073 0.00045977 -0.0366904 1.32158e-13 -2.69601e-13 -3.43483e-14 0 1.18345e-16
1901 18 0.001 0.0298207 0.00045977 -0.0366904 9.06223e-14 -2.6822e-13 -3.70455e-14 0 1.18345e-16
328 11 0.001 -0.056062 -0.00326384 -0.0343008 -2.29641e-13 2.40225e-13 -1.71958e-13 0 1.04209e-16
329 11 0.001 -0.0551901 -0.00367263 -0.0345668 -3.40615e-13 1.65516e-13 -1.22957e-13 0 8.79771e-17
330 11 0.001 -0.0542442 -0.00385239 -0.0348332 -3.14225e-13 7.33849e-14 -9.50018e-14 0 7.4138e-17
331 11 0.001 -0.0532834 -0.00379193 -0.0350998 -3.06072e-13 1.71353e-14 -5.61495e-14 0 6.39214e-17
332 11 0.001 -0.0523675 -0.00349502 -0.0353663 -2.43293e-13 -8.07934e-14 -2.72916e-14 0 5.81016e-17
704 12 0.001 -0.0360615 -0.0032642 -0.0343006 -2.06986e-13 2.2896e-13 -1.63057e-13 0 1.13137e-16
705 12 0.001 -0.0351896 -0.00367285 -0.0345666 -2.84718e-13 1.5526e-13 -1.26345e-13 0 9.60671e-17
706 12 0.001 -0.0342436 -0.00385246 -0.0348331 -2.79649e-13 6.4992e-14 -8.99028e-14 0 8.14303e-17
707 12 0.001 -0.0332828 -0.00379185 -0.0350997 -2.89754e-13 1.92435e-14 -4.54527e-14 0 7.05345e-17
708 12 0.001 -0.0323669 -0.00349479 -0.0353662 -2.21744e-13 -8.37589e-14 -2.43007e-14 0 6.42212e-17
1100 14 0.001 -0.0160615 -0.0032642 -0.0343006 -2.55534e-13 2.16523e-13 -1.56344e-13 0 1.13137e-16
1101 14 0.001 -0.0151896 -0.00367285 -0.0345666 -3.01803e-13 1.55634e-13 -1.19215e-13 0 9.60671e-17
1102 14 0.001 -0.0142436 -0.00385246 -0.0348331 -2.69695e-13 9.0574e-14 -9.26937e-14 0 8.14303e-17
1104 14 0.001 -0.0123669 -0.00349479 -0.0353662 -2.65422e-13 -6.47463e-14 -1.69617e-14 0 6.42212e-17
1103 14 0.001 -0.0132828 -0.00379185 -0.0350997 -2.68405e-13 -5.36247e-15 -4.99318e-14 0 7.05345e-17
1496 16 0.001 0.00393853 -0.0032642 -0.0343006 -2.53688e-13 2.22728e-13 -1.54155e-13 0 1.13137e-16
1497 16 0.001 0.00481045 -0.00367285 -0.0345666 -2.8893e-13 1.52144e-13 -1.24687e-13 0 9.60671e-17
1498 16 0.001 0.00575637 -0.00385246 -0.0348331 -2.81127e-13 8.51898e-14 -8.83833e-14 0 8.14303e-17
1499 16 0.001 0.00671725 -0.00379185 -0.0350997 -2.68436e-13 5.80368e-15 -5.10855e-14 0 7.05345e-17
1500 16 0.001 0.00763308 -0.00349479 -0.0353662 -2.52429e-13 -7.41774e-14 -1.88807e-14 0 6.42212e-17
1892 18 0.001 0.0239385 -0.0032642 -0.0343006 -2.6418e-13 2.18305e-13 -1.52819e-13 0 1.13137e-16
1893 18 0.001 0.0248104 -0.00367285 -0.0345666 -2.83896e-13 1.56301e-13 -1.24766e-13 0 9.60671e-17
1894 18 0.001 0.0257564 -0.00385246 -0.0348331 -2.61482e-13 8.49852e-14 -9.50786e-14 0 8.14303e-17
1895 18 0.001 0.0267172 -0.00379185 -0.0350997 -3.00134e-13 3.52734e-15 -4.12841e-14 0 7.05345e-17
1896 18 0.001 0.0276331 -0.00349479 -0.0353662 -2.32703e-13 -8.09904e-14 -2.36283e-14 0 6.42212e-17
327 11 0.001 -0.0568054 -0.00265152 -0.0340353 -2.66983e-13 2.91829e-13 -1.72725e-13 0 1.21162e-16
703 12 0.001 -0.0368049 -0.00265201 -0.0340351 -2.91939e-13 2.86863e-13 -1.54934e-13 0 1.30893e-16
1099 14 0.001 -0.0168049 -0.00265201 -0.0340351 -2.13074e-13 2.89245e-13 -1.69271e-13 0 1.30893e-16