ITEM: TIMESTEP
7800000
ITEM: NUMBER OF ATOMS
1970
ITEM: BOX BOUNDS ff ff ff
-6.0000000000000005e-02 6.0000000000000005e-02
-6.0000000000000001e-03 6.0000000000000001e-03
-5.5000000000000000e-02 5.5000000000000000e-02
ITEM: ATOMS id type radius x y z fx fy fz c_bendingE c_stretchingE
384 11 0.001 -0.0508155 -0.00263896 -0.0489955 -1.90019e-13 8.07635e-14 -8.50465e-14 0 2.02105e-17
385 11 0.001 -0.0503174 -0.00183562 -0.0493189 -2.11556e-13 5.10991e-15 -2.07502e-14 0 9.71868e-15
760 12 0.001 -0.030815 -0.0026389 -0.048995 -2.06197e-13 7.60116e-14 -6.11164e-14 0 2.00745e-17
761 12 0.001 -0.0303171 -0.00183553 -0.0493185 -1.99262e-13 9.66283e-15 -1.10121e-14 0 9.61379e-15
1156 14 0.001 -0.010815 -0.0026389 -0.048995 -2.22253e-13 7.11957e-14 -5.90903e-14 0 2.00745e-17
1157 14 0.001 -0.0103171 -0.00183553 -0.0493185 -1.69631e-13 1.13028e-14 -1.35755e-14 0 9.61379e-15
1552 16 0.001 0.00918501 -0.0026389 -0.048995 -2.19565e-13 7.39448e-14 -6.009e-14 0 2.00745e-17
1553 16 0.001 0.00968295 -0.00183553 -0.0493185 -1.76561e-13 1.03291e-14 -1.2715e-14 0 9.61379e-15
1948 18 0.001 0.029185 -0.0026389 -0.048995 -2.26254e-13 7.14198e-14 -5.78623e-14 0 2.00745e-17
1949 18 0.001 0.0296829 -0.00183553 -0.0493185 -1.75133e-13 9.1176e-15 -1.30717e-14 0 9.61379e-15
2 2 0.001 -0.05 -4.31175e-17 -0.05 -2.4998e-06 2.66829e-06 1.94934e-06 0 8.66463e-15
386 11 0.001 -0.0500399 -0.000936821 -0.0496553 -7.84959e-14 -3.58164e-14 7.01793e-15 0 1.83778e-14
762 12 0.001 -0.0300397 -0.000936755 -0.0496551 -5.70123e-14 1.58974e-14 -8.71072e-15 0 1.8154e-14
4 4 0.001 -0.03 -4.31175e-17 -0.05 -2.5332e-06 2.74629e-06 1.93091e-06 0 8.54794e-15
6 6 0.001 -0.01 -4.31175e-17 -0.05 -2.5332e-06 2.74629e-06 1.93091e-06 0 8.54794e-15
1158 14 0.001 -0.0100397 -0.000936755 -0.0496551 -7.83351e-14 1.59733e-14 -7.74034e-15 0 1.8154e-14
8 8 0.001 0.01 -4.31175e-17 -0.05 -2.5332e-06 2.74629e-06 1.93091e-06 0 8.54794e-15
1554 16 0.001 0.00996026 -0.000936755 -0.0496551 -7.40592e-14 1.70018e-14 -8.376e-15 0 1.8154e-14
10 10 0.001 0.03 -4.31175e-17 -0.05 -2.5332e-06 2.74629e-06 1.93091e-06 0 8.54794e-15
1950 18 0.001 0.0299603 -0.000936755 -0.0496551 -6.78566e-14 1.85789e-14 -8.93517e-15 0 1.8154e-14
379 11 0.001 -0.0551802 -0.00378857 -0.0476512 -3.96075e-13 3.52189e-13 -2.98205e-13 0 8.62369e-16
380 11 0.001 -0.0542362 -0.00401812 -0.0478843 -4.24074e-13 2.98099e-13 -2.66315e-13 0 7.48067e-16
381 11 0.001 -0.0532688 -0.00400865 -0.0481335 -3.79817e-13 2.16588e-13 -2.23157e-13 0 5.4166e-16
382 11 0.001 -0.0523385 -0.00376208 -0.0484014 -3.46588e-13 1.65659e-13 -1.76499e-13 0 3.02912e-16
383 11 0.001 -0.0515034 -0.00329528 -0.0486889 -3.59923e-13 9.34368e-14 -1.03521e-13 0 1.07039e-16
755 12 0.001 -0.0351795 -0.00378908 -0.0476506 -3.99833e-13 3.39567e-13 -2.73082e-13 0 8.71406e-16
756 12 0.001 -0.0342355 -0.0040185 -0.0478836 -3.70196e-13 2.72059e-13 -2.48592e-13 0 7.50957e-16
757 12 0.001 -0.0332681 -0.0040089 -0.0481328 -3.66856e-13 2.1465e-13 -1.99942e-13 0 5.38535e-16
758 12 0.001 -0.0323379 -0.00376219 -0.0484007 -3.49008e-13 1.65172e-13 -1.49567e-13 0 2.96004e-16
759 12 0.001 -0.0315028 -0.00329529 -0.0486883 -2.99221e-13 7.52298e-14 -9.13536e-14 0 1.0067e-16
1151 14 0.001 -0.0151795 -0.00378908 -0.0476506 -3.62869e-13 3.48883e-13 -2.79623e-13 0 8.71406e-16
1152 14 0.001 -0.0142355 -0.0040185 -0.0478836 -3.96149e-13 2.73201e-13 -2.43811e-13 0 7.50957e-16
1153 14 0.001 -0.0132681 -0.0040089 -0.0481328 -3.7833e-13 2.1611e-13 -1.96392e-13 0 5.38535e-16
1154 14 0.001 -0.0123379 -0.00376219 -0.0484007 -3.19564e-13 1.58664e-13 -1.56623e-13 0 2.96004e-16
1155 14 0.001 -0.0115028 -0.00329529 -0.0486883 -3.07194e-13 8.33776e-14 -8.99178e-14 0 1.0067e-16
1547 16 0.001 0.00482052 -0.00378908 -0.0476506 -3.77216e-13 3.47972e-13 -2.75594e-13 0 8.71406e-16
1548 16 0.001 0.00576449 -0.0040185 -0.0478836 -3.81051e-13 2.7293e-13 -2.47925e-13 0 7.50957e-16
1549 16 0.001 0.00673187 -0.0040089 -0.0481328 -3.66847e-13 2.16178e-13 -1.99039e-13 0 5.38535e-16
1550 16 0.001 0.00766214 -0.00376219 -0.0484007 -3.42726e-13 1.58107e-13 -1.51254e-13 0 2.96004e-16
1551 16 0.001 0.00849719 -0.00329529 -0.0486883 -2.99469e-13 8.11375e-14 -9.08748e-14 0 1.0067e-16
1943 18 0.001 0.0248205 -0.00378908 -0.0476506 -3.9684e-13 3.46574e-13 -2.70801e-13 0 8.71406e-16
1944 18 0.001 0.0257645 -0.0040185 -0.0478836 -3.5032e-13 2.75036e-13 -2.55549e-13 0 7.50957e-16
1945 18 0.001 0.0267319 -0.0040089 -0.0481328 -3.86618e-13 2.12042e-13 -1.94168e-13 0 5.38536e-16
1946 18 0.001 0.0276621 -0.00376219 -0.0484007 -3.30049e-13 1.60529e-13 -1.53732e-13 0 2.96004e-16
1947 18 0.001 0.0284972 -0.00329529 -0.0486883 -3.03797e-13 8.21957e-14 -9.09098e-14 0 1.0067e-16
378 11 0.001 -0.0560415 -0.00333324 -0.0474305 -3.62325e-13 4.24951e-13 -3.14419e-13 0 8.57566e-16
754 12 0.001 -0.0360409 -0.00333388 -0.0474299 -3.14072e-13 4.09762e-13 -2.97418e-13 0 8.71297e-16
1150 14 0.001 -0.0160409 -0.00333388 -0.0474299 -3.54462e-13 3.91002e-13 -2.91229e-13 0 8.71297e-16
1546 16 0.001 0.00395907 -0.00333388 -0.0474299 -3.43463e-13 3.96785e-13 -2.93692e-13 0 8.71297e-16
1942 18 0.001 0.0239591 -0.00333388 -0.0474299 -3.37851e-13 4.00065e-13 -2.94847e-13 0 8.71297e-16
376 11 0.001 -0.0573099 -0.00186824 -0.0470071 -2.84439e-13 4.92456e-13 -2.68815e-13 0 5.61605e-16
377 11 0.001 -0.0567665 -0.00267974 -0.0472174 -3.17859e-13 4.7234e-13 -2.98228e-13 0 7.44116e-16
753 12 0.001 -0.036766 -0.00268047 -0.0472169 -3.3118e-13 4.28934e-13 -2.81116e-13 0 7.60246e-16
752 12 0.001 -0.0373095 -0.00186905 -0.0470067 -2.31048e-13 4.80147e-13 -2.54896e-13 0 5.77708e-16
1149 14 0.001 -0.016766 -0.00268047 -0.0472169 -2.88256e-13 4.47339e-13 -2.85319e-13 0 7.60246e-16
1148 14 0.001 -0.0173095 -0.00186905 -0.0470067 -2.75763e-13 4.69281e-13 -2.52623e-13 0 5.77708e-16
1544 16 0.001 0.00269047 -0.00186905 -0.0470067 -2.42887e-13 4.75428e-13 -2.54293e-13 0 5.77708e-16
1545 16 0.001 0.00323399 -0.00268047 -0.0472169 -3.0812e-13 4.37987e-13 -2.83383e-13 0 7.60246e-16
1941 18 0.001 0.023234 -0.00268047 -0.0472169 -3.15459e-13 4.39141e-13 -2.81719e-13 0 7.60246e-16
1940 18 0.001 0.0226905 -0.00186905 -0.0470067 -2.49566e-13 4.68039e-13 -2.56327e-13 0 5.77708e-16
375 11 0.001 -0.057638 -0.000948911 -0.0467947 -1.47759e-13 5.06343e-13 -2.16575e-13 0 3.61851e-16
751 12 0.001 -0.0376379 -0.000949751 -0.0467944 -2.05566e-13 4.68844e-13 -2.09281e-13 0 3.759e-16
1147 14 0.001 -0.0176379 -0.000949751 -0.0467944 -1.46528e-13 4.68939e-13 -2.09561e-13 0 3.759e-16
1543 16 0.001 0.00236212 -0.000949751 -0.0467944 -1.852e-13 4.68364e-13 -2.08763e-13 0 3.759e-16
1939 18 0.001 0.0223621 -0.000949751 -0.0467944 -1.45533e-13 4.73464e-13 -2.07312e-13 0 3.759e-16
373 11 0.001 -0.0575837 0.000982571 -0.0463468 3.4951e-15 4.56347e-13 -6.67225e-14 0 7.43828e-17
374 11 0.001 -0.0577311 2.13599e-05 -0.0465757 -1.59347e-13 5.18961e-13 -1.42089e-13 0 1.90578e-16
749 12 0.001 -0.0375839 0.000981779 -0.0463467 -1.50477e-13 4.33096e-13 -8.38205e-14 0 8.10968e-17
750 12 0.001 -0.0377311 2.05238e-05 -0.0465755 -3.73955e-14 4.92818e-13 -1.2389e-13 0 2.01238e-16
1145 14 0.001 -0.0175839 0.000981779 -0.0463467 -3.60845e-14 4.22681e-13 -7.307e-14 0 8.10968e-17
1146 14 0.001 -0.0177311 2.05238e-05 -0.0465755 -1.33395e-13 4.9836e-13 -1.29191e-13 0 2.01238e-16
1541 16 0.001 0.00241608 0.000981779 -0.0463467 -5.18808e-14 4.23546e-13 -7.44707e-14 0 8.10968e-17
1542 16 0.001 0.00226893 2.05238e-05 -0.0465755 -1.05201e-13 4.969e-13 -1.28725e-13 0 2.01238e-16
1937 18 0.001 0.0224161 0.000981779 -0.0463467 -2.1664e-14 4.21908e-13 -7.2865e-14 0 8.10968e-17
1938 18 0.001 0.0222689 2.05238e-05 -0.0465755 -1.58315e-13 4.99895e-13 -1.30357e-13 0 2.01238e-16
372 11 0.001 -0.0572059 0.00187541 -0.0461057 2.17598e-14 4.42679e-13 1.84338e-14 0 1.67348e-17
748 12 0.001 -0.0372063 0.0018747 -0.0461057 7.88106e-14 3.99282e-13 2.95994e-14 0 1.96645e-17
1144 14 0.001 -0.0172063 0.0018747 -0.0461057 1.81803e-14 4.17799e-13 2.48765e-14 0 1.96645e-17
1540 16 0.001 0.0027937 0.0018747 -0.0461057 2.43946e-14 4.20829e-13 2.62019e-14 0 1.96645e-17
1936 18 0.001 0.0227937 0.0018747 -0.0461057 3.09154e-14 4.16876e-13 2.79819e-14 0 1.96645e-17
371 11 0.001 -0.0566219 0.00264492 -0.0458513 1.46103e-14 3.37417e-13 5.90465e-14 0 2.81717e-18
747 12 0.001 -0.0366224 0.00264433 -0.0458513 6.09962e-14 3.41265e-13 7.49917e-14 0 2.68481e-18
1143 14 0.001 -0.0166224 0.00264433 -0.0458513 5.34522e-14 3.2794e-13 6.97367e-14 0 2.68481e-18
1539 16 0.001 0.00337765 0.00264433 -0.0458513 6.00962e-14 3.21443e-13 7.05253e-14 0 2.68481e-18
1935 18 0.001 0.0233776 0.00264433 -0.0458513 3.52253e-14 3.24423e-13 6.49405e-14 0 2.68481e-18
370 11 0.001 -0.0558684 0.00324389 -0.0455839 1.93083e-13 2.71982e-13 1.52766e-13 0 9.78613e-18
369 11 0.001 -0.0549928 0.00363573 -0.0453048 9.46651e-14 1.91886e-13 1.45887e-13 0 1.76348e-17
368 11 0.001 -0.0540501 0.00379663 -0.0450162 2.21002e-13 8.94839e-14 1.87136e-13 0 1.6466e-17
367 11 0.001 -0.0530989 0.00371706 -0.0447212 1.16464e-13 2.39412e-15 1.32609e-13 0 8.03546e-18
745 12 0.001 -0.0349935 0.00363547 -0.0453048 7.98386e-14 1.8257e-13 1.46565e-13 0 1.47038e-17
746 12 0.001 -0.035869 0.00324345 -0.0455839 1.12303e-13 2.56122e-13 1.34435e-13 0 7.66221e-18
744 12 0.001 -0.0340508 0.00379655 -0.0450162 1.98712e-13 6.96958e-14 1.82179e-13 0 1.38022e-17
743 12 0.001 -0.0330997 0.00371716 -0.0447211 1.62943e-13 2.44996e-15 1.54471e-13 0 6.42431e-18
1142 14 0.001 -0.015869 0.00324345 -0.0455839 1.1599e-13 2.52955e-13 1.35148e-13 0 7.66221e-18
1140 14 0.001 -0.0140508 0.00379655 -0.0450162 1.584e-13 8.04455e-14 1.71152e-13 0 1.38022e-17
1141 14 0.001 -0.0149935 0.00363547 -0.0453048 1.179e-13 1.83876e-13 1.57329e-13 0 1.47038e-17
1139 14 0.001 -0.0130997 0.00371716 -0.0447211 1.60335e-13 -4.87838e-15 1.52382e-13 0 6.42431e-18
1538 16 0.001 0.00413101 0.00324345 -0.0455839 1.06737e-13 2.60231e-13 1.3388e-13 0 7.66221e-18
1537 16 0.001 0.00500647 0.00363547 -0.0453048 1.27332e-13 1.81054e-13 1.59482e-13 0 1.47038e-17
1536 16 0.001 0.00594923 0.00379655 -0.0450162 1.49317e-13 8.15623e-14 1.68501e-13 0 1.38022e-17
1535 16 0.001 0.00690035 0.00371716 -0.0447211 1.65529e-13 -1.12913e-14 1.5463e-13 0 6.42431e-18
1933 18 0.001 0.0250065 0.00363547 -0.0453048 1.3676e-13 1.7042e-13 1.62023e-13 0 1.47038e-17
1934 18 0.001 0.024131 0.00324345 -0.0455839 1.13011e-13 2.61862e-13 1.35174e-13 0 7.66221e-18
1932 18 0.001 0.0259492 0.00379655 -0.0450162 1.58489e-13 9.40177e-14 1.71258e-13 0 1.38022e-17
1931 18 0.001 0.0269003 0.00371716 -0.0447211 1.46979e-13 -1.68299e-14 1.49134e-13 0 6.42431e-18
361 11 0.001 -0.0501492 -0.000583309 -0.0429768 -2.04774e-13 -3.62224e-13 -2.14832e-13 0 1.62037e-16
737 12 0.001 -0.0301491 -0.000582596 -0.0429765 -1.46616e-13 -3.25475e-13 -2.13407e-13 0 1.65449e-16
1133 14 0.001 -0.0101491 -0.000582596 -0.0429765 -1.22691e-13 -3.31211e-13 -2.1059e-13 0 1.65449e-16
1529 16 0.001 0.00985093 -0.000582596 -0.0429765 -1.1981e-13 -3.21676e-13 -2.1465e-13 0 1.65449e-16
1925 18 0.001 0.0298509 -0.000582596 -0.0429765 -1.01666e-13 -3.18307e-13 -2.14124e-13 0 1.65449e-16
362 11 0.001 -0.050122 0.00037624 -0.0432534 1.90359e-14 -3.17333e-13 -1.68156e-13 0 1.23247e-16
363 11 0.001 -0.0503341 0.00131021 -0.0435376 -5.557e-14 -3.26215e-13 -1.02345e-13 0 7.62978e-17
738 12 0.001 -0.0301221 0.000376955 -0.0432532 -5.31903e-14 -3.17648e-13 -1.61266e-13 0 1.26682e-16
739 12 0.001 -0.0303344 0.00131088 -0.0435374 3.27564e-14 -2.83736e-13 -8.81207e-14 0 7.94573e-17
1134 14 0.001 -0.0101221 0.000376955 -0.0432532 -7.74946e-14 -3.1078e-13 -1.6313e-13 0 1.26682e-16
1135 14 0.001 -0.0103344 0.00131088 -0.0435374 1.72657e-14 -2.72984e-13 -9.76603e-14 0 7.94573e-17
1530 16 0.001 0.00987787 0.000376955 -0.0432532 -7.0646e-14 -3.12121e-13 -1.61531e-13 0 1.26682e-16
1531 16 0.001 0.00966559 0.00131088 -0.0435374 9.11188e-15 -2.69427e-13 -9.95128e-14 0 7.94573e-17
1926 18 0.001 0.0298779 0.000376955 -0.0432532 -8.18315e-14 -3.1694e-13 -1.61106e-13 0 1.26682e-16
1927 18 0.001 0.0296656 0.00131088 -0.0435374 -2.28897e-15 -2.71117e-13 -1.01585e-13 0 7.94573e-17
365 11 0.001 -0.0514066 0.00287218 -0.0441242 1.11626e-13 -2.10342e-13 5.04544e-14 0 9.00658e-18
364 11 0.001 -0.0507716 0.00215995 -0.0438284 9.02692e-14 -2.0759e-13 -3.35766e-14 0 3.47497e-17
740 12 0.001 -0.0307721 0.00216052 -0.0438282 1.69134e-14 -2.45834e-13 -3.0068e-14 0 3.71988e-17
741 12 0.001 -0.0314072 0.00287262 -0.0441241 1.02281e-13 -1.41625e-13 4.24392e-14 0 1.02986e-17
1136 14 0.001 -0.0107721 0.00216052 -0.0438282 5.72609e-14 -2.62465e-13 -1.42134e-14 0 3.71988e-17
1137 14 0.001 -0.0114072 0.00287262 -0.0441241 8.51119e-14 -1.44756e-13 3.59214e-14 0 1.02986e-17
1533 16 0.001 0.00859281 0.00287262 -0.0441241 9.03464e-14 -1.55182e-13 3.9106e-14 0 1.02986e-17
1532 16 0.001 0.00922794 0.00216052 -0.0438282 5.73436e-14 -2.60731e-13 -1.46926e-14 0 3.71988e-17
1928 18 0.001 0.0292279 0.00216052 -0.0438282 8.58779e-14 -2.58336e-13 -9.21974e-15 0 3.71988e-17
1929 18 0.001 0.0285928 0.00287262 -0.0441241 7.32699e-14 -1.58253e-13 3.53981e-14 0 1.02986e-17
366 11 0.001 -0.052199 0.00340229 -0.0444228 1.63097e-13 -8.78766e-14 1.0856e-13 0 1.95915e-18
742 12 0.001 -0.0321997 0.00340258 -0.0444227 9.44404e-14 -8.61515e-14 9.51e-14 0 1.79718e-18
1138 14 0.001 -0.0121997 0.00340258 -0.0444227 1.09797e-13 -8.19644e-14 1.01183e-13 0 1.79718e-18
1534 16 0.001 0.00780034 0.00340258 -0.0444227 1.03911e-13 -7.02073e-14 9.77099e-14 0 1.79718e-18
1930 18 0.001 0.0278003 0.00340258 -0.0444227 1.12049e-13 -6.65724e-14 1.00117e-13 0 1.79718e-18
356 11 0.001 -0.053335 -0.00380208 -0.0416848 -3.54725e-13 -1.15718e-13 -1.56257e-13 0 7.52329e-17
357 11 0.001 -0.0524087 -0.00352416 -0.0419355 -2.4886e-13 -2.24132e-13 -2.26764e-13 0 1.14269e-16
358 11 0.001 -0.0515803 -0.00302633 -0.0421884 -3.69063e-13 -2.30831e-13 -2.32841e-13 0 1.51685e-16
732 12 0.001 -0.0333343 -0.00380198 -0.0416846 -2.9383e-13 -1.18012e-13 -1.6066e-13 0 7.81127e-17
733 12 0.001 -0.0324081 -0.00352388 -0.0419353 -3.06735e-13 -1.88219e-13 -2.01867e-13 0 1.17276e-16
734 12 0.001 -0.0315798 -0.00302589 -0.0421882 -2.95821e-13 -2.44735e-13 -2.33579e-13 0 1.54743e-16
1128 14 0.001 -0.0133343 -0.00380198 -0.0416846 -3.00233e-13 -1.13583e-13 -1.60214e-13 0 7.81127e-17
1129 14 0.001 -0.0124081 -0.00352388 -0.0419353 -3.04105e-13 -1.90741e-13 -2.02541e-13 0 1.17276e-16
1130 14 0.001 -0.0115798 -0.00302589 -0.0421882 -2.70557e-13 -2.4133e-13 -2.39147e-13 0 1.54743e-16
1524 16 0.001 0.00666573 -0.00380198 -0.0416846 -2.89909e-13 -1.12458e-13 -1.62453e-13 0 7.81127e-17
1525 16 0.001 0.00759192 -0.00352388 -0.0419353 -3.16196e-13 -1.88631e-13 -1.9993e-13 0 1.17276e-16
1526 16 0.001 0.00842022 -0.00302589 -0.0421882 -2.59227e-13 -2.40993e-13 -2.41567e-13 0 1.54743e-16
1920 18 0.001 0.0266657 -0.00380198 -0.0416846 -2.99039e-13 -1.17594e-13 -1.60069e-13 0 7.81127e-17
1921 18 0.001 0.0275919 -0.00352388 -0.0419353 -2.9822e-13 -1.79585e-13 -2.043e-13 0 1.17276e-16
1922 18 0.001 0.0284202 -0.00302589 -0.0421882 -2.70296e-13 -2.44159e-13 -2.39878e-13 0 1.54743e-16
359 11 0.001 -0.0509015 -0.0023399 -0.0424452 -2.10543e-13 -3.23972e-13 -2.64521e-13 0 1.77012e-16
360 11 0.001 -0.0504144 -0.0015081 -0.0427076 -1.553e-13 -3.16339e-13 -2.55816e-13 0 1.81496e-16
735 12 0.001 -0.030901 -0.00233933 -0.042445 -2.11835e-13 -2.91692e-13 -2.55456e-13 0 1.80141e-16
736 12 0.001 -0.0304141 -0.00150743 -0.0427074 -1.79832e-13 -3.08809e-13 -2.43158e-13 0 1.84758e-16
1131 14 0.001 -0.010901 -0.00233933 -0.042445 -2.33828e-13 -2.97192e-13 -2.49544e-13 0 1.80141e-16
1132 14 0.001 -0.0104141 -0.00150743 -0.0427074 -1.82349e-13 -3.03113e-13 -2.46666e-13 0 1.84758e-16
1527 16 0.001 0.00909897 -0.00233933 -0.042445 -2.42133e-13 -2.93938e-13 -2.49458e-13 0 1.80141e-16
1528 16 0.001 0.00958592 -0.00150743 -0.0427074 -1.86298e-13 -3.18953e-13 -2.41264e-13 0 1.84758e-16
1923 18 0.001 0.029099 -0.00233933 -0.042445 -2.32571e-13 -2.98829e-13 -2.48277e-13 0 1.80141e-16
1924 18 0.001 0.0295859 -0.00150743 -0.0427074 -2.00018e-13 -3.1278e-13 -2.43651e-13 0 1.84758e-16
353 11 0.001 -0.0561144 -0.00321676 -0.0409296 -2.25791e-13 6.89819e-14 -2.08071e-15 0 8.95435e-18
355 11 0.001 -0.0543013 -0.00384265 -0.0414345 -2.84012e-13 -3.8763e-14 -1.14429e-13 0 4.28435e-17
354 11 0.001 -0.0552474 -0.00364337 -0.0411832 -3.16518e-13 -2.28394e-15 -5.12853e-14 0 2.09308e-17
729 12 0.001 -0.0361138 -0.00321721 -0.0409294 -1.55754e-13 6.87454e-14 -1.19518e-14 0 1.06461e-17
730 12 0.001 -0.0352467 -0.00364365 -0.041183 -2.86541e-13 2.1936e-14 -4.32909e-14 0 2.31031e-17
731 12 0.001 -0.0343006 -0.00384275 -0.0414343 -2.77298e-13 -7.4647e-14 -1.05482e-13 0 4.54452e-17
1125 14 0.001 -0.0161138 -0.00321721 -0.0409294 -2.11263e-13 5.94444e-14 -2.00569e-15 0 1.06461e-17
1126 14 0.001 -0.0152467 -0.00364365 -0.041183 -2.69551e-13 1.33984e-14 -4.96478e-14 0 2.31031e-17
1127 14 0.001 -0.0143006 -0.00384275 -0.0414343 -2.92718e-13 -6.64982e-14 -9.89597e-14 0 4.54452e-17
1521 16 0.001 0.00388618 -0.00321721 -0.0409294 -2.03992e-13 6.59357e-14 -5.25249e-15 0 1.06461e-17
1523 16 0.001 0.00569944 -0.00384275 -0.0414343 -2.97728e-13 -6.61311e-14 -9.84647e-14 0 4.54452e-17
1522 16 0.001 0.00475328 -0.00364365 -0.041183 -2.66901e-13 6.6319e-15 -4.92624e-14 0 2.31031e-17
1917 18 0.001 0.0238862 -0.00321721 -0.0409294 -2.07931e-13 5.98693e-14 -3.64122e-15 0 1.06461e-17
1918 18 0.001 0.0247533 -0.00364365 -0.041183 -2.50216e-13 1.74576e-14 -5.31887e-14 0 2.31031e-17
1919 18 0.001 0.0256994 -0.00384275 -0.0414343 -3.11142e-13 -7.25486e-14 -9.54279e-14 0 4.54452e-17
351 11 0.001 -0.0574039 -0.00180092 -0.0404132 -4.3107e-14 1.67225e-13 4.1456e-14 0 2.74565e-18
352 11 0.001 -0.0568484 -0.00258954 -0.0406731 -1.9366e-13 1.27489e-13 1.82908e-14 0 3.89158e-18
727 12 0.001 -0.0374036 -0.00180164 -0.0404129 -3.51367e-15 1.31729e-13 3.0159e-14 0 4.05877e-18
728 12 0.001 -0.036848 -0.00259014 -0.0406728 -2.83121e-13 1.18706e-13 5.2514e-14 0 5.23041e-18
1123 14 0.001 -0.0174036 -0.00180164 -0.0404129 -7.26513e-14 1.32213e-13 4.01043e-14 0 4.05877e-18
1124 14 0.001 -0.016848 -0.00259014 -0.0406728 -1.77477e-13 1.25254e-13 3.58339e-14 0 5.23041e-18
1519 16 0.001 0.00259641 -0.00180164 -0.0404129 -8.87137e-14 1.40726e-13 4.26632e-14 0 4.05877e-18
1520 16 0.001 0.00315204 -0.00259014 -0.0406728 -1.79281e-13 1.21118e-13 3.77907e-14 0 5.23041e-18
1915 18 0.001 0.0225964 -0.00180164 -0.0404129 -7.7781e-14 1.46241e-13 4.2927e-14 0 4.05877e-18
1916 18 0.001 0.023152 -0.00259014 -0.0406728 -1.85637e-13 1.18513e-13 3.71359e-14 0 5.23041e-18
350 11 0.001 -0.0577464 -0.000900111 -0.04015 -1.00087e-13 2.14218e-13 4.92514e-14 0 4.39878e-18
726 12 0.001 -0.0377463 -0.000900899 -0.0401498 -5.51638e-14 1.99239e-13 5.28078e-14 0 6.16331e-18
1122 14 0.001 -0.0177463 -0.000900899 -0.0401498 -4.86395e-14 1.98992e-13 5.17032e-14 0 6.16331e-18
1518 16 0.001 0.0022537 -0.000900899 -0.0401498 -2.86642e-14 1.91933e-13 4.89166e-14 0 6.16331e-18
1914 18 0.001 0.0222537 -0.000900899 -0.0401498 -3.84859e-14 1.90914e-13 4.93973e-14 0 6.16332e-18
348 11 0.001 -0.0577227 0.00100999 -0.0396161 7.64825e-14 1.74143e-13 -1.7936e-14 0 2.21313e-17
349 11 0.001 -0.0578549 5.6732e-05 -0.0398841 9.52199e-14 2.21667e-13 2.22615e-14 0 1.00369e-17
724 12 0.001 -0.0377229 0.00100921 -0.0396159 9.23678e-14 1.87234e-13 -1.21293e-14 0 2.62844e-17
725 12 0.001 -0.037855 5.59199e-05 -0.0398839 5.52282e-14 1.82192e-13 2.72277e-14 0 1.27749e-17
1120 14 0.001 -0.0177229 0.00100921 -0.0396159 1.17277e-13 1.8584e-13 -1.00818e-14 0 2.62844e-17
1121 14 0.001 -0.017855 5.59199e-05 -0.0398839 5.17897e-14 1.84846e-13 2.64557e-14 0 1.27749e-17
1516 16 0.001 0.00227707 0.00100921 -0.0396159 1.13379e-13 1.87678e-13 -1.01696e-14 0 2.62844e-17
1517 16 0.001 0.00214505 5.59199e-05 -0.0398839 4.35854e-14 1.86285e-13 2.72584e-14 0 1.27749e-17
1912 18 0.001 0.0222771 0.00100921 -0.0396159 9.64532e-14 1.87111e-13 -1.17365e-14 0 2.62844e-17
1913 18 0.001 0.022145 5.59199e-05 -0.0398839 5.47162e-14 1.83442e-13 2.69353e-14 0 1.27749e-17
347 11 0.001 -0.0573581 0.00190028 -0.0393468 2.31997e-13 2.32385e-13 -4.59456e-14 0 4.26269e-17
346 11 0.001 -0.0567841 0.00267209 -0.0390771 2.68069e-13 1.40283e-13 -9.41265e-14 0 7.12839e-17
722 12 0.001 -0.0367847 0.00267149 -0.0390768 2.77129e-13 1.41952e-13 -8.74904e-14 0 7.87936e-17
723 12 0.001 -0.0373586 0.00189957 -0.0393466 2.0482e-13 1.94671e-13 -3.9242e-14 0 4.84506e-17
1118 14 0.001 -0.0167847 0.00267149 -0.0390768 2.30682e-13 1.39003e-13 -9.76469e-14 0 7.87936e-17
1119 14 0.001 -0.0173586 0.00189957 -0.0393466 2.06424e-13 2.00238e-13 -3.63168e-14 0 4.84506e-17
1515 16 0.001 0.00264142 0.00189957 -0.0393466 2.0447e-13 1.95117e-13 -3.8232e-14 0 4.84506e-17
1514 16 0.001 0.00321533 0.00267149 -0.0390768 2.46605e-13 1.40007e-13 -9.39428e-14 0 7.87936e-17
1910 18 0.001 0.0232153 0.00267149 -0.0390768 2.58103e-13 1.42979e-13 -9.11649e-14 0 7.87936e-17
1911 18 0.001 0.0226414 0.00189957 -0.0393466 2.08665e-13 1.94876e-13 -3.82823e-14 0 4.84506e-17
345 11 0.001 -0.0560363 0.00327727 -0.0388076 2.98009e-13 1.2528e-13 -1.40556e-13 0 1.04978e-16
344 11 0.001 -0.0551615 0.00367799 -0.0385389 3.59254e-13 4.34027e-14 -1.6592e-13 0 1.38273e-16
721 12 0.001 -0.036037 0.00327683 -0.0388073 2.61321e-13 9.8058e-14 -1.39512e-13 0 1.13957e-16
720 12 0.001 -0.0351623 0.00367774 -0.0385387 3.34362e-13 5.45063e-14 -1.59343e-13 0 1.48337e-16
1117 14 0.001 -0.016037 0.00327683 -0.0388073 2.9045e-13 8.37754e-14 -1.35577e-13 0 1.13957e-16
1116 14 0.001 -0.0151623 0.00367774 -0.0385387 3.51691e-13 6.96643e-14 -1.53183e-13 0 1.48337e-16
1513 16 0.001 0.00396296 0.00327683 -0.0388073 2.85944e-13 9.42973e-14 -1.34966e-13 0 1.13957e-16
1512 16 0.001 0.00483768 0.00367774 -0.0385387 3.3993e-13 5.71254e-14 -1.5712e-13 0 1.48337e-16
1909 18 0.001 0.023963 0.00327683 -0.0388073 2.86918e-13 9.41402e-14 -1.33911e-13 0 1.13957e-16
1908 18 0.001 0.0248377 0.00367774 -0.0385387 3.05378e-13 5.76234e-14 -1.67288e-13 0 1.48337e-16
338 11 0.001 -0.0504157 0.00139827 -0.0369518 2.58545e-13 -2.55397e-13 -6.16327e-14 0 1.2386e-16
714 12 0.001 -0.030416 0.00139904 -0.0369516 1.51648e-13 -2.18157e-13 -7.45956e-14 0 1.32508e-16
1110 14 0.001 -0.010416 0.00139904 -0.0369516 1.70379e-13 -2.12903e-13 -7.36948e-14 0 1.32508e-16
1506 16 0.001 0.00958404 0.00139904 -0.0369516 1.7874e-13 -2.16058e-13 -7.26257e-14 0 1.32508e-16
1902 18 0.001 0.029584 0.00139904 -0.0369516 1.27191e-13 -2.18278e-13 -7.56034e-14 0 1.32508e-16
340 11 0.001 -0.0515305 0.00295239 -0.0374772 3.31107e-13 -1.72545e-13 -1.37257e-13 0 1.70258e-16
339 11 0.001 -0.0508753 0.00224552 -0.0372144 1.93496e-13 -1.88297e-13 -1.24201e-13 0 1.49384e-16
716 12 0.001 -0.0315311 0.00295292 -0.037477 2.58873e-13 -1.43855e-13 -1.52937e-13 0 1.80364e-16
715 12 0.001 -0.0308758 0.00224618 -0.0372141 2.44145e-13 -1.96825e-13 -9.89801e-14 0 1.58803e-16
1111 14 0.001 -0.0108758 0.00224618 -0.0372141 2.31747e-13 -1.9992e-13 -1.01425e-13 0 1.58803e-16
1112 14 0.001 -0.0115311 0.00295292 -0.037477 2.73578e-13 -1.51456e-13 -1.47349e-13 0 1.80364e-16
1508 16 0.001 0.0084689 0.00295292 -0.037477 2.75236e-13 -1.49594e-13 -1.46513e-13 0 1.80364e-16
1507 16 0.001 0.00912422 0.00224618 -0.0372141 2.29586e-13 -1.97544e-13 -1.02285e-13 0 1.58803e-16
1904 18 0.001 0.0284689 0.00295292 -0.037477 2.66993e-13 -1.47779e-13 -1.48556e-13 0 1.80364e-16
1903 18 0.001 0.0291242 0.00224618 -0.0372141 2.46802e-13 -1.95232e-13 -1.01191e-13 0 1.58803e-16
343 11 0.001 -0.0542143 0.00384917 -0.0382715 3.60478e-13 -4.80316e-15 -1.83845e-13 0 1.65017e-16
342 11 0.001 -0.0532538 0.00378002 -0.0380055 3.65799e-13 -4.71767e-14 -1.87204e-13 0 1.80256e-16
341 11 0.001 -0.0523402 0.00347476 -0.0377408 3.03839e-13 -1.39504e-13 -1.79874e-13 0 1.81708e-16
719 12 0.001 -0.0342151 0.00384912 -0.0382713 3.39427e-13 -8.72047e-15 -1.81742e-13 0 1.75699e-16
718 12 0.001 -0.0332547 0.00378017 -0.0380053 3.65116e-13 -6.20438e-14 -1.73985e-13 0 1.91097e-16
717 12 0.001 -0.032341 0.00347511 -0.0377406 3.13608e-13 -1.25325e-13 -1.65897e-13 0 1.92323e-16
1115 14 0.001 -0.0142151 0.00384912 -0.0382713 3.34829e-13 -1.04487e-14 -1.8277e-13 0 1.75699e-16
1113 14 0.001 -0.012341 0.00347511 -0.0377406 3.25632e-13 -1.18743e-13 -1.64074e-13 0 1.92323e-16
1114 14 0.001 -0.0132547 0.00378017 -0.0380053 3.33242e-13 -6.4699e-14 -1.82448e-13 0 1.91097e-16
1511 16 0.001 0.00578485 0.00384912 -0.0382713 3.39049e-13 -4.39618e-15 -1.81975e-13 0 1.75699e-16
1510 16 0.001 0.00674532 0.00378017 -0.0380053 3.3737e-13 -6.36314e-14 -1.80871e-13 0 1.91097e-16
1509 16 0.001 0.00765905 0.00347511 -0.0377406 3.21836e-13 -1.24309e-13 -1.65178e-13 0 1.92323e-16
1907 18 0.001 0.0257849 0.00384912 -0.0382713 3.83977e-13 -1.08064e-14 -1.68443e-13 0 1.75699e-16
1906 18 0.001 0.0267453 0.00378017 -0.0380053 3.18643e-13 -5.61228e-14 -1.87029e-13 0 1.91097e-16
1905 18 0.001 0.027659 0.00347511 -0.0377406 3.30307e-13 -1.28584e-13 -1.62436e-13 0 1.92323e-16
333 11 0.001 -0.051552 -0.00297746 -0.0356328 -7.99667e-14 -1.24555e-13 1.17543e-14 0 4.22353e-17
334 11 0.001 -0.0508918 -0.00227612 -0.035898 -1.86605e-13 -1.71506e-13 3.62169e-14 0 4.81022e-17
709 12 0.001 -0.0315513 -0.00297694 -0.0356326 -1.37713e-13 -1.22785e-13 2.03118e-14 0 4.83012e-17
710 12 0.001 -0.0308913 -0.00227545 -0.0358978 -4.2352e-14 -1.37599e-13 1.64236e-14 0 5.4296e-17
1105 14 0.001 -0.0115513 -0.00297694 -0.0356326 -1.37934e-13 -1.03365e-13 1.92463e-14 0 4.83012e-17
1106 14 0.001 -0.0108913 -0.00227545 -0.0358978 -9.43672e-14 -1.50364e-13 2.54551e-14 0 5.4296e-17
1501 16 0.001 0.00844873 -0.00297694 -0.0356326 -1.24959e-13 -1.05694e-13 1.6688e-14 0 4.83012e-17
1502 16 0.001 0.0091087 -0.00227545 -0.0358978 -8.67711e-14 -1.52261e-13 2.51898e-14 0 5.4296e-17
1897 18 0.001 0.0284487 -0.00297694 -0.0356326 -1.259e-13 -1.05412e-13 1.57023e-14 0 4.83012e-17
1898 18 0.001 0.0291087 -0.00227545 -0.0358978 -5.13218e-14 -1.44324e-13 1.87244e-14 0 5.4296e-17
335 11 0.001 -0.0504261 -0.00143282 -0.0361625 7.75072e-15 -1.9567e-13 1.01451e-14 0 5.93045e-17
336 11 0.001 -0.0501838 -0.00050018 -0.0364262 9.13052e-14 -2.40768e-13 -2.37083e-15 0 7.61936e-17
711 12 0.001 -0.0304257 -0.00143204 -0.0361623 -8.10568e-14 -1.9991e-13 3.59097e-14 0 6.58809e-17
712 12 0.001 -0.0301837 -0.000499355 -0.036426 5.59514e-14 -2.26344e-13 -5.19429e-15 0 8.33507e-17
1107 14 0.001 -0.0104257 -0.00143204 -0.0361623 -1.72513e-14 -1.9515e-13 2.7415e-14 0 6.58809e-17
1108 14 0.001 -0.0101837 -0.000499355 -0.036426 3.68252e-14 -2.1971e-13 -3.79813e-15 0 8.33507e-17
1503 16 0.001 0.00957426 -0.00143204 -0.0361623 -3.77771e-14 -1.87144e-13 2.784e-14 0 6.58809e-17
1504 16 0.001 0.00981628 -0.000499355 -0.036426 5.59862e-14 -2.29081e-13 -2.85403e-15 0 8.33507e-17
1899 18 0.001 0.0295743 -0.00143204 -0.0361623 -6.63837e-14 -2.00772e-13 3.49724e-14 0 6.58809e-17
1900 18 0.001 0.0298163 -0.000499355 -0.036426 3.06649e-14 -2.21854e-13 -5.64397e-15 0 8.33507e-17
337 11 0.001 -0.0501803 0.000463574 -0.0366892 1.06273e-14 -2.1932e-13 -3.98775e-14 0 9.83206e-17
713 12 0.001 -0.0301804 0.000464399 -0.036689 1.15416e-13 -2.13618e-13 -2.49815e-14 0 1.06191e-16
1109 14 0.001 -0.0101804 0.000464399 -0.036689 9.7451e-14 -2.18904e-13 -2.53089e-14 0 1.06191e-16
1505 16 0.001 0.00981963 0.000464399 -0.036689 8.27561e-14 -2.131e-13 -2.66467e-14 0 1.06191e-16
1901 18 0.001 0.0298196 0.000464399 -0.036689 1.46394e-13 -2.14765e-13 -2.39874e-14 0 1.06191e-16
328 11 0.001 -0.0560599 -0.00326547 -0.0343011 -1.12735e-13 2.11819e-13 -1.36325e-13 0 7.57336e-17
329 11 0.001 -0.0551877 -0.00367342 -0.0345674 -2.20529e-13 1.12134e-13 -9.10798e-14 0 6.22646e-17
330 11 0.001 -0.0542417 -0.00385229 -0.0348339 -3.02887e-13 5.80164e-14 -4.09413e-14 0 5.1536e-17
331 11 0.001 -0.0532809 -0.00379091 -0.0351005 -1.5288e-13 2.19485e-14 -3.79884e-14 0 4.43469e-17
332 11 0.001 -0.0523652 -0.00349311 -0.0353669 -2.2322e-13 -6.16502e-14 4.37826e-15 0 4.1135e-17
704 12 0.001 -0.0360591 -0.003266 -0.0343008 -1.78814e-13 1.9464e-13 -1.09532e-13 0 8.4986e-17
705 12 0.001 -0.0351868 -0.00367374 -0.0345671 -1.53275e-13 1.25386e-13 -1.01865e-13 0 7.05364e-17
706 12 0.001 -0.0342408 -0.00385239 -0.0348337 -2.76299e-13 5.61782e-14 -3.54506e-14 0 5.89193e-17
707 12 0.001 -0.03328 -0.00379079 -0.0351003 -1.73083e-13 -1.03142e-14 -3.14396e-14 0 5.10251e-17
708 12 0.001 -0.0323644 -0.00349278 -0.0353666 -1.74757e-13 -1.95808e-14 7.50369e-15 0 4.73619e-17
1100 14 0.001 -0.0160591 -0.003266 -0.0343008 -1.93167e-13 2.05746e-13 -1.06001e-13 0 8.4986e-17
1101 14 0.001 -0.0151868 -0.00367374 -0.0345671 -1.9487e-13 1.10389e-13 -9.22409e-14 0 7.05364e-17
1102 14 0.001 -0.0142408 -0.00385239 -0.0348337 -2.36149e-13 7.64551e-14 -4.4803e-14 0 5.89193e-17
1104 14 0.001 -0.0123644 -0.00349278 -0.0353666 -1.55423e-13 -4.49114e-14 5.57686e-15 0 4.73619e-17
1103 14 0.001 -0.01328 -0.00379079 -0.0351003 -1.94995e-13 -6.23578e-15 -2.73235e-14 0 5.10251e-17
1496 16 0.001 0.00394089 -0.003266 -0.0343008 -2.12804e-13 2.00445e-13 -1.02848e-13 0 8.4986e-17
1497 16 0.001 0.00481315 -0.00367374 -0.0345671 -1.75343e-13 1.18643e-13 -9.58212e-14 0 7.05364e-17
1498 16 0.001 0.00575922 -0.00385239 -0.0348337 -2.59451e-13 6.4153e-14 -3.92783e-14 0 5.89193e-17
1499 16 0.001 0.00672003 -0.00379079 -0.0351003 -1.68126e-13 6.57561e-15 -3.44264e-14 0 5.10251e-17
1500 16 0.001 0.00763558 -0.00349278 -0.0353666 -1.79482e-13 -4.85741e-14 1.11612e-14 0 4.73619e-17
1892 18 0.001 0.0239409 -0.003266 -0.0343008 -2.24407e-13 1.9266e-13 -1.00973e-13 0 8.4986e-17
1893 18 0.001 0.0248132 -0.00367374 -0.0345671 -1.77649e-13 1.2979e-13 -9.35635e-14 0 7.05364e-17
1894 18 0.001 0.0257592 -0.00385239 -0.0348337 -2.26379e-13 6.23795e-14 -4.98973e-14 0 5.89193e-17
1895 18 0.001 0.02672 -0.00379079 -0.0351003 -1.91383e-13 -6.33071e-15 -2.62765e-14 0 5.10251e-17
1896 18 0.001 0.0276356 -0.00349278 -0.0353666 -1.88125e-13 -3.94106e-14 1.22218e-14 0 4.73619e-17
327 11 0.001 -0.0568037 -0.00265388 -0.0340352 -2.84252e-13 2.22645e-13 -1.18787e-13 0 9.06676e-17
703 12 0.001 -0.0368031 -0.00265458 -0.034035 -2.34833e-13 2.26496e-13 -1.23663e-13 0 1.00896e-16
1099 14 0.001 -0.0168031 -0.00265458 -0.034035 -1.55132e-13 2.03699e-13 -1.4153e-13 0 1.00896e-16