ITEM: TIMESTEP
2300000
ITEM: NUMBER OF ATOMS
1970
ITEM: BOX BOUNDS ff ff ff
-6.0000000000000005e-02 6.0000000000000005e-02
-6.0000000000000001e-03 6.0000000000000001e-03
-5.5000000000000000e-02 5.5000000000000000e-02
ITEM: ATOMS id type radius x y z fx fy fz c_bendingE c_stretchingE
384 11 0.001 -0.0508902 -0.00262045 -0.0490106 -2.87101e-12 1.54041e-13 -2.49788e-12 0 1.43008e-15
385 11 0.001 -0.0503692 -0.00182814 -0.0493249 -2.0406e-12 -1.33639e-13 -1.64404e-12 0 4.12948e-15
760 12 0.001 -0.0308902 -0.00262045 -0.0490106 -2.91633e-12 1.76949e-13 -2.49902e-12 0 1.43008e-15
761 12 0.001 -0.0303692 -0.00182814 -0.0493249 -1.98181e-12 -1.45332e-13 -1.64413e-12 0 4.12948e-15
1156 14 0.001 -0.0108902 -0.00262045 -0.0490106 -2.87618e-12 1.65766e-13 -2.50004e-12 0 1.43008e-15
1157 14 0.001 -0.0103692 -0.00182814 -0.0493249 -2.01333e-12 -1.38418e-13 -1.64365e-12 0 4.12948e-15
1552 16 0.001 0.0091098 -0.00262045 -0.0490106 -2.86901e-12 1.63396e-13 -2.50069e-12 0 1.43008e-15
1553 16 0.001 0.00963083 -0.00182814 -0.0493249 -2.01773e-12 -1.33086e-13 -1.64464e-12 0 4.12948e-15
1948 18 0.001 0.0291098 -0.00262045 -0.0490106 -2.93719e-12 1.7176e-13 -2.49369e-12 0 1.43008e-15
1949 18 0.001 0.0296308 -0.00182814 -0.0493249 -1.96992e-12 -1.3726e-13 -1.64815e-12 0 4.12948e-15
2 2 0.001 -0.05 -4.31175e-17 -0.05 -6.8071e-06 1.0091e-05 1.36718e-06 0 1.46527e-15
386 11 0.001 -0.0500663 -0.000935626 -0.0496562 -9.98882e-13 -1.78423e-13 -8.01448e-13 0 4.40822e-15
762 12 0.001 -0.0300663 -0.000935626 -0.0496562 -1.04196e-12 -1.77629e-13 -8.00008e-13 0 4.40822e-15
4 4 0.001 -0.03 -4.31175e-17 -0.05 -6.8071e-06 1.0091e-05 1.36718e-06 0 1.46527e-15
6 6 0.001 -0.01 -4.31175e-17 -0.05 -6.8071e-06 1.0091e-05 1.36718e-06 0 1.46527e-15
1158 14 0.001 -0.0100663 -0.000935626 -0.0496562 -1.03079e-12 -1.83357e-13 -7.98667e-13 0 4.40822e-15
8 8 0.001 0.01 -4.31175e-17 -0.05 -6.8071e-06 1.0091e-05 1.36718e-06 0 1.46527e-15
1554 16 0.001 0.00993366 -0.000935626 -0.0496562 -1.0292e-12 -1.82181e-13 -7.99324e-13 0 4.40822e-15
10 10 0.001 0.03 -4.31175e-17 -0.05 -6.8071e-06 1.0091e-05 1.36718e-06 0 1.46527e-15
1950 18 0.001 0.0299337 -0.000935626 -0.0496562 -1.04635e-12 -1.79695e-13 -7.99183e-13 0 4.40822e-15
378 11 0.001 -0.0561495 -0.00319798 -0.0475093 -3.58095e-12 4.14207e-12 -4.06119e-12 0 3.74474e-15
379 11 0.001 -0.0552976 -0.00367243 -0.0477265 -4.23691e-12 3.50672e-12 -4.40033e-12 0 3.25639e-15
380 11 0.001 -0.0543571 -0.00392326 -0.0479512 -4.32002e-12 2.76818e-12 -4.53636e-12 0 2.31704e-15
381 11 0.001 -0.0533867 -0.00393559 -0.0481884 -4.33724e-12 1.99167e-12 -4.35106e-12 0 1.18282e-15
382 11 0.001 -0.0524473 -0.00370984 -0.0484424 -4.07284e-12 1.249e-12 -3.90859e-12 0 3.11393e-16
383 11 0.001 -0.0515975 -0.00326158 -0.0487161 -3.59384e-12 6.2601e-13 -3.26547e-12 0 2.48178e-16
754 12 0.001 -0.0361495 -0.00319798 -0.0475093 -3.60511e-12 4.13793e-12 -4.05625e-12 0 3.74474e-15
755 12 0.001 -0.0352976 -0.00367243 -0.0477265 -4.18264e-12 3.51178e-12 -4.4114e-12 0 3.25639e-15
756 12 0.001 -0.0343571 -0.00392326 -0.0479512 -4.36014e-12 2.77664e-12 -4.52836e-12 0 2.31704e-15
757 12 0.001 -0.0333867 -0.00393559 -0.0481884 -4.28577e-12 1.9656e-12 -4.3601e-12 0 1.18282e-15
758 12 0.001 -0.0324473 -0.00370984 -0.0484424 -4.1608e-12 1.27402e-12 -3.89275e-12 0 3.11393e-16
759 12 0.001 -0.0315975 -0.00326158 -0.0487161 -3.52813e-12 6.05067e-13 -3.27396e-12 0 2.48178e-16
1151 14 0.001 -0.0152976 -0.00367243 -0.0477265 -4.17792e-12 3.50202e-12 -4.41504e-12 0 3.25639e-15
1150 14 0.001 -0.0161495 -0.00319798 -0.0475093 -3.58265e-12 4.13198e-12 -4.06214e-12 0 3.74474e-15
1152 14 0.001 -0.0143571 -0.00392326 -0.0479512 -4.34047e-12 2.77697e-12 -4.53053e-12 0 2.31704e-15
1153 14 0.001 -0.0133867 -0.00393559 -0.0481884 -4.37566e-12 1.97042e-12 -4.3415e-12 0 1.18282e-15
1154 14 0.001 -0.0124473 -0.00370984 -0.0484424 -4.08451e-12 1.27231e-12 -3.90711e-12 0 3.11393e-16
1155 14 0.001 -0.0115975 -0.00326158 -0.0487161 -3.57269e-12 6.15131e-13 -3.27011e-12 0 2.48178e-16
1546 16 0.001 0.00385049 -0.00319798 -0.0475093 -3.63302e-12 4.13064e-12 -4.05189e-12 0 3.74474e-15
1547 16 0.001 0.00470238 -0.00367243 -0.0477265 -4.1469e-12 3.51145e-12 -4.42111e-12 0 3.25639e-15
1548 16 0.001 0.00564293 -0.00392326 -0.0479512 -4.34642e-12 2.76982e-12 -4.52926e-12 0 2.31704e-15
1549 16 0.001 0.0066133 -0.00393559 -0.0481884 -4.36551e-12 1.97044e-12 -4.34344e-12 0 1.18282e-15
1550 16 0.001 0.00755272 -0.00370984 -0.0484424 -4.09069e-12 1.27855e-12 -3.90759e-12 0 3.11393e-16
1551 16 0.001 0.00840251 -0.00326158 -0.0487161 -3.57712e-12 6.0742e-13 -3.26706e-12 0 2.48178e-16
1942 18 0.001 0.0238505 -0.00319798 -0.0475093 -3.56465e-12 4.14427e-12 -4.06252e-12 0 3.74474e-15
1943 18 0.001 0.0247024 -0.00367243 -0.0477265 -4.18988e-12 3.49254e-12 -4.41386e-12 0 3.25639e-15
1944 18 0.001 0.0256429 -0.00392326 -0.0479512 -4.32297e-12 2.7796e-12 -4.53446e-12 0 2.31704e-15
1945 18 0.001 0.0266133 -0.00393559 -0.0481884 -4.40334e-12 1.9645e-12 -4.33397e-12 0 1.18282e-15
1946 18 0.001 0.0275527 -0.00370984 -0.0484424 -4.07725e-12 1.2864e-12 -3.91238e-12 0 3.11393e-16
1947 18 0.001 0.0284025 -0.00326158 -0.0487161 -3.53137e-12 5.99478e-13 -3.27268e-12 0 2.48178e-16
376 11 0.001 -0.0573839 -0.00170732 -0.0470751 -2.10056e-12 4.90844e-12 -2.59728e-12 0 3.36037e-15
377 11 0.001 -0.0568596 -0.0025291 -0.0472939 -3.02871e-12 4.62686e-12 -3.40388e-12 0 3.7414e-15
753 12 0.001 -0.0368596 -0.0025291 -0.0472939 -3.05627e-12 4.63237e-12 -3.40087e-12 0 3.7414e-15
752 12 0.001 -0.0373839 -0.00170732 -0.0470751 -2.04926e-12 4.89924e-12 -2.60255e-12 0 3.36037e-15
1149 14 0.001 -0.0168596 -0.0025291 -0.0472939 -3.00108e-12 4.62804e-12 -3.40511e-12 0 3.7414e-15
1148 14 0.001 -0.0173839 -0.00170732 -0.0470751 -2.15423e-12 4.91249e-12 -2.59217e-12 0 3.36037e-15
1544 16 0.001 0.00261615 -0.00170732 -0.0470751 -2.14925e-12 4.90322e-12 -2.59472e-12 0 3.36037e-15
1545 16 0.001 0.00314041 -0.0025291 -0.0472939 -2.98561e-12 4.63564e-12 -3.40732e-12 0 3.7414e-15
1941 18 0.001 0.0231404 -0.0025291 -0.0472939 -3.03031e-12 4.62363e-12 -3.40285e-12 0 3.7414e-15
1940 18 0.001 0.0226161 -0.00170732 -0.0470751 -2.13104e-12 4.91645e-12 -2.59288e-12 0 3.36037e-15
375 11 0.001 -0.0576902 -0.000783764 -0.0468488 -1.23469e-12 4.92499e-12 -1.68298e-12 0 2.7804e-15
751 12 0.001 -0.0376902 -0.000783764 -0.0468488 -1.26127e-12 4.9281e-12 -1.681e-12 0 2.7804e-15
1147 14 0.001 -0.0176902 -0.000783764 -0.0468488 -1.23501e-12 4.92986e-12 -1.68532e-12 0 2.7804e-15
1543 16 0.001 0.00230983 -0.000783764 -0.0468488 -1.22851e-12 4.92964e-12 -1.68404e-12 0 2.7804e-15
1939 18 0.001 0.0223098 -0.000783764 -0.0468488 -1.2476e-12 4.92398e-12 -1.68647e-12 0 2.7804e-15
373 11 0.001 -0.0575904 0.00113655 -0.0463624 7.23268e-13 4.32489e-12 2.55299e-14 0 1.63391e-15
374 11 0.001 -0.0577602 0.000184184 -0.0466117 -3.25335e-13 4.75706e-12 -7.76837e-13 0 2.16775e-15
749 12 0.001 -0.0375904 0.00113655 -0.0463624 7.30512e-13 4.32223e-12 2.54437e-14 0 1.63391e-15
750 12 0.001 -0.0377602 0.000184184 -0.0466117 -3.30136e-13 4.75862e-12 -7.77398e-13 0 2.16775e-15
1145 14 0.001 -0.0175904 0.00113655 -0.0463624 6.66962e-13 4.33065e-12 1.9184e-14 0 1.63391e-15
1146 14 0.001 -0.0177602 0.000184184 -0.0466117 -2.76948e-13 4.76095e-12 -7.70859e-13 0 2.16775e-15
1541 16 0.001 0.00240961 0.00113655 -0.0463624 6.56496e-13 4.32843e-12 1.79322e-14 0 1.63391e-15
1542 16 0.001 0.0022398 0.000184184 -0.0466117 -2.82034e-13 4.75816e-12 -7.72803e-13 0 2.16775e-15
1937 18 0.001 0.0224096 0.00113655 -0.0463624 6.6754e-13 4.33343e-12 1.97721e-14 0 1.63391e-15
1938 18 0.001 0.0222398 0.000184184 -0.0466117 -2.71136e-13 4.76228e-12 -7.70398e-13 0 2.16775e-15
372 11 0.001 -0.0571921 0.00201452 -0.0461006 1.44389e-12 3.71627e-12 5.95245e-13 0 1.22873e-15
748 12 0.001 -0.0371921 0.00201452 -0.0461006 1.44687e-12 3.72485e-12 5.97787e-13 0 1.22873e-15
1144 14 0.001 -0.0171921 0.00201452 -0.0461006 1.51325e-12 3.70876e-12 6.0625e-13 0 1.22873e-15
1540 16 0.001 0.00280794 0.00201452 -0.0461006 1.5237e-12 3.71404e-12 6.08622e-13 0 1.22873e-15
1936 18 0.001 0.0228079 0.00201452 -0.0461006 1.51422e-12 3.70455e-12 6.06279e-13 0 1.22873e-15
371 11 0.001 -0.0565906 0.00276398 -0.0458276 2.33467e-12 2.91582e-12 9.40777e-13 0 9.56049e-16
747 12 0.001 -0.0365906 0.00276398 -0.0458276 2.35934e-12 2.91005e-12 9.45781e-13 0 9.56049e-16
1143 14 0.001 -0.0165906 0.00276398 -0.0458276 2.28707e-12 2.92183e-12 9.33239e-13 0 9.56049e-16
1539 16 0.001 0.00340944 0.00276398 -0.0458276 2.28892e-12 2.9214e-12 9.33387e-13 0 9.56049e-16
1935 18 0.001 0.0234094 0.00276398 -0.0458276 2.27969e-12 2.92515e-12 9.31261e-13 0 9.56049e-16
370 11 0.001 -0.0558237 0.00333883 -0.0455456 2.95369e-12 2.02543e-12 9.88876e-13 0 7.95815e-16
369 11 0.001 -0.0549395 0.0037037 -0.0452576 3.31719e-12 1.00714e-12 7.2426e-13 0 7.21076e-16
367 11 0.001 -0.0530434 0.00372794 -0.0446758 3.6642e-12 -1.09418e-12 -2.83842e-13 0 7.26236e-16
368 11 0.001 -0.053993 0.00383613 -0.0449666 3.61073e-12 -4.67524e-14 2.86262e-13 0 7.05891e-16
745 12 0.001 -0.0349395 0.0037037 -0.0452576 3.37704e-12 9.96251e-13 7.38853e-13 0 7.21076e-16
746 12 0.001 -0.0358237 0.00333883 -0.0455456 2.88376e-12 2.02916e-12 9.71341e-13 0 7.95815e-16
744 12 0.001 -0.033993 0.00383613 -0.0449666 3.61209e-12 -3.60018e-14 2.88765e-13 0 7.05891e-16
743 12 0.001 -0.0330434 0.00372794 -0.0446758 3.60706e-12 -1.10031e-12 -3.02411e-13 0 7.26236e-16
1142 14 0.001 -0.0158237 0.00333883 -0.0455456 2.92849e-12 2.01737e-12 9.78855e-13 0 7.95815e-16
1140 14 0.001 -0.013993 0.00383613 -0.0449666 3.64389e-12 -4.29878e-14 2.9986e-13 0 7.05891e-16
1141 14 0.001 -0.0149395 0.0037037 -0.0452576 3.33924e-12 9.97976e-13 7.29309e-13 0 7.21076e-16
1139 14 0.001 -0.0130434 0.00372794 -0.0446758 3.63404e-12 -1.07488e-12 -2.98156e-13 0 7.26236e-16
1538 16 0.001 0.00417628 0.00333883 -0.0455456 2.92525e-12 2.01602e-12 9.78781e-13 0 7.95815e-16
1537 16 0.001 0.00506054 0.0037037 -0.0452576 3.35613e-12 1.00331e-12 7.33729e-13 0 7.21076e-16
1535 16 0.001 0.00695662 0.00372794 -0.0446758 3.64898e-12 -1.07186e-12 -2.93915e-13 0 7.26236e-16
1536 16 0.001 0.00600702 0.00383613 -0.0449666 3.61794e-12 -4.90921e-14 2.92567e-13 0 7.05891e-16
1933 18 0.001 0.0250605 0.0037037 -0.0452576 3.35959e-12 1.00481e-12 7.35969e-13 0 7.21076e-16
1934 18 0.001 0.0241763 0.00333883 -0.0455456 2.92132e-12 2.00986e-12 9.76135e-13 0 7.95815e-16
1932 18 0.001 0.026007 0.00383613 -0.0449666 3.61829e-12 -4.6576e-14 2.91994e-13 0 7.05891e-16
1931 18 0.001 0.0269566 0.00372794 -0.0446758 3.6683e-12 -1.07703e-12 -2.88024e-13 0 7.26236e-16
361 11 0.001 -0.0501898 -0.000673779 -0.0430247 -2.48501e-13 -3.95646e-12 -1.74236e-12 0 6.08959e-16
737 12 0.001 -0.0301898 -0.000673779 -0.0430247 -2.0523e-13 -3.96842e-12 -1.73946e-12 0 6.08959e-16
1133 14 0.001 -0.0101898 -0.000673779 -0.0430247 -2.19196e-13 -3.95889e-12 -1.73868e-12 0 6.08959e-16
1529 16 0.001 0.00981017 -0.000673779 -0.0430247 -2.21254e-13 -3.95329e-12 -1.74121e-12 0 6.08959e-16
1925 18 0.001 0.0298102 -0.000673779 -0.0430247 -2.44184e-13 -3.94588e-12 -1.74153e-12 0 6.08959e-16
362 11 0.001 -0.0501408 0.000288883 -0.0432872 7.23605e-13 -4.07991e-12 -1.97899e-12 0 6.8457e-16
363 11 0.001 -0.0503317 0.0012325 -0.043554 1.48391e-12 -3.94079e-12 -2.02882e-12 0 7.46123e-16
738 12 0.001 -0.0301408 0.000288883 -0.0432872 6.89621e-13 -4.0574e-12 -1.98488e-12 0 6.8457e-16
739 12 0.001 -0.0303317 0.0012325 -0.043554 1.47384e-12 -3.94817e-12 -2.03195e-12 0 7.46123e-16
1134 14 0.001 -0.0101408 0.000288883 -0.0432872 6.53533e-13 -4.06672e-12 -1.98749e-12 0 6.8457e-16
1135 14 0.001 -0.0103317 0.0012325 -0.043554 1.54196e-12 -3.94124e-12 -2.02164e-12 0 7.46123e-16
1530 16 0.001 0.00985916 0.000288883 -0.0432872 6.48893e-13 -4.07832e-12 -1.98274e-12 0 6.8457e-16
1531 16 0.001 0.00966831 0.0012325 -0.043554 1.54558e-12 -3.93648e-12 -2.02404e-12 0 7.46123e-16
1926 18 0.001 0.0298592 0.000288883 -0.0432872 6.69196e-13 -4.08647e-12 -1.98067e-12 0 6.8457e-16
1927 18 0.001 0.0296683 0.0012325 -0.043554 1.53523e-12 -3.93465e-12 -2.0256e-12 0 7.46123e-16
365 11 0.001 -0.0513692 0.00283094 -0.0441041 2.94471e-12 -2.87731e-12 -1.46318e-12 0 7.82286e-16
364 11 0.001 -0.05075 0.00209791 -0.0438261 2.37782e-12 -3.53694e-12 -1.83165e-12 0 7.80234e-16
740 12 0.001 -0.03075 0.00209791 -0.0438261 2.43102e-12 -3.53632e-12 -1.81725e-12 0 7.80234e-16
741 12 0.001 -0.0313692 0.00283094 -0.0441041 2.87473e-12 -2.88502e-12 -1.48275e-12 0 7.82286e-16
1136 14 0.001 -0.01075 0.00209791 -0.0438261 2.33678e-12 -3.53033e-12 -1.84155e-12 0 7.80234e-16
1137 14 0.001 -0.0113692 0.00283094 -0.0441041 2.98983e-12 -2.89455e-12 -1.44859e-12 0 7.82286e-16
1533 16 0.001 0.00863075 0.00283094 -0.0441041 2.98602e-12 -2.89018e-12 -1.44985e-12 0 7.82286e-16
1532 16 0.001 0.00924996 0.00209791 -0.0438261 2.33971e-12 -3.53252e-12 -1.84015e-12 0 7.80234e-16
1928 18 0.001 0.02925 0.00209791 -0.0438261 2.34966e-12 -3.53256e-12 -1.83638e-12 0 7.80234e-16
1929 18 0.001 0.0286308 0.00283094 -0.0441041 2.96173e-12 -2.88588e-12 -1.45899e-12 0 7.82286e-16
366 11 0.001 -0.0521501 0.0033858 -0.0443877 3.44797e-12 -2.03654e-12 -9.02139e-13 0 7.58887e-16
742 12 0.001 -0.0321501 0.0033858 -0.0443877 3.5221e-12 -2.0296e-12 -8.79492e-13 0 7.58887e-16
1138 14 0.001 -0.0121501 0.0033858 -0.0443877 3.42989e-12 -2.04633e-12 -9.04139e-13 0 7.58887e-16
1534 16 0.001 0.00784989 0.0033858 -0.0443877 3.42473e-12 -2.04838e-12 -9.05665e-13 0 7.58887e-16
1930 18 0.001 0.0278499 0.0033858 -0.0443877 3.42936e-12 -2.0464e-12 -9.03189e-13 0 7.58887e-16
355 11 0.001 -0.0544054 -0.00384453 -0.0414696 -2.88864e-12 6.71133e-13 -1.83135e-13 0 6.34003e-16
356 11 0.001 -0.0534414 -0.0038256 -0.0417311 -3.00016e-12 -3.24675e-13 -9.59022e-14 0 5.26538e-16
357 11 0.001 -0.0525117 -0.0035685 -0.041991 -2.79186e-12 -1.28733e-12 -2.25473e-13 0 4.69378e-16
358 11 0.001 -0.0516742 -0.00308916 -0.0422495 -2.32242e-12 -2.16187e-12 -5.40929e-13 0 4.56619e-16
731 12 0.001 -0.0344054 -0.00384453 -0.0414696 -2.89196e-12 6.707e-13 -1.82746e-13 0 6.34003e-16
732 12 0.001 -0.0334414 -0.0038256 -0.0417311 -2.96649e-12 -3.1933e-13 -1.05189e-13 0 5.26538e-16
733 12 0.001 -0.0325117 -0.0035685 -0.041991 -2.78721e-12 -1.29354e-12 -2.25417e-13 0 4.69378e-16
734 12 0.001 -0.0316742 -0.00308916 -0.0422495 -2.35072e-12 -2.17051e-12 -5.33786e-13 0 4.56619e-16
1127 14 0.001 -0.0144054 -0.00384453 -0.0414696 -2.99564e-12 6.71205e-13 -1.54478e-13 0 6.34003e-16
1128 14 0.001 -0.0134414 -0.0038256 -0.0417311 -2.93541e-12 -3.15054e-13 -1.13489e-13 0 5.26538e-16
1129 14 0.001 -0.0125117 -0.0035685 -0.041991 -2.75139e-12 -1.28283e-12 -2.35839e-13 0 4.69378e-16
1130 14 0.001 -0.0116742 -0.00308916 -0.0422495 -2.36582e-12 -2.17847e-12 -5.27801e-13 0 4.56619e-16
1523 16 0.001 0.00559458 -0.00384453 -0.0414696 -2.9737e-12 6.73186e-13 -1.61282e-13 0 6.34003e-16
1524 16 0.001 0.00655855 -0.0038256 -0.0417311 -2.94693e-12 -3.17342e-13 -1.10105e-13 0 5.26538e-16
1525 16 0.001 0.00748827 -0.0035685 -0.041991 -2.74671e-12 -1.284e-12 -2.36838e-13 0 4.69378e-16
1526 16 0.001 0.00832579 -0.00308916 -0.0422495 -2.36449e-12 -2.17528e-12 -5.28471e-13 0 4.56619e-16
1919 18 0.001 0.0255946 -0.00384453 -0.0414696 -2.95883e-12 6.74928e-13 -1.6492e-13 0 6.34003e-16
1920 18 0.001 0.0265586 -0.0038256 -0.0417311 -2.94277e-12 -3.14917e-13 -1.11705e-13 0 5.26538e-16
1921 18 0.001 0.0274883 -0.0035685 -0.041991 -2.75681e-12 -1.29011e-12 -2.33527e-13 0 4.69378e-16
1922 18 0.001 0.0283258 -0.00308916 -0.0422495 -2.34729e-12 -2.17207e-12 -5.33392e-13 0 4.56619e-16
359 11 0.001 -0.0509812 -0.00241739 -0.0425072 -1.76437e-12 -2.9618e-12 -9.33838e-13 0 4.81596e-16
360 11 0.001 -0.0504759 -0.00159511 -0.0427652 -1.09295e-12 -3.54555e-12 -1.3674e-12 0 5.36185e-16
735 12 0.001 -0.0309812 -0.00241739 -0.0425072 -1.75458e-12 -2.95246e-12 -9.36709e-13 0 4.81596e-16
736 12 0.001 -0.0304759 -0.00159511 -0.0427652 -1.11165e-12 -3.54856e-12 -1.36667e-12 0 5.36185e-16
1131 14 0.001 -0.0109812 -0.00241739 -0.0425072 -1.79147e-12 -2.96047e-12 -9.30566e-13 0 4.81596e-16
1132 14 0.001 -0.0104759 -0.00159511 -0.0427652 -1.06318e-12 -3.54452e-12 -1.37306e-12 0 5.36185e-16
1527 16 0.001 0.00901884 -0.00241739 -0.0425072 -1.79779e-12 -2.96087e-12 -9.29846e-13 0 4.81596e-16
1528 16 0.001 0.00952415 -0.00159511 -0.0427652 -1.05475e-12 -3.54533e-12 -1.37318e-12 0 5.36185e-16
1923 18 0.001 0.0290188 -0.00241739 -0.0425072 -1.82259e-12 -2.96584e-12 -9.23112e-13 0 4.81596e-16
1924 18 0.001 0.0295241 -0.00159511 -0.0427652 -1.0309e-12 -3.54341e-12 -1.37743e-12 0 5.36185e-16
353 11 0.001 -0.0561977 -0.00317853 -0.0409421 -2.42116e-12 2.49918e-12 -7.51891e-13 0 1.00766e-15
354 11 0.001 -0.0553436 -0.00362424 -0.0412064 -2.8096e-12 1.62452e-12 -3.91142e-13 0 7.9521e-16
729 12 0.001 -0.0361977 -0.00317853 -0.0409421 -2.44009e-12 2.50343e-12 -7.46951e-13 0 1.00766e-15
730 12 0.001 -0.0353436 -0.00362424 -0.0412064 -2.82296e-12 1.63072e-12 -3.8655e-13 0 7.9521e-16
1125 14 0.001 -0.0161977 -0.00317853 -0.0409421 -2.42577e-12 2.50553e-12 -7.4973e-13 0 1.00766e-15
1126 14 0.001 -0.0153436 -0.00362424 -0.0412064 -2.7502e-12 1.61504e-12 -4.07746e-13 0 7.9521e-16
1521 16 0.001 0.00380228 -0.00317853 -0.0409421 -2.42102e-12 2.50863e-12 -7.51437e-13 0 1.00766e-15
1522 16 0.001 0.00465637 -0.00362424 -0.0412064 -2.77037e-12 1.61438e-12 -4.01148e-13 0 7.9521e-16
1917 18 0.001 0.0238023 -0.00317853 -0.0409421 -2.40085e-12 2.51283e-12 -7.54977e-13 0 1.00766e-15
1918 18 0.001 0.0246564 -0.00362424 -0.0412064 -2.79415e-12 1.61338e-12 -3.95494e-13 0 7.9521e-16
351 11 0.001 -0.0574495 -0.00173433 -0.0404115 -1.19963e-12 3.82748e-12 -1.56621e-12 0 1.53014e-15
352 11 0.001 -0.0569145 -0.0025352 -0.0406769 -1.81857e-12 3.22762e-12 -1.19143e-12 0 1.25974e-15
727 12 0.001 -0.0374495 -0.00173433 -0.0404115 -1.16963e-12 3.82393e-12 -1.57051e-12 0 1.53014e-15
728 12 0.001 -0.0369145 -0.0025352 -0.0406769 -1.81838e-12 3.22288e-12 -1.19367e-12 0 1.25974e-15
1123 14 0.001 -0.0174495 -0.00173433 -0.0404115 -1.17813e-12 3.81829e-12 -1.57315e-12 0 1.53014e-15
1124 14 0.001 -0.0169145 -0.0025352 -0.0406769 -1.8499e-12 3.23464e-12 -1.18337e-12 0 1.25974e-15
1519 16 0.001 0.00255048 -0.00173433 -0.0404115 -1.17965e-12 3.81942e-12 -1.57273e-12 0 1.53014e-15
1520 16 0.001 0.00308545 -0.0025352 -0.0406769 -1.84932e-12 3.23245e-12 -1.18354e-12 0 1.25974e-15
1915 18 0.001 0.0225505 -0.00173433 -0.0404115 -1.15651e-12 3.82202e-12 -1.57635e-12 0 1.53014e-15
1916 18 0.001 0.0230855 -0.0025352 -0.0406769 -1.87422e-12 3.22641e-12 -1.1801e-12 0 1.25974e-15
350 11 0.001 -0.0577693 -0.000825805 -0.0401464 -4.04862e-13 4.13971e-12 -1.88965e-12 0 1.79088e-15
726 12 0.001 -0.0377693 -0.000825805 -0.0401464 -4.12731e-13 4.13922e-12 -1.88825e-12 0 1.79088e-15
1122 14 0.001 -0.0177693 -0.000825805 -0.0401464 -3.81062e-13 4.14016e-12 -1.88897e-12 0 1.79088e-15
1518 16 0.001 0.00223067 -0.000825805 -0.0401464 -3.84901e-13 4.13942e-12 -1.88943e-12 0 1.79088e-15
1914 18 0.001 0.0222307 -0.000825805 -0.0401464 -3.9489e-13 4.14233e-12 -1.88615e-12 0 1.79088e-15
348 11 0.001 -0.0576983 0.00108458 -0.0396176 1.19575e-12 4.08635e-12 -2.02793e-12 0 2.17507e-15
349 11 0.001 -0.057854 0.000133772 -0.0398817 5.02408e-13 4.24057e-12 -2.04389e-12 0 2.01332e-15
724 12 0.001 -0.0376983 0.00108458 -0.0396176 1.24517e-12 4.07839e-12 -2.0261e-12 0 2.17507e-15
725 12 0.001 -0.037854 0.000133772 -0.0398817 4.74999e-13 4.24225e-12 -2.0444e-12 0 2.01332e-15
1120 14 0.001 -0.0176983 0.00108458 -0.0396176 1.26627e-12 4.08318e-12 -2.02406e-12 0 2.17507e-15
1121 14 0.001 -0.017854 0.000133772 -0.0398817 4.41773e-13 4.24172e-12 -2.04459e-12 0 2.01332e-15
1516 16 0.001 0.00230174 0.00108458 -0.0396176 1.25671e-12 4.07956e-12 -2.0254e-12 0 2.17507e-15
1517 16 0.001 0.00214599 0.000133772 -0.0398817 4.5464e-13 4.24282e-12 -2.04408e-12 0 2.01332e-15
1912 18 0.001 0.0223017 0.00108458 -0.0396176 1.24429e-12 4.07907e-12 -2.02642e-12 0 2.17507e-15
1913 18 0.001 0.022146 0.000133772 -0.0398817 4.58292e-13 4.24006e-12 -2.04575e-12 0 2.01332e-15
347 11 0.001 -0.0573118 0.00196729 -0.0393541 2.03756e-12 3.66347e-12 -1.83652e-12 0 2.26516e-15
346 11 0.001 -0.0567186 0.00272684 -0.0390909 2.62108e-12 3.09391e-12 -1.49622e-12 0 2.28578e-15
722 12 0.001 -0.0367186 0.00272684 -0.0390909 2.64163e-12 3.09736e-12 -1.49395e-12 0 2.28578e-15
723 12 0.001 -0.0373118 0.00196729 -0.0393541 1.98698e-12 3.66789e-12 -1.84101e-12 0 2.26516e-15
1118 14 0.001 -0.0167186 0.00272684 -0.0390909 2.63538e-12 3.09708e-12 -1.49532e-12 0 2.28578e-15
1119 14 0.001 -0.0173118 0.00196729 -0.0393541 1.97975e-12 3.66293e-12 -1.84286e-12 0 2.26516e-15
1515 16 0.001 0.00268825 0.00196729 -0.0393541 1.98839e-12 3.66321e-12 -1.84127e-12 0 2.26516e-15
1514 16 0.001 0.00328142 0.00272684 -0.0390909 2.61209e-12 3.10026e-12 -1.49954e-12 0 2.28578e-15
1910 18 0.001 0.0232814 0.00272684 -0.0390909 2.5883e-12 3.09965e-12 -1.50364e-12 0 2.28578e-15
1911 18 0.001 0.0226882 0.00196729 -0.0393541 2.01329e-12 3.6648e-12 -1.83749e-12 0 2.26516e-15
345 11 0.001 -0.0559557 0.00331581 -0.0388279 2.93862e-12 2.29845e-12 -1.13026e-12 0 2.25035e-15
344 11 0.001 -0.0550709 0.00369746 -0.0385645 3.29222e-12 1.44514e-12 -6.91204e-13 0 2.17905e-15
720 12 0.001 -0.0350709 0.00369746 -0.0385645 3.29465e-12 1.44546e-12 -6.91732e-13 0 2.17905e-15
721 12 0.001 -0.0359557 0.00331581 -0.0388279 2.94099e-12 2.29592e-12 -1.12848e-12 0 2.25035e-15
1117 14 0.001 -0.0159557 0.00331581 -0.0388279 2.96398e-12 2.29748e-12 -1.12322e-12 0 2.25035e-15
1116 14 0.001 -0.0150709 0.00369746 -0.0385645 3.26858e-12 1.44511e-12 -6.97301e-13 0 2.17905e-15
1513 16 0.001 0.00404426 0.00331581 -0.0388279 2.99567e-12 2.29322e-12 -1.11676e-12 0 2.25035e-15
1512 16 0.001 0.00492915 0.00369746 -0.0385645 3.26038e-12 1.45026e-12 -6.98467e-13 0 2.17905e-15
1908 18 0.001 0.0249291 0.00369746 -0.0385645 3.26015e-12 1.44349e-12 -6.98459e-13 0 2.17905e-15
1909 18 0.001 0.0240443 0.00331581 -0.0388279 3.00579e-12 2.29476e-12 -1.11504e-12 0 2.25035e-15
338 11 0.001 -0.0503756 0.00131803 -0.036972 8.45408e-13 -3.07954e-12 -6.68752e-13 0 1.94606e-15
714 12 0.001 -0.0303756 0.00131803 -0.036972 8.24332e-13 -3.0839e-12 -6.7293e-13 0 1.94606e-15
1110 14 0.001 -0.0103756 0.00131803 -0.036972 8.4858e-13 -3.08068e-12 -6.70461e-13 0 1.94606e-15
1506 16 0.001 0.00962444 0.00131803 -0.036972 8.59372e-13 -3.07869e-12 -6.69903e-13 0 1.94606e-15
1902 18 0.001 0.0296244 0.00131803 -0.036972 8.40026e-13 -3.08265e-12 -6.71714e-13 0 1.94606e-15
340 11 0.001 -0.0514554 0.00289408 -0.0375051 2.31379e-12 -1.95544e-12 -1.55149e-13 0 1.91982e-15
339 11 0.001 -0.0508162 0.002174 -0.0372387 1.53489e-12 -2.62946e-12 -3.82152e-13 0 1.918e-15
715 12 0.001 -0.0308162 0.002174 -0.0372387 1.65447e-12 -2.60619e-12 -3.67116e-13 0 1.918e-15
716 12 0.001 -0.0314554 0.00289408 -0.0375051 2.16956e-12 -2.00461e-12 -1.73392e-13 0 1.91982e-15
1111 14 0.001 -0.0108162 0.002174 -0.0372387 1.59732e-12 -2.61763e-12 -3.73917e-13 0 1.918e-15
1112 14 0.001 -0.0114554 0.00289408 -0.0375051 2.23861e-12 -1.98822e-12 -1.62965e-13 0 1.91982e-15
1508 16 0.001 0.00854461 0.00289408 -0.0375051 2.24182e-12 -1.98616e-12 -1.62797e-13 0 1.91982e-15
1507 16 0.001 0.00918378 0.002174 -0.0372387 1.58784e-12 -2.61781e-12 -3.75167e-13 0 1.918e-15
1903 18 0.001 0.0291838 0.002174 -0.0372387 1.62516e-12 -2.6128e-12 -3.70388e-13 0 1.918e-15
1904 18 0.001 0.0285446 0.00289408 -0.0375051 2.21047e-12 -1.99187e-12 -1.68173e-13 0 1.91982e-15
343 11 0.001 -0.0541191 0.00384799 -0.0383007 3.27022e-12 5.29711e-13 -3.63742e-13 0 2.09369e-15
342 11 0.001 -0.05316 0.00375805 -0.0380362 3.11767e-12 -3.52321e-13 -1.43126e-13 0 2.0135e-15
341 11 0.001 -0.0522532 0.00343331 -0.037771 2.73347e-12 -1.26953e-12 -7.25889e-14 0 1.95271e-15
719 12 0.001 -0.0341191 0.00384799 -0.0383007 3.28729e-12 5.36559e-13 -3.5877e-13 0 2.09369e-15
718 12 0.001 -0.03316 0.00375805 -0.0380362 3.062e-12 -3.73586e-13 -1.54648e-13 0 2.0135e-15
717 12 0.001 -0.0322532 0.00343331 -0.037771 2.8309e-12 -1.2225e-12 -5.87264e-14 0 1.95271e-15
1115 14 0.001 -0.0141191 0.00384799 -0.0383007 3.29264e-12 5.37059e-13 -3.58441e-13 0 2.09369e-15
1113 14 0.001 -0.0122532 0.00343331 -0.037771 2.78238e-12 -1.23767e-12 -6.73944e-14 0 1.95271e-15
1114 14 0.001 -0.01316 0.00375805 -0.0380362 3.08403e-12 -3.69288e-13 -1.49212e-13 0 2.0135e-15
1511 16 0.001 0.00588086 0.00384799 -0.0383007 3.27166e-12 5.32903e-13 -3.64194e-13 0 2.09369e-15
1510 16 0.001 0.00684002 0.00375805 -0.0380362 3.10499e-12 -3.6742e-13 -1.43752e-13 0 2.0135e-15
1509 16 0.001 0.00774678 0.00343331 -0.037771 2.77571e-12 -1.2395e-12 -6.88278e-14 0 1.95271e-15
1907 18 0.001 0.0258809 0.00384799 -0.0383007 3.27079e-12 5.42581e-13 -3.64374e-13 0 2.09369e-15
1906 18 0.001 0.02684 0.00375805 -0.0380362 3.09984e-12 -3.74523e-13 -1.45409e-13 0 2.0135e-15
1905 18 0.001 0.0277468 0.00343331 -0.037771 2.7926e-12 -1.23537e-12 -6.46972e-14 0 1.95271e-15
333 11 0.001 -0.0516075 -0.00302858 -0.0356414 -2.81818e-12 -2.23361e-12 -1.50958e-12 0 2.33161e-15
709 12 0.001 -0.0316075 -0.00302858 -0.0356414 -2.85717e-12 -2.24341e-12 -1.49733e-12 0 2.33161e-15
1105 14 0.001 -0.0116075 -0.00302858 -0.0356414 -2.85983e-12 -2.24375e-12 -1.49706e-12 0 2.33161e-15
1501 16 0.001 0.00839253 -0.00302858 -0.0356414 -2.8389e-12 -2.24955e-12 -1.50032e-12 0 2.33161e-15
1897 18 0.001 0.0283925 -0.00302858 -0.0356414 -2.85393e-12 -2.24979e-12 -1.49728e-12 0 2.33161e-15
334 11 0.001 -0.0509321 -0.00234186 -0.0359066 -2.23057e-12 -2.78901e-12 -1.56516e-12 0 2.24429e-15
335 11 0.001 -0.0504481 -0.00150933 -0.0361724 -1.65455e-12 -3.18614e-12 -1.45673e-12 0 2.15589e-15
710 12 0.001 -0.0309321 -0.00234186 -0.0359066 -2.28057e-12 -2.79027e-12 -1.56143e-12 0 2.24429e-15
711 12 0.001 -0.0304481 -0.00150933 -0.0361724 -1.56112e-12 -3.16572e-12 -1.47076e-12 0 2.15589e-15
1106 14 0.001 -0.0109321 -0.00234186 -0.0359066 -2.26571e-12 -2.79025e-12 -1.56282e-12 0 2.24429e-15
1107 14 0.001 -0.0104481 -0.00150933 -0.0361724 -1.58288e-12 -3.16883e-12 -1.4678e-12 0 2.15589e-15
1502 16 0.001 0.00906788 -0.00234186 -0.0359066 -2.28039e-12 -2.78476e-12 -1.56144e-12 0 2.24429e-15
1503 16 0.001 0.0095519 -0.00150933 -0.0361724 -1.57989e-12 -3.17528e-12 -1.46701e-12 0 2.15589e-15
1898 18 0.001 0.0290679 -0.00234186 -0.0359066 -2.26783e-12 -2.78508e-12 -1.56353e-12 0 2.24429e-15
1899 18 0.001 0.0295519 -0.00150933 -0.0361724 -1.59254e-12 -3.1734e-12 -1.46654e-12 0 2.15589e-15
336 11 0.001 -0.0501856 -0.000582925 -0.0364386 -7.9537e-13 -3.39035e-12 -1.2752e-12 0 2.07197e-15
712 12 0.001 -0.0301856 -0.000582925 -0.0364386 -8.16449e-13 -3.39712e-12 -1.27032e-12 0 2.07197e-15
1108 14 0.001 -0.0101856 -0.000582925 -0.0364386 -8.10467e-13 -3.39805e-12 -1.27056e-12 0 2.07197e-15
1504 16 0.001 0.00981444 -0.000582925 -0.0364386 -8.04401e-13 -3.39298e-12 -1.27193e-12 0 2.07197e-15
1900 18 0.001 0.0298144 -0.000582925 -0.0364386 -7.82068e-13 -3.39479e-12 -1.27202e-12 0 2.07197e-15
337 11 0.001 -0.0501609 0.00037954 -0.0367052 5.55945e-14 -3.32373e-12 -9.88682e-13 0 1.99956e-15
713 12 0.001 -0.0301609 0.00037954 -0.0367052 2.41324e-14 -3.32718e-12 -9.88314e-13 0 1.99956e-15
1109 14 0.001 -0.0101609 0.00037954 -0.0367052 2.09802e-14 -3.32268e-12 -9.90133e-13 0 1.99956e-15
1505 16 0.001 0.00983912 0.00037954 -0.0367052 1.26777e-14 -3.32645e-12 -9.89415e-13 0 1.99956e-15
1901 18 0.001 0.0298391 0.00037954 -0.0367052 8.55767e-16 -3.32257e-12 -9.89778e-13 0 1.99956e-15
328 11 0.001 -0.0561239 -0.00322123 -0.03432 -2.65925e-12 1.54149e-12 -5.37166e-13 0 2.71102e-15
329 11 0.001 -0.0552597 -0.00364724 -0.0345841 -3.00415e-12 8.38969e-13 -7.12327e-13 0 2.63753e-15
330 11 0.001 -0.0543169 -0.00384591 -0.0348481 -3.28436e-12 5.60224e-14 -9.19935e-13 0 2.56555e-15
331 11 0.001 -0.0533544 -0.00380483 -0.0351123 -3.35036e-12 -7.35531e-13 -1.15105e-12 0 2.49208e-15
332 11 0.001 -0.052432 -0.0035266 -0.0353767 -3.16251e-12 -1.5016e-12 -1.38166e-12 0 2.4145e-15
704 12 0.001 -0.0361239 -0.00322123 -0.03432 -2.6821e-12 1.51899e-12 -5.35467e-13 0 2.71102e-15
705 12 0.001 -0.0352597 -0.00364724 -0.0345841 -3.03927e-12 8.6256e-13 -7.00226e-13 0 2.63753e-15
706 12 0.001 -0.0343169 -0.00384591 -0.0348481 -3.26748e-12 6.13369e-14 -9.2413e-13 0 2.56555e-15
707 12 0.001 -0.0333544 -0.00380483 -0.0351123 -3.31062e-12 -7.37451e-13 -1.16385e-12 0 2.49208e-15
708 12 0.001 -0.032432 -0.0035266 -0.0353767 -3.15777e-12 -1.50937e-12 -1.38003e-12 0 2.4145e-15
1100 14 0.001 -0.0161239 -0.00322123 -0.03432 -2.59606e-12 1.54202e-12 -5.50855e-13 0 2.71102e-15
1101 14 0.001 -0.0152597 -0.00364724 -0.0345841 -3.03747e-12 8.41706e-13 -7.04573e-13 0 2.63753e-15
1102 14 0.001 -0.0143169 -0.00384591 -0.0348481 -3.3136e-12 6.03355e-14 -9.10796e-13 0 2.56555e-15
1104 14 0.001 -0.012432 -0.0035266 -0.0353767 -3.13002e-12 -1.50255e-12 -1.3881e-12 0 2.4145e-15
1103 14 0.001 -0.0133544 -0.00380483 -0.0351123 -3.32288e-12 -7.34354e-13 -1.16034e-12 0 2.49208e-15
1496 16 0.001 0.0038761 -0.00322123 -0.03432 -2.62312e-12 1.54552e-12 -5.4429e-13 0 2.71102e-15
1497 16 0.001 0.00474028 -0.00364724 -0.0345841 -3.04485e-12 8.47356e-13 -7.01377e-13 0 2.63753e-15
1498 16 0.001 0.00568306 -0.00384591 -0.0348481 -3.27371e-12 5.55305e-14 -9.22927e-13 0 2.56555e-15
1499 16 0.001 0.00664564 -0.00380483 -0.0351123 -3.33615e-12 -7.38352e-13 -1.15565e-12 0 2.49208e-15
1500 16 0.001 0.00756797 -0.0035266 -0.0353767 -3.14687e-12 -1.49741e-12 -1.38523e-12 0 2.4145e-15
1892 18 0.001 0.0238761 -0.00322123 -0.03432 -2.62231e-12 1.54491e-12 -5.45286e-13 0 2.71102e-15
1893 18 0.001 0.0247403 -0.00364724 -0.0345841 -3.04728e-12 8.48043e-13 -7.00193e-13 0 2.63753e-15
1894 18 0.001 0.0256831 -0.00384591 -0.0348481 -3.26345e-12 5.85524e-14 -9.25683e-13 0 2.56555e-15
1895 18 0.001 0.0266456 -0.00380483 -0.0351123 -3.35718e-12 -7.42821e-13 -1.14983e-12 0 2.49208e-15
1896 18 0.001 0.027568 -0.0035266 -0.0353767 -3.13205e-12 -1.49507e-12 -1.38882e-12 0 2.4145e-15
327 11 0.001 -0.0568556 -0.00259445 -0.0340558 -2.02597e-12 2.16529e-12 -4.7009e-13 0 2.78857e-15
703 12 0.001 -0.0368556 -0.00259445 -0.0340558 -1.98398e-12 2.16236e-12 -4.79575e-13 0 2.78857e-15
1099 14 0.001 -0.0168556 -0.00259445 -0.0340558 -2.07084e-12 2.14284e-12 -4.66122e-13 0 2.78857e-15