ITEM: TIMESTEP
8900000
ITEM: NUMBER OF ATOMS
1970
ITEM: BOX BOUNDS ff ff ff
-6.0000000000000005e-02 6.0000000000000005e-02
-6.0000000000000001e-03 6.0000000000000001e-03
-5.5000000000000000e-02 5.5000000000000000e-02
ITEM: ATOMS id type radius x y z fx fy fz c_bendingE c_stretchingE
384 11 0.001 -0.0508108 -0.0026417 -0.0489989 -8.54323e-14 -2.15632e-14 5.32656e-16 0 1.7344e-17
385 11 0.001 -0.0503142 -0.00183724 -0.0493218 -1.47929e-13 9.174e-14 -6.58427e-15 0 1.00026e-14
760 12 0.001 -0.0308099 -0.00264161 -0.048998 -1.60592e-13 5.26659e-14 -5.52196e-15 0 1.65809e-17
761 12 0.001 -0.0303136 -0.00183709 -0.0493211 -9.55649e-14 5.99926e-15 1.63522e-14 0 9.87695e-15
1156 14 0.001 -0.0108099 -0.00264161 -0.048998 -1.57742e-13 5.31514e-14 -6.83646e-15 0 1.65809e-17
1157 14 0.001 -0.0103136 -0.00183709 -0.0493211 -1.25652e-13 -8.32526e-16 2.16912e-14 0 9.87695e-15
1552 16 0.001 0.00919007 -0.00264161 -0.048998 -1.60056e-13 3.85352e-14 -9.75946e-16 0 1.65809e-17
1553 16 0.001 0.00968643 -0.00183709 -0.0493211 -1.158e-13 8.92302e-15 1.67358e-14 0 9.87695e-15
1948 18 0.001 0.0291901 -0.00264161 -0.048998 -1.46916e-13 4.16059e-14 -2.31143e-15 0 1.65809e-17
1949 18 0.001 0.0296864 -0.00183709 -0.0493211 -1.40982e-13 3.60454e-15 2.05327e-14 0 9.87695e-15
2 2 0.001 -0.05 -4.31175e-17 -0.05 -2.19653e-06 2.33382e-06 1.85591e-06 0 9.06059e-15
386 11 0.001 -0.0500383 -0.00093752 -0.0496571 -3.18028e-14 1.01812e-14 4.84121e-15 0 1.90606e-14
762 12 0.001 -0.030038 -0.000937404 -0.0496567 -7.15729e-14 1.05336e-14 8.97083e-15 0 1.87915e-14
4 4 0.001 -0.03 -4.31175e-17 -0.05 -2.24e-06 2.42774e-06 1.83746e-06 0 8.91909e-15
6 6 0.001 -0.01 -4.31175e-17 -0.05 -2.24e-06 2.42774e-06 1.83746e-06 0 8.91909e-15
1158 14 0.001 -0.010038 -0.000937404 -0.0496567 -4.21427e-14 1.78329e-14 4.45207e-15 0 1.87915e-14
8 8 0.001 0.01 -4.31175e-17 -0.05 -2.24e-06 2.42774e-06 1.83746e-06 0 8.91909e-15
1554 16 0.001 0.00996203 -0.000937404 -0.0496567 -4.75834e-14 1.89211e-14 4.83818e-15 0 1.87915e-14
10 10 0.001 0.03 -4.31175e-17 -0.05 -2.24e-06 2.42774e-06 1.83746e-06 0 8.91909e-15
1950 18 0.001 0.029962 -0.000937404 -0.0496567 -3.44846e-14 2.04532e-14 3.50712e-15 0 1.87915e-14
379 11 0.001 -0.0551722 -0.00379865 -0.0476503 -2.70191e-13 2.06624e-13 -1.72248e-13 0 7.17979e-16
380 11 0.001 -0.0542282 -0.00402668 -0.0478847 -2.64432e-13 2.49288e-13 -1.46398e-13 0 6.22987e-16
381 11 0.001 -0.0532612 -0.00401565 -0.0481352 -2.46249e-13 1.45297e-13 -1.10633e-13 0 4.53364e-16
382 11 0.001 -0.0523316 -0.00376755 -0.0484041 -1.90518e-13 9.85316e-14 -7.45747e-14 0 2.57417e-16
383 11 0.001 -0.0514975 -0.00329931 -0.0486923 -3.00676e-13 1.1303e-13 -2.43451e-14 0 9.48115e-17
755 12 0.001 -0.035171 -0.00379957 -0.0476491 -2.63479e-13 2.32605e-13 -1.63551e-13 0 7.30141e-16
756 12 0.001 -0.0342269 -0.00402737 -0.0478834 -2.5268e-13 2.13189e-13 -1.4085e-13 0 6.2839e-16
757 12 0.001 -0.0332599 -0.00401609 -0.0481339 -1.92495e-13 1.66048e-13 -1.1925e-13 0 4.51831e-16
758 12 0.001 -0.0323304 -0.00376777 -0.0484029 -3.00567e-13 8.5356e-14 -4.1381e-14 0 2.51094e-16
759 12 0.001 -0.0314964 -0.00329935 -0.0486911 -1.63494e-13 9.78411e-14 -4.47876e-14 0 8.82111e-17
1151 14 0.001 -0.015171 -0.00379957 -0.0476491 -2.51004e-13 2.46094e-13 -1.66696e-13 0 7.30141e-16
1152 14 0.001 -0.0142269 -0.00402737 -0.0478834 -2.67834e-13 1.97043e-13 -1.37231e-13 0 6.2839e-16
1153 14 0.001 -0.0132599 -0.00401609 -0.0481339 -2.26989e-13 1.65198e-13 -1.08939e-13 0 4.51831e-16
1154 14 0.001 -0.0123304 -0.00376777 -0.0484029 -2.47177e-13 1.04571e-13 -5.93032e-14 0 2.51094e-16
1155 14 0.001 -0.0114964 -0.00329935 -0.0486911 -1.76102e-13 8.65388e-14 -3.74452e-14 0 8.82111e-17
1547 16 0.001 0.00482904 -0.00379957 -0.0476491 -2.61747e-13 2.42063e-13 -1.64265e-13 0 7.30141e-16
1548 16 0.001 0.00577308 -0.00402737 -0.0478834 -2.51213e-13 1.9874e-13 -1.41105e-13 0 6.2839e-16
1549 16 0.001 0.00674011 -0.00401609 -0.0481339 -2.40287e-13 1.69303e-13 -1.06534e-13 0 4.51831e-16
1550 16 0.001 0.00766964 -0.00376777 -0.0484029 -2.35975e-13 9.86424e-14 -6.0186e-14 0 2.51094e-16
1551 16 0.001 0.0085036 -0.00329935 -0.0486911 -1.86071e-13 9.36804e-14 -3.84491e-14 0 8.82111e-17
1943 18 0.001 0.024829 -0.00379957 -0.0476491 -2.46555e-13 2.37523e-13 -1.70781e-13 0 7.30141e-16
1944 18 0.001 0.0257731 -0.00402737 -0.0478834 -2.79454e-13 2.01986e-13 -1.30967e-13 0 6.2839e-16
1945 18 0.001 0.0267401 -0.00401609 -0.0481339 -2.06285e-13 1.6835e-13 -1.18588e-13 0 4.51831e-16
1946 18 0.001 0.0276696 -0.00376777 -0.0484029 -2.61692e-13 9.68942e-14 -5.07148e-14 0 2.51094e-16
1947 18 0.001 0.0285036 -0.00329935 -0.0486911 -1.76497e-13 9.47756e-14 -4.27444e-14 0 8.82111e-17
378 11 0.001 -0.056034 -0.0033447 -0.0474283 -2.67405e-13 3.17576e-13 -1.84285e-13 0 7.15561e-16
754 12 0.001 -0.0360329 -0.00334584 -0.0474273 -2.66491e-13 2.76508e-13 -1.81321e-13 0 7.32597e-16
1150 14 0.001 -0.0160329 -0.00334584 -0.0474273 -2.28234e-13 2.76042e-13 -1.86705e-13 0 7.32597e-16
1546 16 0.001 0.0039671 -0.00334584 -0.0474273 -2.26111e-13 2.80732e-13 -1.87206e-13 0 7.32597e-16
1942 18 0.001 0.0239671 -0.00334584 -0.0474273 -2.24003e-13 2.82309e-13 -1.857e-13 0 7.32597e-16
376 11 0.001 -0.0573042 -0.00188167 -0.0470038 -3.0364e-13 3.38431e-13 -1.69451e-13 0 4.71832e-16
377 11 0.001 -0.0567597 -0.00269235 -0.0472144 -1.48086e-13 3.09203e-13 -2.00975e-13 0 6.23014e-16
753 12 0.001 -0.0367588 -0.00269366 -0.0472136 -1.26813e-13 3.16121e-13 -1.96004e-13 0 6.42207e-16
752 12 0.001 -0.0373036 -0.00188311 -0.0470031 -2.52193e-13 3.29673e-13 -1.62424e-13 0 4.90447e-16
1149 14 0.001 -0.0167588 -0.00269366 -0.0472136 -2.17723e-13 3.05103e-13 -1.85923e-13 0 6.42207e-16
1148 14 0.001 -0.0173036 -0.00188311 -0.0470031 -1.75228e-13 3.3938e-13 -1.69314e-13 0 4.90447e-16
1544 16 0.001 0.00269644 -0.00188311 -0.0470031 -1.69067e-13 3.35868e-13 -1.71958e-13 0 4.90447e-16
1545 16 0.001 0.00324115 -0.00269366 -0.0472136 -2.19078e-13 3.03203e-13 -1.84862e-13 0 6.42207e-16
1941 18 0.001 0.0232412 -0.00269366 -0.0472136 -2.29299e-13 3.05633e-13 -1.83637e-13 0 6.42207e-16
1940 18 0.001 0.0226964 -0.00188311 -0.0470031 -1.57807e-13 3.33461e-13 -1.73016e-13 0 4.90447e-16
375 11 0.001 -0.0576336 -0.000962747 -0.0467915 2.17168e-14 3.49894e-13 -1.47686e-13 0 3.04568e-16
751 12 0.001 -0.0376333 -0.00096425 -0.046791 -1.2432e-13 3.39278e-13 -1.4727e-13 0 3.20429e-16
1147 14 0.001 -0.0176333 -0.00096425 -0.046791 -1.18426e-13 3.3786e-13 -1.44525e-13 0 3.20429e-16
1543 16 0.001 0.00236669 -0.00096425 -0.046791 -1.30626e-13 3.40071e-13 -1.43058e-13 0 3.20429e-16
1939 18 0.001 0.0223667 -0.00096425 -0.046791 -1.4086e-13 3.41407e-13 -1.4238e-13 0 3.20429e-16
373 11 0.001 -0.057582 0.000969261 -0.0463456 -2.49759e-14 2.97829e-13 -5.80844e-14 0 6.12858e-17
374 11 0.001 -0.057728 7.56039e-06 -0.0465733 -2.07676e-13 3.56271e-13 -1.00278e-13 0 1.59883e-16
749 12 0.001 -0.0375823 0.000967844 -0.0463454 -4.54213e-14 3.03085e-13 -5.44835e-14 0 6.85055e-17
750 12 0.001 -0.037728 6.06472e-06 -0.0465729 -5.42519e-14 3.41433e-13 -9.12022e-14 0 1.71654e-16
1145 14 0.001 -0.0175823 0.000967844 -0.0463454 7.88254e-15 3.011e-13 -4.97068e-14 0 6.85055e-17
1146 14 0.001 -0.017728 6.06472e-06 -0.0465729 -1.17345e-13 3.35804e-13 -9.56007e-14 0 1.71654e-16
1541 16 0.001 0.00241772 0.000967844 -0.0463454 -4.32102e-14 3.05535e-13 -5.51937e-14 0 6.85055e-17
1542 16 0.001 0.00227202 6.06472e-06 -0.0465729 -9.01615e-14 3.34397e-13 -9.43943e-14 0 1.71654e-16
1937 18 0.001 0.0224177 0.000967844 -0.0463454 -1.30388e-14 3.05027e-13 -5.10568e-14 0 6.85055e-17
1938 18 0.001 0.022272 6.06472e-06 -0.0465729 -9.70641e-14 3.34954e-13 -9.54847e-14 0 1.71654e-16
372 11 0.001 -0.0572054 0.00186301 -0.0461061 2.50304e-14 2.97099e-13 1.4674e-14 0 1.29737e-17
748 12 0.001 -0.037206 0.00186174 -0.0461059 -6.23088e-14 2.87114e-13 2.08386e-15 0 1.5934e-17
1144 14 0.001 -0.017206 0.00186174 -0.0461059 -6.6438e-14 2.92139e-13 3.42656e-15 0 1.5934e-17
1540 16 0.001 0.00279405 0.00186174 -0.0461059 -2.20275e-15 2.89676e-13 1.39525e-14 0 1.5934e-17
1936 18 0.001 0.022794 0.00186174 -0.0461059 -3.50525e-14 2.87427e-13 7.61475e-15 0 1.5934e-17
371 11 0.001 -0.0566222 0.00263379 -0.0458534 3.26285e-14 2.56027e-13 6.01706e-14 0 3.0949e-18
747 12 0.001 -0.0366231 0.00263273 -0.0458533 1.61609e-13 2.292e-13 8.18841e-14 0 2.63886e-18
1143 14 0.001 -0.0166231 0.00263273 -0.0458533 5.77811e-14 2.27792e-13 5.64553e-14 0 2.63887e-18
1539 16 0.001 0.00337694 0.00263273 -0.0458533 1.62306e-14 2.28844e-13 4.77999e-14 0 2.63887e-18
1935 18 0.001 0.0233769 0.00263273 -0.0458533 3.18732e-14 2.31368e-13 5.26939e-14 0 2.63887e-18
370 11 0.001 -0.0558694 0.00323433 -0.0455876 8.28437e-14 2.18551e-13 1.10277e-13 0 1.19691e-17
369 11 0.001 -0.0549942 0.00362792 -0.0453098 -1.43593e-14 1.15185e-13 9.63231e-14 0 2.14135e-17
368 11 0.001 -0.0540514 0.00379068 -0.0450222 6.17082e-14 6.48681e-14 1.31088e-13 0 2.15259e-17
367 11 0.001 -0.0531001 0.00371299 -0.0447275 1.95366e-13 1.48093e-14 1.62615e-13 0 1.27922e-17
745 12 0.001 -0.0349954 0.00362743 -0.0453098 2.45543e-13 1.00817e-13 1.75229e-13 0 1.77247e-17
746 12 0.001 -0.0358704 0.00323353 -0.0455876 -1.33589e-13 2.10938e-13 5.09195e-14 0 9.26354e-18
744 12 0.001 -0.0340527 0.00379052 -0.0450222 -5.79814e-14 9.99645e-14 8.90603e-14 0 1.80151e-17
743 12 0.001 -0.0331013 0.00371316 -0.0447274 1.3544e-13 -2.64572e-15 1.44749e-13 0 1.03508e-17
1142 14 0.001 -0.0158704 0.00323353 -0.0455876 3.78412e-14 1.90041e-13 9.4075e-14 0 9.26354e-18
1140 14 0.001 -0.0140527 0.00379052 -0.0450222 2.2264e-14 7.41664e-14 1.1222e-13 0 1.80151e-17
1141 14 0.001 -0.0149954 0.00362743 -0.0453098 1.14e-13 1.43406e-13 1.40646e-13 0 1.77247e-17
1139 14 0.001 -0.0131013 0.00371316 -0.0447274 1.06945e-13 4.40861e-15 1.36132e-13 0 1.03508e-17
1538 16 0.001 0.00412956 0.00323353 -0.0455876 4.8902e-14 1.92955e-13 9.7509e-14 0 9.26354e-18
1537 16 0.001 0.00500461 0.00362743 -0.0453098 9.47979e-14 1.34168e-13 1.34072e-13 0 1.77247e-17
1536 16 0.001 0.00594731 0.00379052 -0.0450222 5.08664e-14 7.78614e-14 1.20835e-13 0 1.80151e-17
1535 16 0.001 0.00689871 0.00371316 -0.0447274 9.36673e-14 6.66171e-15 1.32487e-13 0 1.03508e-17
1933 18 0.001 0.0250046 0.00362743 -0.0453098 1.53929e-13 1.45941e-13 1.52291e-13 0 1.77247e-17
1934 18 0.001 0.0241296 0.00323353 -0.0455876 2.86859e-14 1.88179e-13 9.02395e-14 0 9.26354e-18
1932 18 0.001 0.0259473 0.00379052 -0.0450222 -2.74333e-14 7.2866e-14 9.72164e-14 0 1.80151e-17
1931 18 0.001 0.0268987 0.00371316 -0.0447274 1.28204e-13 4.85269e-15 1.43117e-13 0 1.03508e-17
361 11 0.001 -0.050144 -0.000579712 -0.0429751 -1.40407e-13 -2.27855e-13 -1.40772e-13 0 1.33141e-16
737 12 0.001 -0.0301438 -0.00057847 -0.0429747 -1.41919e-13 -2.04106e-13 -1.43879e-13 0 1.37242e-16
1133 14 0.001 -0.0101438 -0.00057847 -0.0429747 -9.66776e-14 -2.07788e-13 -1.44518e-13 0 1.37242e-16
1529 16 0.001 0.0098562 -0.00057847 -0.0429747 -1.103e-13 -2.15198e-13 -1.43132e-13 0 1.37242e-16
1925 18 0.001 0.0298562 -0.00057847 -0.0429747 -1.40611e-13 -2.06281e-13 -1.44169e-13 0 1.37242e-16
362 11 0.001 -0.0501182 0.000379316 -0.0432537 -6.91076e-14 -1.74604e-13 -1.14187e-13 0 9.54942e-17
363 11 0.001 -0.0503316 0.00131239 -0.0435398 3.41359e-15 -2.04572e-13 -4.5047e-14 0 5.41615e-17
738 12 0.001 -0.0301184 0.00038056 -0.0432533 -5.05085e-14 -1.99285e-13 -1.06235e-13 0 9.94313e-17
739 12 0.001 -0.0303321 0.00131355 -0.0435394 -1.74072e-14 -1.84115e-13 -4.4337e-14 0 5.75359e-17
1134 14 0.001 -0.0101184 0.00038056 -0.0432533 -6.6923e-14 -1.99618e-13 -1.05296e-13 0 9.94313e-17
1135 14 0.001 -0.0103321 0.00131355 -0.0435394 -7.95817e-15 -1.82273e-13 -4.33745e-14 0 5.75359e-17
1530 16 0.001 0.00988164 0.00038056 -0.0432533 -4.91527e-14 -1.94111e-13 -1.0541e-13 0 9.94313e-17
1531 16 0.001 0.00966791 0.00131355 -0.0435394 -1.55903e-14 -1.81887e-13 -4.41365e-14 0 5.75359e-17
1926 18 0.001 0.0298816 0.00038056 -0.0432533 -5.18319e-14 -2.0071e-13 -1.06077e-13 0 9.94313e-17
1927 18 0.001 0.0296679 0.00131355 -0.0435394 9.84374e-15 -1.82579e-13 -4.00922e-14 0 5.75359e-17
365 11 0.001 -0.0514064 0.00287163 -0.0441295 9.48692e-14 -1.2798e-13 7.25819e-14 0 3.96289e-18
364 11 0.001 -0.0507703 0.0021609 -0.0438323 -1.9882e-14 -1.22331e-13 -4.58815e-15 0 2.10391e-17
740 12 0.001 -0.0307711 0.0021619 -0.043832 3.19728e-14 -1.36283e-13 3.19583e-15 0 2.33661e-17
741 12 0.001 -0.0314073 0.00287241 -0.0441293 3.42935e-14 -1.19146e-13 5.93841e-14 0 4.80972e-18
1136 14 0.001 -0.0107711 0.0021619 -0.043832 -1.1545e-14 -1.35236e-13 -6.19272e-15 0 2.33661e-17
1137 14 0.001 -0.0114073 0.00287241 -0.0441293 7.43225e-14 -1.0622e-13 6.59507e-14 0 4.80972e-18
1533 16 0.001 0.00859265 0.00287241 -0.0441293 7.92525e-14 -1.02426e-13 6.57918e-14 0 4.80972e-18
1532 16 0.001 0.00922892 0.0021619 -0.043832 -1.94241e-14 -1.36483e-13 -7.31749e-15 0 2.33661e-17
1928 18 0.001 0.0292289 0.0021619 -0.043832 -1.86468e-14 -1.39249e-13 -6.02081e-15 0 2.33661e-17
1929 18 0.001 0.0285927 0.00287241 -0.0441293 5.53243e-14 -9.88175e-14 6.00659e-14 0 4.80972e-18
366 11 0.001 -0.0521996 0.00340005 -0.0444289 -3.22652e-14 -1.78326e-14 6.39176e-14 0 3.46319e-18
742 12 0.001 -0.0322007 0.00340054 -0.0444287 2.83064e-14 -1.38275e-14 8.04129e-14 0 2.60748e-18
1138 14 0.001 -0.0122007 0.00340054 -0.0444287 1.93576e-14 -2.74567e-14 8.07669e-14 0 2.60748e-18
1534 16 0.001 0.00779929 0.00340054 -0.0444287 2.36202e-14 -3.12381e-14 8.24599e-14 0 2.60748e-18
1930 18 0.001 0.0277993 0.00340054 -0.0444287 3.63677e-14 -3.08952e-14 8.50023e-14 0 2.60748e-18
356 11 0.001 -0.0533256 -0.00380111 -0.0416794 -2.46622e-13 -9.12361e-14 -1.26868e-13 0 7.27985e-17
357 11 0.001 -0.0523995 -0.00352216 -0.0419297 -2.37162e-13 -1.25643e-13 -1.61751e-13 0 1.08332e-16
358 11 0.001 -0.0515717 -0.00302346 -0.0421828 -1.45689e-13 -1.74464e-13 -1.94501e-13 0 1.39847e-16
732 12 0.001 -0.0333243 -0.00380093 -0.041679 -2.48995e-13 -8.42314e-14 -1.19922e-13 0 7.61687e-17
733 12 0.001 -0.0323984 -0.00352166 -0.0419293 -1.97802e-13 -1.22591e-13 -1.66223e-13 0 1.11924e-16
734 12 0.001 -0.0315708 -0.00302269 -0.0421824 -2.28838e-13 -1.69162e-13 -1.74899e-13 0 1.43583e-16
1128 14 0.001 -0.0133243 -0.00380093 -0.041679 -2.30254e-13 -8.72956e-14 -1.24742e-13 0 7.61687e-17
1129 14 0.001 -0.0123984 -0.00352166 -0.0419293 -2.04686e-13 -1.17148e-13 -1.65679e-13 0 1.11924e-16
1130 14 0.001 -0.0115708 -0.00302269 -0.0421824 -2.06675e-13 -1.68759e-13 -1.79213e-13 0 1.43583e-16
1524 16 0.001 0.00667565 -0.00380093 -0.041679 -2.26056e-13 -8.39103e-14 -1.25559e-13 0 7.61687e-17
1525 16 0.001 0.00760159 -0.00352166 -0.0419293 -2.02895e-13 -1.30384e-13 -1.64796e-13 0 1.11924e-16
1526 16 0.001 0.00842922 -0.00302269 -0.0421824 -2.13517e-13 -1.58589e-13 -1.79102e-13 0 1.43583e-16
1920 18 0.001 0.0266757 -0.00380093 -0.041679 -2.33466e-13 -8.28656e-14 -1.24287e-13 0 7.61687e-17
1921 18 0.001 0.0276016 -0.00352166 -0.0419293 -2.16176e-13 -1.27626e-13 -1.62054e-13 0 1.11924e-16
1922 18 0.001 0.0284292 -0.00302269 -0.0421824 -1.9182e-13 -1.60665e-13 -1.82822e-13 0 1.43583e-16
359 11 0.001 -0.0508938 -0.00233643 -0.0424405 -2.59191e-13 -1.90289e-13 -1.79975e-13 0 1.57959e-16
360 11 0.001 -0.0504078 -0.00150437 -0.0427042 -6.66781e-14 -2.12002e-13 -1.84275e-13 0 1.55992e-16
735 12 0.001 -0.030893 -0.00233544 -0.0424401 -1.60189e-13 -1.90119e-13 -1.88604e-13 0 1.61838e-16
736 12 0.001 -0.0304074 -0.00150321 -0.0427038 -1.14925e-13 -2.07179e-13 -1.75179e-13 0 1.60022e-16
1131 14 0.001 -0.010893 -0.00233544 -0.0424401 -1.64672e-13 -2.00295e-13 -1.85003e-13 0 1.61838e-16
1132 14 0.001 -0.0104074 -0.00150321 -0.0427038 -1.51242e-13 -1.99567e-13 -1.74733e-13 0 1.60022e-16
1527 16 0.001 0.00910696 -0.00233544 -0.0424401 -1.6153e-13 -2.01334e-13 -1.85674e-13 0 1.61838e-16
1528 16 0.001 0.00959263 -0.00150321 -0.0427038 -1.46892e-13 -1.98862e-13 -1.74657e-13 0 1.60022e-16
1923 18 0.001 0.029107 -0.00233544 -0.0424401 -1.82535e-13 -1.96432e-13 -1.84392e-13 0 1.61838e-16
1924 18 0.001 0.0295926 -0.00150321 -0.0427038 -1.15642e-13 -2.0612e-13 -1.7473e-13 0 1.60022e-16
353 11 0.001 -0.0561066 -0.00321889 -0.0409279 -1.3054e-13 8.31184e-14 -6.46248e-15 0 7.32609e-18
355 11 0.001 -0.0542921 -0.00384279 -0.04143 -1.98107e-13 -3.85414e-14 -8.99971e-14 0 4.16456e-17
354 11 0.001 -0.0552387 -0.00364457 -0.0411799 -2.03917e-13 -4.44112e-14 -5.17327e-14 0 1.96548e-17
729 12 0.001 -0.0361056 -0.00321966 -0.0409275 -1.69458e-13 3.30726e-14 -5.93438e-15 0 9.06497e-18
730 12 0.001 -0.0352376 -0.00364504 -0.0411796 -1.71424e-13 -1.03425e-15 -4.8344e-14 0 2.20726e-17
731 12 0.001 -0.0342908 -0.00384293 -0.0414296 -1.71546e-13 -6.73657e-14 -9.68778e-14 0 4.46329e-17
1125 14 0.001 -0.0161056 -0.00321966 -0.0409275 -1.24898e-13 3.06467e-14 -1.55287e-14 0 9.06497e-18
1126 14 0.001 -0.0152376 -0.00364504 -0.0411796 -1.78482e-13 -1.06999e-14 -4.77278e-14 0 2.20726e-17
1127 14 0.001 -0.0142908 -0.00384293 -0.0414296 -2.10483e-13 -5.46561e-14 -8.62484e-14 0 4.46329e-17
1521 16 0.001 0.00389438 -0.00321966 -0.0409275 -1.46981e-13 2.85217e-14 -1.22587e-14 0 9.06497e-18
1523 16 0.001 0.00570919 -0.00384293 -0.0414296 -2.05789e-13 -5.22748e-14 -8.83426e-14 0 4.46329e-17
1522 16 0.001 0.00476244 -0.00364504 -0.0411796 -1.81634e-13 -1.00855e-14 -4.59202e-14 0 2.20726e-17
1917 18 0.001 0.0238944 -0.00321966 -0.0409275 -1.1535e-13 3.30396e-14 -1.71612e-14 0 9.06497e-18
1918 18 0.001 0.0247624 -0.00364504 -0.0411796 -2.0477e-13 -9.46772e-15 -4.14436e-14 0 2.20726e-17
1919 18 0.001 0.0257092 -0.00384293 -0.0414296 -1.8593e-13 -5.6503e-14 -9.22664e-14 0 4.46329e-17
351 11 0.001 -0.0573987 -0.00180431 -0.0404144 2.05251e-15 8.7921e-14 3.63405e-14 0 6.2008e-19
352 11 0.001 -0.0568418 -0.00259242 -0.0406728 -1.73914e-13 2.75692e-14 2.64945e-14 0 2.1046e-18
727 12 0.001 -0.0373982 -0.00180553 -0.040414 1.24213e-14 7.68913e-14 3.51972e-14 0 1.42534e-18
728 12 0.001 -0.036841 -0.00259345 -0.0406725 -1.6222e-13 5.97249e-14 3.3382e-14 0 3.23053e-18
1123 14 0.001 -0.0173982 -0.00180553 -0.040414 -4.73535e-14 7.14655e-14 3.88724e-14 0 1.42534e-18
1124 14 0.001 -0.016841 -0.00259345 -0.0406725 -1.65385e-13 6.53666e-14 3.68468e-14 0 3.23053e-18
1519 16 0.001 0.00260184 -0.00180553 -0.040414 -7.41901e-14 6.95321e-14 4.17144e-14 0 1.42534e-18
1520 16 0.001 0.00315897 -0.00259345 -0.0406725 -1.30585e-13 6.84236e-14 3.19461e-14 0 3.23053e-18
1915 18 0.001 0.0226018 -0.00180553 -0.040414 -3.82605e-14 6.96465e-14 3.73613e-14 0 1.42534e-18
1916 18 0.001 0.023159 -0.00259345 -0.0406725 -1.74261e-13 6.66908e-14 3.84358e-14 0 3.23053e-18
350 11 0.001 -0.0577428 -0.00090375 -0.0401524 -7.16002e-14 1.06966e-13 5.32536e-14 0 7.68687e-19
726 12 0.001 -0.0377425 -0.000905087 -0.040152 -9.93217e-14 1.26185e-13 5.8019e-14 0 1.7493e-18
1122 14 0.001 -0.0177425 -0.000905087 -0.040152 -4.62164e-14 1.27818e-13 5.41426e-14 0 1.7493e-18
1518 16 0.001 0.00225746 -0.000905087 -0.040152 -2.94118e-14 1.27938e-13 5.27855e-14 0 1.7493e-18
1914 18 0.001 0.0222575 -0.000905087 -0.040152 -4.83183e-14 1.24375e-13 5.32656e-14 0 1.7493e-18
348 11 0.001 -0.0577222 0.0010067 -0.0396196 1.43934e-13 1.16935e-13 3.40768e-14 0 8.52435e-18
349 11 0.001 -0.0578528 5.31279e-05 -0.0398873 -2.10971e-14 1.09757e-13 3.72571e-14 0 2.71859e-18
724 12 0.001 -0.0377226 0.00100537 -0.0396192 6.61348e-14 8.19648e-14 2.12944e-15 0 1.16491e-17
725 12 0.001 -0.0378529 5.175e-05 -0.0398869 2.82577e-14 9.81761e-14 4.48527e-14 0 4.48082e-18
1120 14 0.001 -0.0177226 0.00100537 -0.0396192 8.94762e-14 7.61391e-14 5.80456e-15 0 1.16491e-17
1121 14 0.001 -0.0178529 5.175e-05 -0.0398869 2.60147e-14 1.07434e-13 4.7198e-14 0 4.48082e-18
1516 16 0.001 0.00227736 0.00100537 -0.0396192 7.40494e-14 8.25585e-14 4.9697e-15 0 1.16491e-17
1517 16 0.001 0.00214708 5.175e-05 -0.0398869 2.23667e-14 1.0263e-13 4.7167e-14 0 4.48082e-18
1912 18 0.001 0.0222774 0.00100537 -0.0396192 8.5195e-14 8.36731e-14 7.45532e-15 0 1.16491e-17
1913 18 0.001 0.0221471 5.175e-05 -0.0398869 2.86752e-14 1.07515e-13 4.74642e-14 0 4.48082e-18
347 11 0.001 -0.0573592 0.00189758 -0.0393502 8.47931e-14 1.0901e-13 -1.85534e-14 0 2.06905e-17
346 11 0.001 -0.0567865 0.00267022 -0.0390799 2.20834e-13 5.87536e-14 -2.70848e-14 0 4.04551e-17
722 12 0.001 -0.0367875 0.00266922 -0.0390795 1.11689e-13 8.54412e-14 -5.6451e-14 0 4.73149e-17
723 12 0.001 -0.0373599 0.00189637 -0.0393498 1.63252e-13 1.10256e-13 1.36861e-14 0 2.55988e-17
1118 14 0.001 -0.0167875 0.00266922 -0.0390795 1.64729e-13 7.12944e-14 -5.07779e-14 0 4.73149e-17
1119 14 0.001 -0.0173599 0.00189637 -0.0393498 9.84995e-14 1.1434e-13 4.92295e-15 0 2.55988e-17
1515 16 0.001 0.00264007 0.00189637 -0.0393498 1.20552e-13 1.09325e-13 6.87377e-15 0 2.55988e-17
1514 16 0.001 0.00321248 0.00266922 -0.0390795 1.61657e-13 7.87894e-14 -4.91229e-14 0 4.73149e-17
1910 18 0.001 0.0232125 0.00266922 -0.0390795 1.35649e-13 7.91721e-14 -5.41042e-14 0 4.73149e-17
1911 18 0.001 0.0226401 0.00189637 -0.0393498 1.15482e-13 1.04685e-13 5.18756e-15 0 2.55988e-17
345 11 0.001 -0.0560399 0.00327646 -0.0388096 1.24943e-13 7.93069e-14 -9.00722e-14 0 6.66184e-17
344 11 0.001 -0.055166 0.00367841 -0.0385399 2.39915e-13 9.17526e-17 -1.03199e-13 0 9.54441e-17
721 12 0.001 -0.0360411 0.00327571 -0.0388092 2.50553e-13 4.94195e-14 -5.90509e-14 0 7.53185e-17
720 12 0.001 -0.0351674 0.00367797 -0.0385395 2.20016e-13 2.1638e-14 -1.01438e-13 0 1.05635e-16
1117 14 0.001 -0.0160411 0.00327571 -0.0388092 2.09717e-13 5.2587e-14 -6.71146e-14 0 7.53185e-17
1116 14 0.001 -0.0151674 0.00367797 -0.0385395 2.29886e-13 2.47347e-14 -9.88062e-14 0 1.05635e-16
1513 16 0.001 0.00395887 0.00327571 -0.0388092 1.97136e-13 4.99863e-14 -7.07467e-14 0 7.53185e-17
1512 16 0.001 0.00483265 0.00367797 -0.0385395 2.33666e-13 2.13478e-14 -9.84255e-14 0 1.05635e-16
1909 18 0.001 0.0239589 0.00327571 -0.0388092 2.12026e-13 4.43068e-14 -6.92213e-14 0 7.53185e-17
1908 18 0.001 0.0248326 0.00367797 -0.0385395 2.52639e-13 2.96586e-14 -9.21757e-14 0 1.05635e-16
338 11 0.001 -0.0504183 0.00140508 -0.0369491 7.46764e-14 -1.29726e-13 -8.43797e-14 0 1.072e-16
714 12 0.001 -0.0304188 0.00140636 -0.0369488 8.31523e-14 -1.4009e-13 -7.94965e-14 0 1.16706e-16
1110 14 0.001 -0.0104188 0.00140636 -0.0369488 1.25132e-13 -1.32361e-13 -7.74689e-14 0 1.16706e-16
1506 16 0.001 0.00958117 0.00140636 -0.0369488 1.26755e-13 -1.35397e-13 -7.71691e-14 0 1.16706e-16
1902 18 0.001 0.0295812 0.00140636 -0.0369488 1.42732e-13 -1.30713e-13 -7.68552e-14 0 1.16706e-16
340 11 0.001 -0.051535 0.00295783 -0.0374747 1.85585e-13 -1.03636e-13 -1.2776e-13 0 1.42671e-16
339 11 0.001 -0.050879 0.00225179 -0.0372116 1.77486e-13 -1.61098e-13 -8.72768e-14 0 1.28026e-16
716 12 0.001 -0.0315361 0.0029587 -0.0374743 1.81116e-13 -1.11695e-13 -1.22533e-13 0 1.53795e-16
715 12 0.001 -0.0308798 0.00225291 -0.0372112 1.89865e-13 -1.55925e-13 -8.17173e-14 0 1.38422e-16
1111 14 0.001 -0.0108798 0.00225291 -0.0372112 1.56205e-13 -1.67608e-13 -8.39819e-14 0 1.38422e-16
1112 14 0.001 -0.0115361 0.0029587 -0.0374743 2.04184e-13 -1.11634e-13 -1.18333e-13 0 1.53795e-16
1508 16 0.001 0.00846394 0.0029587 -0.0374743 1.83403e-13 -1.20295e-13 -1.21021e-13 0 1.53795e-16
1507 16 0.001 0.00912019 0.00225291 -0.0372112 1.72076e-13 -1.60538e-13 -8.24573e-14 0 1.38422e-16
1904 18 0.001 0.0284639 0.0029587 -0.0374743 1.67912e-13 -1.15355e-13 -1.2496e-13 0 1.53795e-16
1903 18 0.001 0.0291202 0.00225291 -0.0372112 1.69626e-13 -1.64501e-13 -8.14492e-14 0 1.38422e-16
343 11 0.001 -0.0542193 0.00385091 -0.0382714 2.40466e-13 -3.77962e-14 -1.21618e-13 0 1.21658e-16
342 11 0.001 -0.0532591 0.00378309 -0.0380044 2.08755e-13 -4.05672e-14 -1.43571e-13 0 1.40101e-16
341 11 0.001 -0.0523452 0.0034791 -0.0377388 2.66089e-13 -1.13778e-13 -1.13743e-13 0 1.47348e-16
719 12 0.001 -0.0342207 0.00385081 -0.038271 1.6301e-13 -2.01241e-14 -1.44729e-13 0 1.3284e-16
718 12 0.001 -0.0332605 0.00378334 -0.038004 2.65687e-13 -7.09108e-14 -1.21297e-13 0 1.51729e-16
717 12 0.001 -0.0323465 0.00347968 -0.0377385 2.21176e-13 -9.53355e-14 -1.27863e-13 0 1.58924e-16
1115 14 0.001 -0.0142207 0.00385081 -0.038271 2.00224e-13 -3.12106e-14 -1.35401e-13 0 1.3284e-16
1113 14 0.001 -0.0123465 0.00347968 -0.0377385 2.09506e-13 -9.40487e-14 -1.31915e-13 0 1.58924e-16
1114 14 0.001 -0.0132605 0.00378334 -0.038004 2.43848e-13 -5.76313e-14 -1.26143e-13 0 1.5173e-16
1511 16 0.001 0.00577925 0.00385081 -0.038271 2.0286e-13 -2.75039e-14 -1.34402e-13 0 1.3284e-16
1510 16 0.001 0.00673954 0.00378334 -0.038004 2.44565e-13 -6.48805e-14 -1.25697e-13 0 1.5173e-16
1509 16 0.001 0.00765349 0.00347968 -0.0377385 2.16965e-13 -8.42766e-14 -1.31225e-13 0 1.58924e-16
1907 18 0.001 0.0257793 0.00385081 -0.038271 1.99053e-13 -3.35841e-14 -1.35636e-13 0 1.3284e-16
1906 18 0.001 0.0267395 0.00378334 -0.038004 2.20206e-13 -5.55303e-14 -1.32262e-13 0 1.5173e-16
1905 18 0.001 0.0276535 0.00347968 -0.0377385 2.42657e-13 -9.32196e-14 -1.24514e-13 0 1.58924e-16
333 11 0.001 -0.0515492 -0.00297299 -0.0356333 -1.86446e-13 -7.24598e-14 5.5268e-14 0 2.75327e-17
334 11 0.001 -0.0508899 -0.00227059 -0.0358978 5.68624e-14 -1.11296e-13 4.9815e-15 0 3.47989e-17
709 12 0.001 -0.0315481 -0.00297212 -0.0356329 -2.22839e-14 -3.86745e-14 9.8019e-15 0 3.3261e-17
710 12 0.001 -0.0308891 -0.00226948 -0.0358975 -8.66146e-15 -1.27357e-13 2.71296e-14 0 4.093e-17
1105 14 0.001 -0.0115481 -0.00297212 -0.0356329 -2.99284e-14 -4.246e-14 1.44853e-14 0 3.3261e-17
1106 14 0.001 -0.0108891 -0.00226948 -0.0358975 -5.398e-14 -1.19078e-13 3.02443e-14 0 4.093e-17
1501 16 0.001 0.00845191 -0.00297212 -0.0356329 -1.51966e-14 -4.1618e-14 1.1586e-14 0 3.3261e-17
1502 16 0.001 0.00911093 -0.00226948 -0.0358975 -7.01173e-14 -1.23577e-13 3.35491e-14 0 4.093e-17
1897 18 0.001 0.0284519 -0.00297212 -0.0356329 -2.37377e-14 -3.5531e-14 1.22589e-14 0 3.3261e-17
1898 18 0.001 0.0291109 -0.00226948 -0.0358975 -6.85743e-14 -1.29571e-13 3.43732e-14 0 4.093e-17
335 11 0.001 -0.0504252 -0.00142649 -0.0361615 -6.18546e-14 -8.69585e-14 1.51152e-14 0 4.67546e-17
336 11 0.001 -0.0501841 -0.000493346 -0.0364245 8.45e-14 -1.83061e-13 -1.48911e-14 0 6.3601e-17
711 12 0.001 -0.0304247 -0.0014252 -0.0361612 -5.26449e-14 -1.23918e-13 1.66e-14 0 5.35416e-17
712 12 0.001 -0.0301839 -0.000491976 -0.0364242 4.08712e-14 -1.66893e-13 -7.35612e-15 0 7.12216e-17
1107 14 0.001 -0.0104247 -0.0014252 -0.0361612 -7.27698e-15 -1.32853e-13 1.38618e-14 0 5.35416e-17
1108 14 0.001 -0.0101839 -0.000491976 -0.0364242 3.98342e-14 -1.59068e-13 -7.75148e-15 0 7.12216e-17
1503 16 0.001 0.00957533 -0.0014252 -0.0361612 7.25465e-15 -1.29403e-13 1.1703e-14 0 5.35416e-17
1504 16 0.001 0.00981606 -0.000491976 -0.0364242 3.44056e-14 -1.60745e-13 -6.62749e-15 0 7.12216e-17
1899 18 0.001 0.0295753 -0.0014252 -0.0361612 1.46389e-14 -1.2487e-13 1.03766e-14 0 5.35416e-17
1900 18 0.001 0.0298161 -0.000491976 -0.0364242 2.31261e-14 -1.6133e-13 -5.95121e-15 0 7.12216e-17
337 11 0.001 -0.0501818 0.000470575 -0.0366869 9.82604e-14 -1.78621e-13 -1.84747e-14 0 8.45083e-17
713 12 0.001 -0.0301819 0.000471944 -0.0366866 1.1321e-13 -1.55143e-13 -2.91853e-14 0 9.30616e-17
1109 14 0.001 -0.0101819 0.000471944 -0.0366866 7.75015e-14 -1.58949e-13 -2.99318e-14 0 9.30616e-17
1505 16 0.001 0.00981806 0.000471944 -0.0366866 7.12316e-14 -1.58087e-13 -3.06074e-14 0 9.30616e-17
1901 18 0.001 0.0298181 0.000471944 -0.0366866 6.61112e-14 -1.63391e-13 -3.02137e-14 0 9.30616e-17
328 11 0.001 -0.0560568 -0.00326767 -0.0343021 -8.48282e-14 1.06966e-13 -7.20425e-14 0 4.42091e-17
329 11 0.001 -0.0551842 -0.00367433 -0.0345687 -2.40057e-13 9.63985e-14 -5.78283e-15 0 3.4777e-17
330 11 0.001 -0.0542379 -0.00385182 -0.0348354 -1.3519e-13 7.18496e-14 -1.13838e-14 0 2.81658e-17
331 11 0.001 -0.0532772 -0.00378903 -0.0351019 1.89863e-14 1.31842e-14 -3.04434e-14 0 2.46387e-17
332 11 0.001 -0.0523619 -0.00348988 -0.0353679 -1.21166e-13 -8.08107e-14 3.34655e-14 0 2.4331e-17
704 12 0.001 -0.0360556 -0.00326852 -0.0343016 7.43985e-14 1.22952e-13 -1.04714e-13 0 5.26396e-17
705 12 0.001 -0.0351828 -0.00367485 -0.0345682 -1.84142e-13 7.33262e-14 -2.82078e-14 0 4.21437e-17
706 12 0.001 -0.0342364 -0.00385197 -0.0348349 -2.24213e-13 5.7173e-14 1.62145e-14 0 3.46575e-17
707 12 0.001 -0.0332757 -0.00378882 -0.0351014 3.13439e-14 7.01061e-15 -3.53609e-14 0 3.05366e-17
708 12 0.001 -0.0323605 -0.00348932 -0.0353675 -2.14127e-13 -5.68102e-14 5.45708e-14 0 2.99711e-17
1100 14 0.001 -0.0160556 -0.00326852 -0.0343016 -9.14769e-14 1.17077e-13 -7.02553e-14 0 5.26396e-17
1101 14 0.001 -0.0151828 -0.00367485 -0.0345682 -1.25373e-13 9.08945e-14 -3.66188e-14 0 4.21437e-17
1102 14 0.001 -0.0142364 -0.00385197 -0.0348349 -1.33019e-13 4.30725e-14 -1.29601e-14 0 3.46575e-17
1104 14 0.001 -0.0123605 -0.00348932 -0.0353675 -1.22238e-13 -4.92215e-14 3.03363e-14 0 2.99711e-17
1103 14 0.001 -0.0132757 -0.00378882 -0.0351014 -1.1142e-13 1.59259e-16 4.33097e-15 0 3.05366e-17
1496 16 0.001 0.00394441 -0.00326852 -0.0343016 -8.80239e-14 1.12298e-13 -7.27881e-14 0 5.26396e-17
1497 16 0.001 0.00481724 -0.00367485 -0.0345682 -1.28723e-13 8.81373e-14 -3.48074e-14 0 4.21437e-17
1498 16 0.001 0.00576356 -0.00385197 -0.0348349 -1.19363e-13 4.68809e-14 -1.84125e-14 0 3.46575e-17
1499 16 0.001 0.00672429 -0.00378882 -0.0351014 -1.25557e-13 -4.67767e-15 9.7808e-15 0 3.05366e-17
1500 16 0.001 0.00763945 -0.00348932 -0.0353675 -1.28041e-13 -4.58248e-14 3.05238e-14 0 2.99711e-17
1892 18 0.001 0.0239444 -0.00326852 -0.0343016 -6.41383e-14 1.20744e-13 -7.58452e-14 0 5.26396e-17
1893 18 0.001 0.0248172 -0.00367485 -0.0345682 -1.28372e-13 8.83877e-14 -3.53118e-14 0 4.21437e-17
1894 18 0.001 0.0257636 -0.00385197 -0.0348349 -1.22633e-13 3.91043e-14 -1.74561e-14 0 3.46575e-17
1895 18 0.001 0.0267243 -0.00378882 -0.0351014 -1.31112e-13 2.94779e-15 1.09416e-14 0 3.05366e-17
1896 18 0.001 0.0276395 -0.00348932 -0.0353675 -1.14197e-13 -4.92964e-14 2.76562e-14 0 2.99711e-17
327 11 0.001 -0.0568014 -0.0026572 -0.0340358 -5.15082e-14 1.29825e-13 -1.01717e-13 0 5.58099e-17
703 12 0.001 -0.0368004 -0.00265834 -0.0340353 -2.90078e-13 1.60123e-13 -4.53708e-14 0 6.53798e-17
1099 14 0.001 -0.0168004 -0.00265834 -0.0340353 -1.42104e-13 1.57587e-13 -7.47855e-14 0 6.53798e-17