ITEM: TIMESTEP
200000
ITEM: NUMBER OF ATOMS
1970
ITEM: BOX BOUNDS ff ff ff
-6.0000000000000005e-02 6.0000000000000005e-02
-6.0000000000000001e-03 6.0000000000000001e-03
-5.5000000000000000e-02 5.5000000000000000e-02
ITEM: ATOMS id type radius x y z fx fy fz c_bendingE c_stretchingE
384 11 0.001 -0.0510154 -0.00260159 -0.0490841 -1.08387e-10 3.47475e-11 -2.73299e-11 0 1.46981e-14
385 11 0.001 -0.0504563 -0.00182318 -0.049366 -7.57658e-11 3.20816e-11 3.391e-11 0 1.91764e-14
760 12 0.001 -0.0310154 -0.00260159 -0.0490841 -1.08351e-10 3.4751e-11 -2.73349e-11 0 1.46981e-14
761 12 0.001 -0.0304563 -0.00182318 -0.049366 -7.5783e-11 3.20855e-11 3.39101e-11 0 1.91764e-14
1156 14 0.001 -0.0110154 -0.00260159 -0.0490841 -1.08404e-10 3.47423e-11 -2.73265e-11 0 1.46981e-14
1157 14 0.001 -0.0104563 -0.00182318 -0.049366 -7.57763e-11 3.20824e-11 3.39098e-11 0 1.91764e-14
1552 16 0.001 0.00898463 -0.00260159 -0.0490841 -1.0841e-10 3.47446e-11 -2.73263e-11 0 1.46981e-14
1553 16 0.001 0.00954374 -0.00182318 -0.049366 -7.57764e-11 3.20797e-11 3.39106e-11 0 1.91764e-14
1948 18 0.001 0.0289846 -0.00260159 -0.0490841 -1.08352e-10 3.47398e-11 -2.73316e-11 0 1.46981e-14
1949 18 0.001 0.0295437 -0.00182318 -0.049366 -7.58112e-11 3.20843e-11 3.39116e-11 0 1.91764e-14
2 2 0.001 -0.05 -4.31175e-17 -0.05 -2.82123e-05 3.74422e-05 1.99795e-06 0 2.11872e-14
386 11 0.001 -0.050111 -0.000937082 -0.049672 -4.01682e-11 2.13962e-11 4.54474e-11 0 2.74639e-14
762 12 0.001 -0.030111 -0.000937082 -0.049672 -4.01652e-11 2.1391e-11 4.5449e-11 0 2.74639e-14
4 4 0.001 -0.03 -4.31175e-17 -0.05 -2.82123e-05 3.74422e-05 1.99795e-06 0 2.11872e-14
6 6 0.001 -0.01 -4.31175e-17 -0.05 -2.82123e-05 3.74422e-05 1.99795e-06 0 2.11872e-14
1158 14 0.001 -0.010111 -0.000937082 -0.049672 -4.01536e-11 2.13943e-11 4.54478e-11 0 2.74639e-14
8 8 0.001 0.01 -4.31175e-17 -0.05 -2.82123e-05 3.74422e-05 1.99795e-06 0 2.11872e-14
1554 16 0.001 0.00988897 -0.000937082 -0.049672 -4.01525e-11 2.13968e-11 4.5447e-11 0 2.74639e-14
10 10 0.001 0.03 -4.31175e-17 -0.05 -2.82123e-05 3.74422e-05 1.99795e-06 0 2.11872e-14
1950 18 0.001 0.029889 -0.000937082 -0.049672 -4.01412e-11 2.13934e-11 4.54478e-11 0 2.74639e-14
378 11 0.001 -0.0563186 -0.00301224 -0.0476799 -1.30905e-10 4.37626e-11 -7.88833e-11 0 4.69918e-14
379 11 0.001 -0.055486 -0.00351265 -0.0479132 -1.57923e-10 5.27716e-11 -1.90639e-10 0 4.01876e-14
380 11 0.001 -0.0545541 -0.00379418 -0.0481376 -1.74242e-10 5.20191e-11 -2.56564e-10 0 2.9848e-14
381 11 0.001 -0.0535811 -0.00383876 -0.0483594 -1.75616e-10 4.489e-11 -2.60169e-10 0 1.70297e-14
382 11 0.001 -0.0526279 -0.00364367 -0.048586 -1.62222e-10 3.78185e-11 -2.06109e-10 0 5.56604e-15
383 11 0.001 -0.0517544 -0.00322197 -0.0488254 -1.38168e-10 3.48517e-11 -1.17621e-10 0 2.22794e-15
754 12 0.001 -0.0363186 -0.00301224 -0.0476799 -1.30851e-10 4.37522e-11 -7.88937e-11 0 4.69918e-14
755 12 0.001 -0.035486 -0.00351265 -0.0479132 -1.57943e-10 5.27684e-11 -1.90636e-10 0 4.01876e-14
756 12 0.001 -0.0345541 -0.00379418 -0.0481376 -1.74238e-10 5.2018e-11 -2.56565e-10 0 2.9848e-14
757 12 0.001 -0.0335811 -0.00383876 -0.0483594 -1.75671e-10 4.48943e-11 -2.60157e-10 0 1.70297e-14
758 12 0.001 -0.0326279 -0.00364367 -0.048586 -1.62146e-10 3.78185e-11 -2.06125e-10 0 5.56604e-15
759 12 0.001 -0.0317544 -0.00322197 -0.0488254 -1.38217e-10 3.48489e-11 -1.17612e-10 0 2.22794e-15
1151 14 0.001 -0.015486 -0.00351265 -0.0479132 -1.57914e-10 5.27791e-11 -1.90639e-10 0 4.01876e-14
1150 14 0.001 -0.0163186 -0.00301224 -0.0476799 -1.30924e-10 4.375e-11 -7.88834e-11 0 4.69918e-14
1152 14 0.001 -0.0145541 -0.00379418 -0.0481376 -1.74255e-10 5.20138e-11 -2.56562e-10 0 2.9848e-14
1153 14 0.001 -0.0135811 -0.00383876 -0.0483594 -1.75625e-10 4.48921e-11 -2.60166e-10 0 1.70297e-14
1154 14 0.001 -0.0126279 -0.00364367 -0.048586 -1.62214e-10 3.78169e-11 -2.06111e-10 0 5.56604e-15
1155 14 0.001 -0.0117544 -0.00322197 -0.0488254 -1.38143e-10 3.48591e-11 -1.17625e-10 0 2.22794e-15
1546 16 0.001 0.00368139 -0.00301224 -0.0476799 -1.30912e-10 4.37525e-11 -7.8884e-11 0 4.69918e-14
1547 16 0.001 0.00451398 -0.00351265 -0.0479132 -1.57914e-10 5.27785e-11 -1.9064e-10 0 4.01876e-14
1548 16 0.001 0.00544585 -0.00379418 -0.0481376 -1.74265e-10 5.20133e-11 -2.56559e-10 0 2.9848e-14
1549 16 0.001 0.00641893 -0.00383876 -0.0483594 -1.75623e-10 4.48936e-11 -2.60167e-10 0 1.70297e-14
1550 16 0.001 0.00737213 -0.00364367 -0.048586 -1.62213e-10 3.78162e-11 -2.06112e-10 0 5.56604e-15
1551 16 0.001 0.00824555 -0.00322197 -0.0488254 -1.38134e-10 3.48587e-11 -1.17626e-10 0 2.22794e-15
1942 18 0.001 0.0236814 -0.00301224 -0.0476799 -1.30911e-10 4.37528e-11 -7.88845e-11 0 4.69918e-14
1943 18 0.001 0.024514 -0.00351265 -0.0479132 -1.57937e-10 5.27802e-11 -1.90635e-10 0 4.01876e-14
1944 18 0.001 0.0254459 -0.00379418 -0.0481376 -1.74248e-10 5.20206e-11 -2.56563e-10 0 2.9848e-14
1945 18 0.001 0.0264189 -0.00383876 -0.0483594 -1.75621e-10 4.48888e-11 -2.60168e-10 0 1.70297e-14
1946 18 0.001 0.0273721 -0.00364367 -0.048586 -1.62197e-10 3.78091e-11 -2.06113e-10 0 5.56604e-15
1947 18 0.001 0.0282456 -0.00322197 -0.0488254 -1.38187e-10 3.4867e-11 -1.1762e-10 0 2.22794e-15
377 11 0.001 -0.0570005 -0.00232477 -0.0474342 -9.94867e-11 2.75802e-11 4.61532e-11 0 5.07222e-14
753 12 0.001 -0.0370005 -0.00232477 -0.0474342 -9.95452e-11 2.76057e-11 4.61667e-11 0 5.07222e-14
1149 14 0.001 -0.0170005 -0.00232477 -0.0474342 -9.94638e-11 2.75912e-11 4.61529e-11 0 5.07222e-14
1545 16 0.001 0.00299945 -0.00232477 -0.0474342 -9.9485e-11 2.75906e-11 4.61548e-11 0 5.07222e-14
1941 18 0.001 0.0229995 -0.00232477 -0.0474342 -9.94693e-11 2.75868e-11 4.61526e-11 0 5.07222e-14
376 11 0.001 -0.0574903 -0.00149343 -0.0471752 -6.85724e-11 1.18213e-11 1.47014e-10 0 5.21822e-14
375 11 0.001 -0.0577582 -0.000569846 -0.0469046 -4.00439e-11 4.46099e-12 1.94234e-10 0 5.19165e-14
751 12 0.001 -0.0377582 -0.000569846 -0.0469046 -3.99973e-11 4.45658e-12 1.94234e-10 0 5.19165e-14
752 12 0.001 -0.0374903 -0.00149343 -0.0471752 -6.85601e-11 1.18103e-11 1.47008e-10 0 5.21822e-14
1148 14 0.001 -0.0174903 -0.00149343 -0.0471752 -6.85698e-11 1.18206e-11 1.47015e-10 0 5.21822e-14
1147 14 0.001 -0.0177582 -0.000569846 -0.0469046 -4.00734e-11 4.45868e-12 1.94233e-10 0 5.19165e-14
1544 16 0.001 0.00250974 -0.00149343 -0.0471752 -6.85559e-11 1.18173e-11 1.47013e-10 0 5.21822e-14
1543 16 0.001 0.00224179 -0.000569846 -0.0469046 -4.00641e-11 4.45997e-12 1.94234e-10 0 5.19165e-14
1939 18 0.001 0.0222418 -0.000569846 -0.0469046 -4.00444e-11 4.46161e-12 1.94234e-10 0 5.19165e-14
1940 18 0.001 0.0225097 -0.00149343 -0.0471752 -6.85757e-11 1.18166e-11 1.47013e-10 0 5.21822e-14
373 11 0.001 -0.0575795 0.00132401 -0.0463428 1.26081e-11 2.48691e-11 1.049e-10 0 4.66741e-14
374 11 0.001 -0.0577884 0.000388993 -0.0466258 -1.34148e-11 9.49354e-12 1.76595e-10 0 5.00995e-14
749 12 0.001 -0.0375795 0.00132401 -0.0463428 1.26663e-11 2.48612e-11 1.04903e-10 0 4.66741e-14
750 12 0.001 -0.0377884 0.000388993 -0.0466258 -1.34795e-11 9.49815e-12 1.76593e-10 0 5.00995e-14
1145 14 0.001 -0.0175795 0.00132401 -0.0463428 1.26084e-11 2.48737e-11 1.04903e-10 0 4.66741e-14
1146 14 0.001 -0.0177884 0.000388993 -0.0466258 -1.33816e-11 9.49179e-12 1.76595e-10 0 5.00995e-14
1541 16 0.001 0.00242054 0.00132401 -0.0463428 1.26256e-11 2.48682e-11 1.04902e-10 0 4.66741e-14
1542 16 0.001 0.00221156 0.000388993 -0.0466258 -1.34077e-11 9.49378e-12 1.76594e-10 0 5.00995e-14
1937 18 0.001 0.0224205 0.00132401 -0.0463428 1.26392e-11 2.48698e-11 1.04904e-10 0 4.66741e-14
1938 18 0.001 0.0222116 0.000388993 -0.0466258 -1.34245e-11 9.49284e-12 1.76594e-10 0 5.00995e-14
372 11 0.001 -0.0571443 0.00217741 -0.0460593 3.76136e-11 4.37929e-11 7.92736e-12 0 4.15874e-14
748 12 0.001 -0.0371443 0.00217741 -0.0460593 3.75562e-11 4.37995e-11 7.92085e-12 0 4.15874e-14
1144 14 0.001 -0.0171443 0.00217741 -0.0460593 3.756e-11 4.37801e-11 7.91511e-12 0 4.15874e-14
1540 16 0.001 0.00285569 0.00217741 -0.0460593 3.7569e-11 4.3791e-11 7.91966e-12 0 4.15874e-14
1936 18 0.001 0.0228557 0.00217741 -0.0460593 3.75573e-11 4.37913e-11 7.91803e-12 0 4.15874e-14
371 11 0.001 -0.05651 0.00289614 -0.045778 5.77599e-11 5.85069e-11 -7.83998e-11 0 3.5036e-14
747 12 0.001 -0.03651 0.00289614 -0.045778 5.77871e-11 5.84944e-11 -7.83988e-11 0 3.5036e-14
1143 14 0.001 -0.01651 0.00289614 -0.045778 5.77932e-11 5.85091e-11 -7.83939e-11 0 3.5036e-14
1539 16 0.001 0.00348998 0.00289614 -0.045778 5.77822e-11 5.85036e-11 -7.83971e-11 0 3.5036e-14
1935 18 0.001 0.02349 0.00289614 -0.045778 5.77963e-11 5.85006e-11 -7.83948e-11 0 3.5036e-14
370 11 0.001 -0.0557161 0.00343513 -0.0455002 6.80237e-11 6.52453e-11 -1.23848e-10 0 2.7611e-14
369 11 0.001 -0.0548122 0.00376037 -0.045226 6.46836e-11 6.54323e-11 -1.14873e-10 0 2.02205e-14
367 11 0.001 -0.0529048 0.00370168 -0.0446848 2.56834e-11 6.3395e-11 2.08945e-11 0 8.90746e-15
368 11 0.001 -0.053855 0.00385118 -0.0449546 4.85303e-11 6.36753e-11 -5.86816e-11 0 1.37877e-14
745 12 0.001 -0.0348122 0.00376037 -0.045226 6.46724e-11 6.54333e-11 -1.14876e-10 0 2.02205e-14
746 12 0.001 -0.0357161 0.00343513 -0.0455002 6.80397e-11 6.52574e-11 -1.23841e-10 0 2.7611e-14
744 12 0.001 -0.033855 0.00385118 -0.0449546 4.85292e-11 6.36708e-11 -5.86835e-11 0 1.37877e-14
743 12 0.001 -0.0329048 0.00370168 -0.0446848 2.5677e-11 6.34002e-11 2.08939e-11 0 8.90746e-15
1142 14 0.001 -0.0157161 0.00343513 -0.0455002 6.80673e-11 6.52544e-11 -1.23836e-10 0 2.7611e-14
1140 14 0.001 -0.013855 0.00385118 -0.0449546 4.85228e-11 6.36688e-11 -5.86847e-11 0 1.37877e-14
1141 14 0.001 -0.0148122 0.00376037 -0.045226 6.46387e-11 6.5435e-11 -1.14884e-10 0 2.02205e-14
1139 14 0.001 -0.0129048 0.00370168 -0.0446848 2.57104e-11 6.33994e-11 2.09021e-11 0 8.90746e-15
1538 16 0.001 0.00428392 0.00343513 -0.0455002 6.80603e-11 6.5254e-11 -1.23838e-10 0 2.7611e-14
1537 16 0.001 0.00518784 0.00376037 -0.045226 6.46397e-11 6.54337e-11 -1.14885e-10 0 2.02205e-14
1535 16 0.001 0.00709518 0.00370168 -0.0446848 2.56998e-11 6.34037e-11 2.0899e-11 0 8.90746e-15
1536 16 0.001 0.00614497 0.00385118 -0.0449546 4.85325e-11 6.36658e-11 -5.86816e-11 0 1.37877e-14
1933 18 0.001 0.0251878 0.00376037 -0.045226 6.46353e-11 6.54295e-11 -1.14886e-10 0 2.02205e-14
1934 18 0.001 0.0242839 0.00343513 -0.0455002 6.8059e-11 6.526e-11 -1.23837e-10 0 2.7611e-14
1932 18 0.001 0.026145 0.00385118 -0.0449546 4.85165e-11 6.36669e-11 -5.86859e-11 0 1.37877e-14
1931 18 0.001 0.0270952 0.00370168 -0.0446848 2.57192e-11 6.34036e-11 2.0904e-11 0 8.90746e-15
361 11 0.001 -0.0502105 -0.000815606 -0.0430768 -2.4032e-11 2.3878e-12 -5.28764e-11 0 4.71672e-15
737 12 0.001 -0.0302105 -0.000815606 -0.0430768 -2.4068e-11 2.38959e-12 -5.28772e-11 0 4.71672e-15
1133 14 0.001 -0.0102105 -0.000815606 -0.0430768 -2.40608e-11 2.38673e-12 -5.28762e-11 0 4.71672e-15
1529 16 0.001 0.00978952 -0.000815606 -0.0430768 -2.40543e-11 2.38518e-12 -5.28758e-11 0 4.71672e-15
1925 18 0.001 0.0297895 -0.000815606 -0.0430768 -2.40669e-11 2.38572e-12 -5.28759e-11 0 4.71672e-15
362 11 0.001 -0.0501258 0.000143705 -0.0433424 -2.41435e-11 1.99848e-11 1.18072e-11 0 3.65173e-15
363 11 0.001 -0.0502812 0.00109368 -0.0436096 -2.32423e-11 3.89451e-11 7.96365e-11 0 3.09158e-15
738 12 0.001 -0.0301258 0.000143705 -0.0433424 -2.40569e-11 1.99814e-11 1.181e-11 0 3.65173e-15
739 12 0.001 -0.0302812 0.00109368 -0.0436096 -2.33276e-11 3.89411e-11 7.96318e-11 0 3.09158e-15
1134 14 0.001 -0.0101258 0.000143705 -0.0433424 -2.4079e-11 1.9993e-11 1.18084e-11 0 3.65173e-15
1135 14 0.001 -0.0102812 0.00109368 -0.0436096 -2.33197e-11 3.89387e-11 7.96308e-11 0 3.09158e-15
1530 16 0.001 0.00987425 0.000143705 -0.0433424 -2.40857e-11 1.99881e-11 1.18088e-11 0 3.65173e-15
1531 16 0.001 0.00971877 0.00109368 -0.0436096 -2.33159e-11 3.89463e-11 7.96299e-11 0 3.09158e-15
1926 18 0.001 0.0298742 0.000143705 -0.0433424 -2.40709e-11 1.99872e-11 1.18087e-11 0 3.65173e-15
1927 18 0.001 0.0297188 0.00109368 -0.0436096 -2.33162e-11 3.89442e-11 7.96318e-11 0 3.09158e-15
365 11 0.001 -0.0512594 0.00273346 -0.0441467 -1.20808e-11 6.22196e-11 1.32132e-10 0 3.88733e-15
364 11 0.001 -0.0506671 0.00197521 -0.0438779 -2.04061e-11 5.4064e-11 1.25969e-10 0 3.11763e-15
740 12 0.001 -0.0306671 0.00197521 -0.0438779 -2.03612e-11 5.4071e-11 1.25972e-10 0 3.11763e-15
741 12 0.001 -0.0312594 0.00273346 -0.0441467 -1.20939e-11 6.22255e-11 1.3213e-10 0 3.88733e-15
1136 14 0.001 -0.0106671 0.00197521 -0.0438779 -2.03727e-11 5.40689e-11 1.25972e-10 0 3.11763e-15
1137 14 0.001 -0.0112594 0.00273346 -0.0441467 -1.20658e-11 6.22175e-11 1.32136e-10 0 3.88733e-15
1533 16 0.001 0.00874056 0.00273346 -0.0441467 -1.20748e-11 6.22211e-11 1.32134e-10 0 3.88733e-15
1532 16 0.001 0.00933286 0.00197521 -0.0438779 -2.03707e-11 5.40637e-11 1.25973e-10 0 3.11763e-15
1928 18 0.001 0.0293329 0.00197521 -0.0438779 -2.03821e-11 5.40597e-11 1.25971e-10 0 3.11763e-15
1929 18 0.001 0.0287406 0.00273346 -0.0441467 -1.20586e-11 6.22282e-11 1.32136e-10 0 3.88733e-15
366 11 0.001 -0.0520212 0.00332118 -0.0444157 3.68989e-12 6.41392e-11 9.31111e-11 0 5.69269e-15
742 12 0.001 -0.0320212 0.00332118 -0.0444157 3.69823e-12 6.41277e-11 9.31139e-11 0 5.69269e-15
1138 14 0.001 -0.0120212 0.00332118 -0.0444157 3.66493e-12 6.41332e-11 9.31055e-11 0 5.69269e-15
1534 16 0.001 0.00797882 0.00332118 -0.0444157 3.67833e-12 6.41302e-11 9.31092e-11 0 5.69269e-15
1930 18 0.001 0.0279788 0.00332118 -0.0444157 3.66321e-12 6.41272e-11 9.31061e-11 0 5.69269e-15
355 11 0.001 -0.0545388 -0.00382472 -0.0415066 2.88583e-11 -1.58535e-11 5.0439e-11 0 1.63286e-14
356 11 0.001 -0.0535748 -0.00384125 -0.0417679 2.04346e-11 -1.4575e-11 1.99512e-11 0 1.42054e-14
357 11 0.001 -0.0526364 -0.00361882 -0.0420287 7.50111e-12 -1.44245e-11 -2.60194e-11 0 1.2081e-14
358 11 0.001 -0.0517821 -0.00317125 -0.0422894 -6.10882e-12 -1.52972e-11 -7.16125e-11 0 9.99429e-15
731 12 0.001 -0.0345388 -0.00382472 -0.0415066 2.88499e-11 -1.58444e-11 5.04401e-11 0 1.63286e-14
732 12 0.001 -0.0335748 -0.00384125 -0.0417679 2.04295e-11 -1.45868e-11 1.99531e-11 0 1.42054e-14
733 12 0.001 -0.0326364 -0.00361882 -0.0420287 7.49724e-12 -1.4428e-11 -2.60175e-11 0 1.2081e-14
734 12 0.001 -0.0317821 -0.00317125 -0.0422894 -6.12521e-12 -1.52811e-11 -7.16125e-11 0 9.99429e-15
1127 14 0.001 -0.0145388 -0.00382472 -0.0415066 2.88291e-11 -1.58494e-11 5.04449e-11 0 1.63286e-14
1128 14 0.001 -0.0135748 -0.00384125 -0.0417679 2.04449e-11 -1.45813e-11 1.99498e-11 0 1.42054e-14
1129 14 0.001 -0.0126364 -0.00361882 -0.0420287 7.49523e-12 -1.44282e-11 -2.6018e-11 0 1.2081e-14
1130 14 0.001 -0.0117821 -0.00317125 -0.0422894 -6.11265e-12 -1.52884e-11 -7.16131e-11 0 9.99429e-15
1523 16 0.001 0.00546117 -0.00382472 -0.0415066 2.88404e-11 -1.58459e-11 5.04428e-11 0 1.63286e-14
1524 16 0.001 0.00642525 -0.00384125 -0.0417679 2.04424e-11 -1.45772e-11 1.99503e-11 0 1.42054e-14
1525 16 0.001 0.00736361 -0.00361882 -0.0420287 7.49212e-12 -1.44292e-11 -2.60174e-11 0 1.2081e-14
1526 16 0.001 0.00821786 -0.00317125 -0.0422894 -6.10919e-12 -1.52895e-11 -7.16139e-11 0 9.99429e-15
1919 18 0.001 0.0254612 -0.00382472 -0.0415066 2.88103e-11 -1.58525e-11 5.04498e-11 0 1.63286e-14
1920 18 0.001 0.0264252 -0.00384125 -0.0417679 2.04538e-11 -1.45786e-11 1.99478e-11 0 1.42054e-14
1921 18 0.001 0.0273636 -0.00361882 -0.0420287 7.49195e-12 -1.44262e-11 -2.60173e-11 0 1.2081e-14
1922 18 0.001 0.0282179 -0.00317125 -0.0422894 -6.11905e-12 -1.52867e-11 -7.16128e-11 0 9.99429e-15
359 11 0.001 -0.0510652 -0.00252641 -0.0425506 -1.6617e-11 -1.4812e-11 -9.85314e-11 0 8.00382e-15
360 11 0.001 -0.0505302 -0.00172453 -0.0428129 -2.22567e-11 -9.63232e-12 -9.31856e-11 0 6.20461e-15
735 12 0.001 -0.0310652 -0.00252641 -0.0425506 -1.65667e-11 -1.48194e-11 -9.85379e-11 0 8.00382e-15
736 12 0.001 -0.0305302 -0.00172453 -0.0428129 -2.22881e-11 -9.63316e-12 -9.31804e-11 0 6.20461e-15
1131 14 0.001 -0.0110652 -0.00252641 -0.0425506 -1.66041e-11 -1.4814e-11 -9.85334e-11 0 8.00382e-15
1132 14 0.001 -0.0105302 -0.00172453 -0.0428129 -2.22567e-11 -9.63431e-12 -9.31844e-11 0 6.20461e-15
1527 16 0.001 0.00893479 -0.00252641 -0.0425506 -1.65968e-11 -1.48137e-11 -9.85343e-11 0 8.00382e-15
1528 16 0.001 0.00946977 -0.00172453 -0.0428129 -2.22667e-11 -9.63196e-12 -9.31838e-11 0 6.20461e-15
1923 18 0.001 0.0289348 -0.00252641 -0.0425506 -1.6578e-11 -1.48171e-11 -9.85367e-11 0 8.00382e-15
1924 18 0.001 0.0294698 -0.00172453 -0.0428129 -2.22741e-11 -9.62955e-12 -9.31828e-11 0 6.20461e-15
353 11 0.001 -0.0563064 -0.00309392 -0.0409814 2.68743e-11 -1.5765e-11 4.28464e-11 0 2.03427e-14
354 11 0.001 -0.0554687 -0.00357032 -0.0412444 3.07285e-11 -1.67053e-11 5.75102e-11 0 1.84011e-14
729 12 0.001 -0.0363064 -0.00309392 -0.0409814 2.68252e-11 -1.57622e-11 4.28575e-11 0 2.03427e-14
730 12 0.001 -0.0354687 -0.00357032 -0.0412444 3.07772e-11 -1.67082e-11 5.74994e-11 0 1.84011e-14
1125 14 0.001 -0.0163064 -0.00309392 -0.0409814 2.684e-11 -1.57686e-11 4.28536e-11 0 2.03427e-14
1126 14 0.001 -0.0154687 -0.00357032 -0.0412444 3.07776e-11 -1.67006e-11 5.75001e-11 0 1.84011e-14
1521 16 0.001 0.00369356 -0.00309392 -0.0409814 2.68761e-11 -1.57562e-11 4.28482e-11 0 2.03427e-14
1522 16 0.001 0.00453135 -0.00357032 -0.0412444 3.0749e-11 -1.67128e-11 5.75053e-11 0 1.84011e-14
1917 18 0.001 0.0236936 -0.00309392 -0.0409814 2.68572e-11 -1.57538e-11 4.28529e-11 0 2.03427e-14
1918 18 0.001 0.0245313 -0.00357032 -0.0412444 3.07841e-11 -1.67089e-11 5.74971e-11 0 1.84011e-14
351 11 0.001 -0.0575068 -0.0016057 -0.0404534 1.10405e-11 -9.64386e-12 -1.07744e-11 0 2.33827e-14
352 11 0.001 -0.0570002 -0.00242518 -0.0407177 1.95774e-11 -1.28803e-11 1.59177e-11 0 2.20427e-14
727 12 0.001 -0.0375068 -0.0016057 -0.0404534 1.1079e-11 -9.64416e-12 -1.07781e-11 0 2.33827e-14
728 12 0.001 -0.0370002 -0.00242518 -0.0407177 1.95784e-11 -1.28833e-11 1.59156e-11 0 2.20427e-14
1123 14 0.001 -0.0175068 -0.0016057 -0.0404534 1.11068e-11 -9.63261e-12 -1.07774e-11 0 2.33827e-14
1124 14 0.001 -0.0170002 -0.00242518 -0.0407177 1.95627e-11 -1.28869e-11 1.59171e-11 0 2.20427e-14
1519 16 0.001 0.00249325 -0.0016057 -0.0404534 1.11232e-11 -9.6274e-12 -1.07786e-11 0 2.33827e-14
1520 16 0.001 0.00299983 -0.00242518 -0.0407177 1.95323e-11 -1.28973e-11 1.592e-11 0 2.20427e-14
1915 18 0.001 0.0224932 -0.0016057 -0.0404534 1.11494e-11 -9.63171e-12 -1.07821e-11 0 2.33827e-14
1916 18 0.001 0.0229998 -0.00242518 -0.0407177 1.95254e-11 -1.28966e-11 1.59208e-11 0 2.20427e-14
350 11 0.001 -0.0577947 -0.00068643 -0.0401887 2.83843e-12 -7.77364e-12 -2.67292e-11 0 2.42719e-14
726 12 0.001 -0.0377947 -0.00068643 -0.0401887 2.80756e-12 -7.7685e-12 -2.67253e-11 0 2.42719e-14
1122 14 0.001 -0.0177947 -0.00068643 -0.0401887 2.74335e-12 -7.77695e-12 -2.67261e-11 0 2.42719e-14
1518 16 0.001 0.00220527 -0.00068643 -0.0401887 2.74821e-12 -7.77837e-12 -2.6726e-11 0 2.42719e-14
1914 18 0.001 0.0222053 -0.00068643 -0.0401887 2.72413e-12 -7.77801e-12 -2.67244e-11 0 2.42719e-14
348 11 0.001 -0.057658 0.00122006 -0.0396587 -1.47487e-11 -1.02901e-11 -1.36731e-11 0 2.46358e-14
349 11 0.001 -0.0578462 0.000275437 -0.0399238 -5.79063e-12 -8.22197e-12 -2.70852e-11 0 2.46773e-14
724 12 0.001 -0.037658 0.00122006 -0.0396587 -1.46979e-11 -1.0284e-11 -1.36673e-11 0 2.46358e-14
725 12 0.001 -0.0378462 0.000275437 -0.0399238 -5.80761e-12 -8.22421e-12 -2.7088e-11 0 2.46773e-14
1120 14 0.001 -0.017658 0.00122006 -0.0396587 -1.47874e-11 -1.028e-11 -1.36718e-11 0 2.46358e-14
1121 14 0.001 -0.0178462 0.000275437 -0.0399238 -5.70674e-12 -8.2265e-12 -2.7086e-11 0 2.46773e-14
1516 16 0.001 0.00234195 0.00122006 -0.0396587 -1.47925e-11 -1.02784e-11 -1.36729e-11 0 2.46358e-14
1517 16 0.001 0.00215378 0.000275437 -0.0399238 -5.72059e-12 -8.22692e-12 -2.70861e-11 0 2.46773e-14
1912 18 0.001 0.022342 0.00122006 -0.0396587 -1.47738e-11 -1.02764e-11 -1.36707e-11 0 2.46358e-14
1913 18 0.001 0.0221538 0.000275437 -0.0399238 -5.71664e-12 -8.22303e-12 -2.70858e-11 0 2.46773e-14
347 11 0.001 -0.0572419 0.00208864 -0.0393933 -2.42561e-11 -1.20764e-11 6.74873e-12 0 2.42431e-14
346 11 0.001 -0.0566238 0.00282714 -0.0391276 -3.27927e-11 -1.18561e-11 2.5802e-11 0 2.36258e-14
722 12 0.001 -0.0366238 0.00282714 -0.0391276 -3.28144e-11 -1.18543e-11 2.57977e-11 0 2.36258e-14
723 12 0.001 -0.0372419 0.00208864 -0.0393933 -2.42783e-11 -1.20843e-11 6.74544e-12 0 2.42431e-14
1118 14 0.001 -0.0166238 0.00282714 -0.0391276 -3.27829e-11 -1.18565e-11 2.58044e-11 0 2.36258e-14
1119 14 0.001 -0.0172419 0.00208864 -0.0393933 -2.42585e-11 -1.20875e-11 6.74464e-12 0 2.42431e-14
1515 16 0.001 0.00275806 0.00208864 -0.0393933 -2.42243e-11 -1.20898e-11 6.74968e-12 0 2.42431e-14
1514 16 0.001 0.00337618 0.00282714 -0.0391276 -3.28322e-11 -1.18487e-11 2.5796e-11 0 2.36258e-14
1910 18 0.001 0.0233762 0.00282714 -0.0391276 -3.28336e-11 -1.18484e-11 2.5794e-11 0 2.36258e-14
1911 18 0.001 0.0227581 0.00208864 -0.0393933 -2.42457e-11 -1.20974e-11 6.74617e-12 0 2.42431e-14
345 11 0.001 -0.0558422 0.00338959 -0.0388617 -3.89371e-11 -8.78165e-12 3.68962e-11 0 2.291e-14
344 11 0.001 -0.0549457 0.003741 -0.0385956 -4.13509e-11 -3.33733e-12 3.75204e-11 0 2.21976e-14
720 12 0.001 -0.0349457 0.003741 -0.0385956 -4.13083e-11 -3.34607e-12 3.75324e-11 0 2.21976e-14
721 12 0.001 -0.0358422 0.00338959 -0.0388617 -3.89356e-11 -8.78263e-12 3.68951e-11 0 2.291e-14
1117 14 0.001 -0.0158422 0.00338959 -0.0388617 -3.89521e-11 -8.77551e-12 3.68926e-11 0 2.291e-14
1116 14 0.001 -0.0149457 0.003741 -0.0385956 -4.13048e-11 -3.34441e-12 3.75338e-11 0 2.21976e-14
1513 16 0.001 0.00415783 0.00338959 -0.0388617 -3.89116e-11 -8.7868e-12 3.69003e-11 0 2.291e-14
1512 16 0.001 0.00505434 0.003741 -0.0385956 -4.13226e-11 -3.33908e-12 3.75297e-11 0 2.21976e-14
1908 18 0.001 0.0250543 0.003741 -0.0385956 -4.13253e-11 -3.34409e-12 3.75282e-11 0 2.21976e-14
1909 18 0.001 0.0241578 0.00338959 -0.0388617 -3.88982e-11 -8.78138e-12 3.69053e-11 0 2.291e-14
338 11 0.001 -0.0503311 0.00120787 -0.0369996 -7.95575e-12 3.53688e-11 5.82334e-12 0 2.00784e-14
714 12 0.001 -0.0303311 0.00120787 -0.0369996 -7.95488e-12 3.53613e-11 5.82292e-12 0 2.00784e-14
1110 14 0.001 -0.0103311 0.00120787 -0.0369996 -7.98297e-12 3.53535e-11 5.82329e-12 0 2.00784e-14
1506 16 0.001 0.00966892 0.00120787 -0.0369996 -7.96057e-12 3.53565e-11 5.82515e-12 0 2.00784e-14
1902 18 0.001 0.0296689 0.00120787 -0.0369996 -7.98962e-12 3.53642e-11 5.82049e-12 0 2.00784e-14
340 11 0.001 -0.0513599 0.00281831 -0.037531 -2.32689e-11 2.3759e-11 6.82998e-13 0 2.03153e-14
339 11 0.001 -0.0507443 0.00207778 -0.0372652 -1.59837e-11 2.99475e-11 9.74764e-13 0 2.01393e-14
715 12 0.001 -0.0307443 0.00207778 -0.0372652 -1.59679e-11 2.99503e-11 9.76779e-13 0 2.01393e-14
716 12 0.001 -0.0313599 0.00281831 -0.037531 -2.32495e-11 2.37587e-11 6.87335e-13 0 2.03153e-14
1111 14 0.001 -0.0107443 0.00207778 -0.0372652 -1.5942e-11 2.99646e-11 9.78053e-13 0 2.01393e-14
1112 14 0.001 -0.0113599 0.00281831 -0.037531 -2.32952e-11 2.37513e-11 6.79672e-13 0 2.03153e-14
1508 16 0.001 0.00864009 0.00281831 -0.037531 -2.32791e-11 2.37516e-11 6.80691e-13 0 2.03153e-14
1507 16 0.001 0.00925572 0.00207778 -0.0372652 -1.59814e-11 2.99649e-11 9.72716e-13 0 2.01393e-14
1903 18 0.001 0.0292557 0.00207778 -0.0372652 -1.59631e-11 2.99578e-11 9.75762e-13 0 2.01393e-14
1904 18 0.001 0.0286401 0.00281831 -0.037531 -2.3249e-11 2.37502e-11 6.88849e-13 0 2.03153e-14
342 11 0.001 -0.0530349 0.00373779 -0.0380632 -3.58591e-11 1.03626e-11 1.73317e-11 0 2.10226e-14
343 11 0.001 -0.0539901 0.00385953 -0.0383294 -3.99227e-11 3.36726e-12 2.94693e-11 0 2.15565e-14
341 11 0.001 -0.0521396 0.00338336 -0.037797 -2.98874e-11 1.71427e-11 6.53013e-12 0 2.06087e-14
719 12 0.001 -0.0339901 0.00385953 -0.0383294 -3.99751e-11 3.37927e-12 2.94549e-11 0 2.15565e-14
718 12 0.001 -0.0330349 0.00373779 -0.0380632 -3.57978e-11 1.03598e-11 1.73476e-11 0 2.10226e-14
717 12 0.001 -0.0321396 0.00338336 -0.037797 -2.99479e-11 1.7143e-11 6.51574e-12 0 2.06087e-14
1115 14 0.001 -0.0139901 0.00385953 -0.0383294 -3.99757e-11 3.37445e-12 2.94538e-11 0 2.15565e-14
1113 14 0.001 -0.0121396 0.00338336 -0.037797 -2.99128e-11 1.71433e-11 6.52294e-12 0 2.06087e-14
1114 14 0.001 -0.0130349 0.00373779 -0.0380632 -3.58115e-11 1.03623e-11 1.73446e-11 0 2.10226e-14
1510 16 0.001 0.00696506 0.00373779 -0.0380632 -3.58202e-11 1.0356e-11 1.73421e-11 0 2.10226e-14
1511 16 0.001 0.0060099 0.00385953 -0.0383294 -3.99725e-11 3.37585e-12 2.94554e-11 0 2.15565e-14
1509 16 0.001 0.00786036 0.00338336 -0.037797 -2.98996e-11 1.71475e-11 6.52719e-12 0 2.06087e-14
1907 18 0.001 0.0260099 0.00385953 -0.0383294 -3.99648e-11 3.37789e-12 2.94573e-11 0 2.15565e-14
1906 18 0.001 0.0269651 0.00373779 -0.0380632 -3.58248e-11 1.03656e-11 1.73403e-11 0 2.10226e-14
1905 18 0.001 0.0278604 0.00338336 -0.037797 -2.99354e-11 1.71408e-11 6.51875e-12 0 2.06087e-14
333 11 0.001 -0.0516963 -0.00310099 -0.0356737 3.10393e-11 2.54402e-11 1.35263e-11 0 2.13177e-14
709 12 0.001 -0.0316963 -0.00310099 -0.0356737 3.09973e-11 2.54426e-11 1.35358e-11 0 2.13177e-14
1105 14 0.001 -0.0116963 -0.00310099 -0.0356737 3.10427e-11 2.5444e-11 1.3525e-11 0 2.13177e-14
1501 16 0.001 0.00830367 -0.00310099 -0.0356737 3.105e-11 2.54369e-11 1.35249e-11 0 2.13177e-14
1897 18 0.001 0.0283037 -0.00310099 -0.0356737 3.1067e-11 2.54326e-11 1.35219e-11 0 2.13177e-14
334 11 0.001 -0.0510007 -0.00243474 -0.0359387 2.55699e-11 3.26835e-11 1.7383e-11 0 2.09048e-14
335 11 0.001 -0.0504916 -0.00161708 -0.0362038 1.82881e-11 3.7669e-11 1.9077e-11 0 2.05557e-14
710 12 0.001 -0.0310007 -0.00243474 -0.0359387 2.55814e-11 3.26824e-11 1.73814e-11 0 2.09048e-14
711 12 0.001 -0.0304916 -0.00161708 -0.0362038 1.82843e-11 3.76765e-11 1.90739e-11 0 2.05557e-14
1106 14 0.001 -0.0110007 -0.00243474 -0.0359387 2.55711e-11 3.26826e-11 1.73839e-11 0 2.09048e-14
1107 14 0.001 -0.0104916 -0.00161708 -0.0362038 1.82699e-11 3.76689e-11 1.90785e-11 0 2.05557e-14
1502 16 0.001 0.00899929 -0.00243474 -0.0359387 2.55685e-11 3.2687e-11 1.73836e-11 0 2.09048e-14
1503 16 0.001 0.0095084 -0.00161708 -0.0362038 1.82699e-11 3.76693e-11 1.90783e-11 0 2.05557e-14
1898 18 0.001 0.0289993 -0.00243474 -0.0359387 2.5542e-11 3.26981e-11 1.73852e-11 0 2.09048e-14
1899 18 0.001 0.0295084 -0.00161708 -0.0362038 1.83064e-11 3.76593e-11 1.90771e-11 0 2.05557e-14
336 11 0.001 -0.0502007 -0.000698891 -0.0364689 9.76518e-12 3.98335e-11 1.73173e-11 0 2.02926e-14
712 12 0.001 -0.0302007 -0.000698891 -0.0364689 9.79581e-12 3.98312e-11 1.73181e-11 0 2.02926e-14
1108 14 0.001 -0.0102007 -0.000698891 -0.0364689 9.77971e-12 3.98315e-11 1.73164e-11 0 2.02926e-14
1504 16 0.001 0.00979932 -0.000698891 -0.0364689 9.77904e-12 3.98301e-11 1.73167e-11 0 2.02926e-14
1900 18 0.001 0.0297993 -0.000698891 -0.0364689 9.74456e-12 3.98332e-11 1.73178e-11 0 2.02926e-14
337 11 0.001 -0.050146 0.000262705 -0.0367342 7.70046e-13 3.88979e-11 1.22968e-11 0 2.01306e-14
713 12 0.001 -0.030146 0.000262705 -0.0367342 7.33626e-13 3.89001e-11 1.22968e-11 0 2.01306e-14
1109 14 0.001 -0.010146 0.000262705 -0.0367342 7.76726e-13 3.89033e-11 1.2297e-11 0 2.01306e-14
1505 16 0.001 0.00985396 0.000262705 -0.0367342 7.74655e-13 3.89016e-11 1.22971e-11 0 2.01306e-14
1901 18 0.001 0.029854 0.000262705 -0.0367342 7.99064e-13 3.88985e-11 1.22983e-11 0 2.01306e-14
328 11 0.001 -0.0562163 -0.00316295 -0.0343491 3.06982e-11 -2.0318e-11 9.17902e-12 0 2.34426e-14
329 11 0.001 -0.0553648 -0.00361318 -0.034614 3.45036e-11 -1.16951e-11 6.99324e-12 0 2.30819e-14
330 11 0.001 -0.0544283 -0.00383871 -0.0348789 3.63511e-11 -2.26818e-12 5.81639e-12 0 2.26726e-14
332 11 0.001 -0.0525352 -0.0035744 -0.0354087 3.46694e-11 1.67856e-11 9.35193e-12 0 2.1768e-14
331 11 0.001 -0.0534651 -0.00382552 -0.0351438 3.64666e-11 7.36584e-12 6.51159e-12 0 2.2228e-14
704 12 0.001 -0.0362163 -0.00316295 -0.0343491 3.07009e-11 -2.03238e-11 9.17759e-12 0 2.34426e-14
705 12 0.001 -0.0353648 -0.00361318 -0.034614 3.45221e-11 -1.16827e-11 6.98974e-12 0 2.30819e-14
706 12 0.001 -0.0344283 -0.00383871 -0.0348789 3.63555e-11 -2.2877e-12 5.81422e-12 0 2.26726e-14
707 12 0.001 -0.0334651 -0.00382552 -0.0351438 3.64426e-11 7.38662e-12 6.51733e-12 0 2.2228e-14
708 12 0.001 -0.0325352 -0.0035744 -0.0354087 3.4709e-11 1.67695e-11 9.34333e-12 0 2.1768e-14
1100 14 0.001 -0.0162163 -0.00316295 -0.0343491 3.06629e-11 -2.03198e-11 9.18717e-12 0 2.34426e-14
1101 14 0.001 -0.0153648 -0.00361318 -0.034614 3.45076e-11 -1.16763e-11 6.99418e-12 0 2.30819e-14
1102 14 0.001 -0.0144283 -0.00383871 -0.0348789 3.64067e-11 -2.28965e-12 5.80081e-12 0 2.26726e-14
1104 14 0.001 -0.0125352 -0.0035744 -0.0354087 3.46765e-11 1.67758e-11 9.3512e-12 0 2.1768e-14
1103 14 0.001 -0.0134651 -0.00382552 -0.0351438 3.64246e-11 7.37981e-12 6.52186e-12 0 2.2228e-14
1496 16 0.001 0.00378368 -0.00316295 -0.0343491 3.06666e-11 -2.03192e-11 9.18611e-12 0 2.34426e-14
1497 16 0.001 0.00463523 -0.00361318 -0.034614 3.45098e-11 -1.16786e-11 6.99406e-12 0 2.30819e-14
1498 16 0.001 0.0055717 -0.00383871 -0.0348789 3.64042e-11 -2.28289e-12 5.80071e-12 0 2.26726e-14
1500 16 0.001 0.0074648 -0.0035744 -0.0354087 3.46641e-11 1.67822e-11 9.35303e-12 0 2.1768e-14
1499 16 0.001 0.00653486 -0.00382552 -0.0351438 3.64344e-11 7.37035e-12 6.52037e-12 0 2.2228e-14
1892 18 0.001 0.0237837 -0.00316295 -0.0343491 3.0671e-11 -2.03164e-11 9.18619e-12 0 2.34426e-14
1893 18 0.001 0.0246352 -0.00361318 -0.034614 3.45317e-11 -1.16833e-11 6.98753e-12 0 2.30819e-14
1894 18 0.001 0.0255717 -0.00383871 -0.0348789 3.63803e-11 -2.28279e-12 5.80784e-12 0 2.26726e-14
1895 18 0.001 0.0265349 -0.00382552 -0.0351438 3.64397e-11 7.3711e-12 6.51815e-12 0 2.2228e-14
1896 18 0.001 0.0274648 -0.0035744 -0.0354087 3.46584e-11 1.67849e-11 9.35477e-12 0 2.1768e-14
327 11 0.001 -0.05693 -0.00251602 -0.0340841 2.4935e-11 -2.75313e-11 1.12889e-11 0 2.37473e-14
703 12 0.001 -0.03693 -0.00251602 -0.0340841 2.49074e-11 -2.7532e-11 1.12943e-11 0 2.37473e-14
1099 14 0.001 -0.01693 -0.00251602 -0.0340841 2.49195e-11 -2.75357e-11 1.12888e-11 0 2.37473e-14
1495 16 0.001 0.00307002 -0.00251602 -0.0340841 2.49112e-11 -2.7536e-11 1.1291e-11 0 2.37473e-14
1891 18 0.001 0.02307 -0.00251602 -0.0340841 2.48966e-11 -2.75361e-11 1.12931e-11 0 2.37473e-14