ITEM: TIMESTEP
7500000
ITEM: NUMBER OF ATOMS
1970
ITEM: BOX BOUNDS ff ff ff
-6.0000000000000005e-02 6.0000000000000005e-02
-6.0000000000000001e-03 6.0000000000000001e-03
-5.5000000000000000e-02 5.5000000000000000e-02
ITEM: ATOMS id type radius x y z fx fy fz c_bendingE c_stretchingE
384 11 0.001 -0.050817 -0.00263816 -0.0489946 -2.99399e-13 6.69763e-14 -9.47868e-14 0 2.12577e-17
385 11 0.001 -0.0503184 -0.00183515 -0.0493181 -1.64249e-13 2.42213e-14 -4.76617e-14 0 9.61532e-15
760 12 0.001 -0.0308166 -0.00263811 -0.0489942 -2.30941e-13 7.18933e-14 -8.34473e-14 0 2.13687e-17
761 12 0.001 -0.0303181 -0.00183508 -0.0493178 -2.02477e-13 1.40943e-14 -2.95892e-14 0 9.51945e-15
1156 14 0.001 -0.0108166 -0.00263811 -0.0489942 -2.62721e-13 7.2508e-14 -7.90137e-14 0 2.13687e-17
1157 14 0.001 -0.0103181 -0.00183508 -0.0493178 -1.8081e-13 1.01063e-14 -3.08649e-14 0 9.51945e-15
1552 16 0.001 0.00918342 -0.00263811 -0.0489942 -2.6021e-13 7.43443e-14 -8.02644e-14 0 2.13687e-17
1553 16 0.001 0.00968185 -0.00183508 -0.0493178 -1.75144e-13 1.40534e-14 -3.20846e-14 0 9.51945e-15
1948 18 0.001 0.0291834 -0.00263811 -0.0489942 -2.31956e-13 6.48544e-14 -8.1138e-14 0 2.13687e-17
1949 18 0.001 0.0296819 -0.00183508 -0.0493178 -1.96236e-13 1.54684e-14 -3.07362e-14 0 9.51945e-15
2 2 0.001 -0.05 -4.31175e-17 -0.05 -2.59817e-06 2.78345e-06 1.97341e-06 0 8.52572e-15
386 11 0.001 -0.0500404 -0.000936627 -0.0496549 -1.23556e-13 -3.99293e-14 -4.59119e-16 0 1.81341e-14
762 12 0.001 -0.0300403 -0.000936572 -0.0496547 -8.98206e-14 -1.28759e-14 -4.30275e-16 0 1.79296e-14
4 4 0.001 -0.03 -4.31175e-17 -0.05 -2.62804e-06 2.85482e-06 1.95582e-06 0 8.41938e-15
6 6 0.001 -0.01 -4.31175e-17 -0.05 -2.62804e-06 2.85482e-06 1.95582e-06 0 8.41938e-15
1158 14 0.001 -0.0100403 -0.000936572 -0.0496547 -9.56065e-14 -5.72986e-15 -2.2564e-15 0 1.79296e-14
8 8 0.001 0.01 -4.31175e-17 -0.05 -2.62804e-06 2.85482e-06 1.95582e-06 0 8.41938e-15
1554 16 0.001 0.0099597 -0.000936572 -0.0496547 -1.02705e-13 -1.4242e-14 7.32339e-16 0 1.79296e-14
10 10 0.001 0.03 -4.31175e-17 -0.05 -2.62804e-06 2.85482e-06 1.95582e-06 0 8.41938e-15
1950 18 0.001 0.0299597 -0.000936572 -0.0496547 -9.40614e-14 -5.42509e-15 -2.59372e-15 0 1.79296e-14
379 11 0.001 -0.0551827 -0.00378549 -0.0476518 -4.22517e-13 4.02447e-13 -3.54318e-13 0 9.10026e-16
380 11 0.001 -0.0542388 -0.00401552 -0.0478845 -4.62292e-13 3.21448e-13 -3.12463e-13 0 7.88596e-16
381 11 0.001 -0.0532713 -0.00400654 -0.0481333 -4.78186e-13 2.39261e-13 -2.59692e-13 0 5.69395e-16
382 11 0.001 -0.0523408 -0.00376044 -0.0484008 -3.81927e-13 1.81266e-13 -2.16223e-13 0 3.16244e-16
383 11 0.001 -0.0515053 -0.00329408 -0.0486881 -3.55152e-13 1.04367e-13 -1.46717e-13 0 1.0981e-16
755 12 0.001 -0.0351821 -0.00378591 -0.0476512 -4.09716e-13 3.77075e-13 -3.25836e-13 0 9.18003e-16
756 12 0.001 -0.0342382 -0.00401583 -0.0478839 -4.37347e-13 2.98077e-13 -2.84576e-13 0 7.90796e-16
757 12 0.001 -0.0332707 -0.00400674 -0.0481327 -4.27778e-13 2.37753e-13 -2.37989e-13 0 5.66024e-16
758 12 0.001 -0.0323402 -0.00376053 -0.0484002 -3.74391e-13 1.78626e-13 -1.88485e-13 0 3.0948e-16
759 12 0.001 -0.0315048 -0.00329409 -0.0486876 -3.52503e-13 9.21851e-14 -1.16931e-13 0 1.03785e-16
1151 14 0.001 -0.0151821 -0.00378591 -0.0476512 -4.15597e-13 3.79714e-13 -3.23566e-13 0 9.18003e-16
1152 14 0.001 -0.0142382 -0.00401583 -0.0478839 -4.35195e-13 3.01039e-13 -2.84682e-13 0 7.90796e-16
1153 14 0.001 -0.0132707 -0.00400674 -0.0481327 -4.01387e-13 2.34426e-13 -2.45104e-13 0 5.66024e-16
1154 14 0.001 -0.0123402 -0.00376053 -0.0484002 -4.06222e-13 1.7993e-13 -1.80946e-13 0 3.0948e-16
1155 14 0.001 -0.0115048 -0.00329409 -0.0486876 -3.23553e-13 8.997e-14 -1.21867e-13 0 1.03785e-16
1547 16 0.001 0.00481785 -0.00378591 -0.0476512 -4.10387e-13 3.7573e-13 -3.24826e-13 0 9.18003e-16
1548 16 0.001 0.0057618 -0.00401583 -0.0478839 -4.45777e-13 3.03923e-13 -2.82072e-13 0 7.90796e-16
1549 16 0.001 0.00672929 -0.00400674 -0.0481327 -4.05228e-13 2.32235e-13 -2.44041e-13 0 5.66024e-16
1550 16 0.001 0.00765979 -0.00376053 -0.0484002 -3.85841e-13 1.84545e-13 -1.86322e-13 0 3.0948e-16
1551 16 0.001 0.00849517 -0.00329409 -0.0486876 -3.36539e-13 8.63003e-14 -1.18426e-13 0 1.03785e-16
1943 18 0.001 0.0248179 -0.00378591 -0.0476512 -4.32703e-13 3.75276e-13 -3.20378e-13 0 9.18003e-16
1944 18 0.001 0.0257618 -0.00401583 -0.0478839 -4.32899e-13 3.06023e-13 -2.84775e-13 0 7.90796e-16
1945 18 0.001 0.0267293 -0.00400674 -0.0481327 -4.22176e-13 2.37643e-13 -2.41006e-13 0 5.66024e-16
1946 18 0.001 0.0276598 -0.00376053 -0.0484002 -3.57087e-13 1.7834e-13 -1.91616e-13 0 3.0948e-16
1947 18 0.001 0.0284952 -0.00329409 -0.0486876 -3.67791e-13 9.24782e-14 -1.14318e-13 0 1.03785e-16
378 11 0.001 -0.0560439 -0.00332973 -0.0474314 -4.49038e-13 4.59142e-13 -3.50003e-13 0 9.05118e-16
754 12 0.001 -0.0360434 -0.00333025 -0.0474309 -3.63085e-13 4.49089e-13 -3.36571e-13 0 9.17577e-16
1150 14 0.001 -0.0160434 -0.00333025 -0.0474309 -3.8909e-13 4.42507e-13 -3.34504e-13 0 9.17577e-16
1546 16 0.001 0.00395656 -0.00333025 -0.0474309 -3.8665e-13 4.41232e-13 -3.35159e-13 0 9.17577e-16
1942 18 0.001 0.0239566 -0.00333025 -0.0474309 -3.69212e-13 4.39792e-13 -3.37332e-13 0 9.17577e-16
376 11 0.001 -0.0573117 -0.00186412 -0.0470083 -3.43886e-13 5.57739e-13 -2.97255e-13 0 5.9276e-16
377 11 0.001 -0.0567686 -0.00267587 -0.0472185 -2.99172e-13 5.26022e-13 -3.48894e-13 0 7.85291e-16
753 12 0.001 -0.0367682 -0.00267647 -0.0472181 -3.80073e-13 4.82175e-13 -3.1733e-13 0 8.00121e-16
752 12 0.001 -0.0373114 -0.00186478 -0.047008 -2.63956e-13 5.35368e-13 -2.86804e-13 0 6.07698e-16
1149 14 0.001 -0.0167682 -0.00267647 -0.0472181 -3.51856e-13 4.9429e-13 -3.18361e-13 0 8.00121e-16
1148 14 0.001 -0.0173114 -0.00186478 -0.047008 -2.43316e-13 5.22391e-13 -2.90071e-13 0 6.07698e-16
1544 16 0.001 0.00268861 -0.00186478 -0.047008 -2.67658e-13 5.253e-13 -2.88023e-13 0 6.07698e-16
1545 16 0.001 0.00323176 -0.00267647 -0.0472181 -3.47433e-13 4.96243e-13 -3.18211e-13 0 8.00121e-16
1941 18 0.001 0.0232318 -0.00267647 -0.0472181 -3.38511e-13 4.8991e-13 -3.21757e-13 0 8.00121e-16
1940 18 0.001 0.0226886 -0.00186478 -0.047008 -2.9173e-13 5.32844e-13 -2.8324e-13 0 6.07698e-16
375 11 0.001 -0.0576394 -0.000944668 -0.0467957 -1.86093e-13 5.75418e-13 -2.36267e-13 0 3.82371e-16
751 12 0.001 -0.0376393 -0.000945351 -0.0467955 -1.66705e-13 5.47107e-13 -2.23001e-13 0 3.955e-16
1147 14 0.001 -0.0176393 -0.000945351 -0.0467955 -2.15382e-13 5.48517e-13 -2.21099e-13 0 3.955e-16
1543 16 0.001 0.0023607 -0.000945351 -0.0467955 -1.93454e-13 5.45611e-13 -2.22829e-13 0 3.955e-16
1939 18 0.001 0.0223607 -0.000945351 -0.0467955 -1.7914e-13 5.45186e-13 -2.24316e-13 0 3.955e-16
373 11 0.001 -0.0575843 0.000986634 -0.0463472 -3.39139e-14 5.47236e-13 -6.99803e-14 0 7.97827e-17
374 11 0.001 -0.057732 2.55844e-05 -0.0465765 -1.25829e-13 5.42746e-13 -1.66301e-13 0 2.02166e-16
749 12 0.001 -0.0375844 0.00098599 -0.0463471 5.10498e-15 4.64964e-13 -6.48616e-14 0 8.61679e-17
750 12 0.001 -0.037732 2.49042e-05 -0.0465764 -1.57113e-13 5.27448e-13 -1.55221e-13 0 2.12201e-16
1145 14 0.001 -0.0175844 0.00098599 -0.0463471 -4.83767e-14 4.68873e-13 -7.13647e-14 0 8.61679e-17
1146 14 0.001 -0.017732 2.49042e-05 -0.0465764 -1.25249e-13 5.26796e-13 -1.54829e-13 0 2.12201e-16
1541 16 0.001 0.00241558 0.00098599 -0.0463471 -5.86037e-14 4.69807e-13 -7.26578e-14 0 8.61679e-17
1542 16 0.001 0.00226798 2.49042e-05 -0.0465764 -1.26096e-13 5.29374e-13 -1.5349e-13 0 2.12201e-16
1937 18 0.001 0.0224156 0.00098599 -0.0463471 -5.98818e-14 4.70608e-13 -7.22106e-14 0 8.61679e-17
1938 18 0.001 0.022268 2.49042e-05 -0.0465764 -1.26115e-13 5.25048e-13 -1.54075e-13 0 2.12201e-16
372 11 0.001 -0.0572061 0.00187917 -0.0461056 4.34079e-14 4.67623e-13 1.99207e-14 0 1.85291e-17
748 12 0.001 -0.0372064 0.0018786 -0.0461056 -4.06676e-14 4.62052e-13 4.26345e-15 0 2.13918e-17
1144 14 0.001 -0.0172064 0.0018786 -0.0461056 3.71205e-14 4.62112e-13 1.52778e-14 0 2.13918e-17
1540 16 0.001 0.00279362 0.0018786 -0.0461056 5.12922e-14 4.61542e-13 1.79164e-14 0 2.13918e-17
1936 18 0.001 0.0227936 0.0018786 -0.0461056 4.74416e-14 4.67725e-13 1.80198e-14 0 2.13918e-17
371 11 0.001 -0.0566217 0.00264828 -0.0458507 1.23448e-13 4.02144e-13 9.12166e-14 0 2.74249e-18
747 12 0.001 -0.0366221 0.0026478 -0.0458507 4.1515e-14 3.43747e-13 7.26443e-14 0 2.74986e-18
1143 14 0.001 -0.0166221 0.0026478 -0.0458507 7.79124e-14 3.68683e-13 9.14173e-14 0 2.74986e-18
1539 16 0.001 0.0033779 0.0026478 -0.0458507 6.7241e-14 3.64431e-13 8.84226e-14 0 2.74986e-18
1935 18 0.001 0.0233779 0.0026478 -0.0458507 7.12127e-14 3.58388e-13 8.86175e-14 0 2.74986e-18
370 11 0.001 -0.055868 0.00324676 -0.0455828 7.61025e-14 2.95069e-13 1.23602e-13 0 8.68645e-18
369 11 0.001 -0.0549923 0.00363804 -0.0453033 1.97975e-13 1.95841e-13 1.80268e-13 0 1.58692e-17
368 11 0.001 -0.0540495 0.00379835 -0.0450145 2.11326e-13 8.95562e-14 1.8206e-13 0 1.44292e-17
367 11 0.001 -0.0530985 0.00371817 -0.0447193 2.39229e-13 -5.92896e-15 1.66679e-13 0 6.47262e-18
745 12 0.001 -0.0349929 0.00363782 -0.0453032 1.20211e-13 1.90752e-13 1.63998e-13 0 1.32937e-17
746 12 0.001 -0.0358685 0.0032464 -0.0455828 2.53531e-13 3.02473e-13 1.77697e-13 0 6.84437e-18
744 12 0.001 -0.0340501 0.00379828 -0.0450144 1.724e-13 1.14152e-13 1.77988e-13 0 1.2127e-17
743 12 0.001 -0.0330991 0.00371826 -0.0447192 1.69724e-13 -3.61166e-14 1.52834e-13 0 5.16837e-18
1142 14 0.001 -0.0158685 0.0032464 -0.0455828 1.36485e-13 2.78865e-13 1.41118e-13 0 6.84437e-18
1140 14 0.001 -0.0140501 0.00379828 -0.0450144 2.00275e-13 8.55552e-14 1.86465e-13 0 1.2127e-17
1141 14 0.001 -0.0149929 0.00363782 -0.0453032 1.49877e-13 2.00324e-13 1.72691e-13 0 1.32937e-17
1139 14 0.001 -0.0130991 0.00371826 -0.0447192 1.50859e-13 -1.05403e-14 1.4635e-13 0 5.16837e-18
1538 16 0.001 0.0041315 0.0032464 -0.0455828 1.2343e-13 2.80384e-13 1.37675e-13 0 6.84437e-18
1537 16 0.001 0.00500709 0.00363782 -0.0453032 1.70926e-13 1.97959e-13 1.78436e-13 0 1.32937e-17
1536 16 0.001 0.00594988 0.00379828 -0.0450144 1.91641e-13 9.15079e-14 1.84144e-13 0 1.2127e-17
1535 16 0.001 0.00690092 0.00371826 -0.0447192 1.6206e-13 -1.50751e-14 1.4944e-13 0 5.16837e-18
1933 18 0.001 0.0250071 0.00363782 -0.0453032 1.65911e-13 1.97258e-13 1.77522e-13 0 1.32937e-17
1934 18 0.001 0.0241315 0.0032464 -0.0455828 1.23023e-13 2.84823e-13 1.37337e-13 0 6.84437e-18
1932 18 0.001 0.0259499 0.00379828 -0.0450144 2.01839e-13 8.13169e-14 1.86935e-13 0 1.2127e-17
1931 18 0.001 0.0269009 0.00371826 -0.0447192 1.46954e-13 -8.41698e-16 1.44618e-13 0 5.16837e-18
361 11 0.001 -0.0501507 -0.000584602 -0.0429774 -1.3478e-13 -3.85963e-13 -2.50177e-13 0 1.71575e-16
737 12 0.001 -0.0301506 -0.000584016 -0.0429772 -1.05985e-13 -3.6353e-13 -2.4012e-13 0 1.74691e-16
1133 14 0.001 -0.0101506 -0.000584016 -0.0429772 -1.19227e-13 -3.63542e-13 -2.39153e-13 0 1.74691e-16
1529 16 0.001 0.00984937 -0.000584016 -0.0429772 -1.41986e-13 -3.59828e-13 -2.40123e-13 0 1.74691e-16
1925 18 0.001 0.0298494 -0.000584016 -0.0429772 -1.18402e-13 -3.6553e-13 -2.38558e-13 0 1.74691e-16
362 11 0.001 -0.0501231 0.000375101 -0.0432535 5.91744e-16 -3.81434e-13 -1.84237e-13 0 1.328e-16
363 11 0.001 -0.0503348 0.00130934 -0.0435371 -5.67969e-14 -3.40435e-13 -1.32635e-13 0 8.43496e-17
738 12 0.001 -0.0301232 0.000375688 -0.0432533 -5.36103e-14 -3.53157e-13 -1.81105e-13 0 1.35982e-16
739 12 0.001 -0.030335 0.00130989 -0.0435369 -2.97158e-14 -3.25884e-13 -1.2288e-13 0 8.73359e-17
1134 14 0.001 -0.0101232 0.000375688 -0.0432533 -7.28458e-14 -3.61803e-13 -1.81394e-13 0 1.35982e-16
1135 14 0.001 -0.010335 0.00130989 -0.0435369 1.09142e-14 -3.15076e-13 -1.19593e-13 0 8.73359e-17
1530 16 0.001 0.00987678 0.000375688 -0.0432533 -4.7199e-14 -3.61754e-13 -1.79811e-13 0 1.35982e-16
1531 16 0.001 0.00966496 0.00130989 -0.0435369 -8.29669e-15 -3.1546e-13 -1.21609e-13 0 8.73359e-17
1926 18 0.001 0.0298768 0.000375688 -0.0432533 -6.457e-14 -3.5837e-13 -1.82152e-13 0 1.35982e-16
1927 18 0.001 0.029665 0.00130989 -0.0435369 1.04182e-14 -3.16471e-13 -1.18565e-13 0 8.73359e-17
365 11 0.001 -0.0514066 0.00287217 -0.0441227 1.75611e-13 -2.22637e-13 4.36056e-14 0 1.14675e-17
364 11 0.001 -0.0507719 0.00215947 -0.0438273 9.67386e-14 -2.8055e-13 -3.8076e-14 0 4.018e-17
740 12 0.001 -0.0307723 0.00215994 -0.0438272 1.26248e-13 -2.77264e-13 -1.89305e-14 0 4.25706e-17
741 12 0.001 -0.0314071 0.00287254 -0.0441226 8.22679e-14 -1.91139e-13 2.65884e-14 0 1.28343e-17
1136 14 0.001 -0.0107723 0.00215994 -0.0438272 8.37676e-14 -2.90112e-13 -2.37597e-14 0 4.25706e-17
1137 14 0.001 -0.0114071 0.00287254 -0.0441226 1.06221e-13 -1.80578e-13 2.91794e-14 0 1.28343e-17
1533 16 0.001 0.00859293 0.00287254 -0.0441226 1.10927e-13 -1.83731e-13 3.10447e-14 0 1.28343e-17
1532 16 0.001 0.00922771 0.00215994 -0.0438272 9.13305e-14 -2.88295e-13 -2.29265e-14 0 4.25706e-17
1928 18 0.001 0.0292277 0.00215994 -0.0438272 8.03163e-14 -2.87894e-13 -2.4891e-14 0 4.25706e-17
1929 18 0.001 0.0285929 0.00287254 -0.0441226 9.95718e-14 -1.78947e-13 2.72006e-14 0 1.28343e-17
366 11 0.001 -0.0521987 0.00340282 -0.044421 1.26639e-13 -1.02495e-13 9.30747e-14 0 1.91595e-18
742 12 0.001 -0.0321993 0.00340306 -0.0444209 1.61307e-13 -8.78794e-14 1.09318e-13 0 1.9586e-18
1138 14 0.001 -0.0121993 0.00340306 -0.0444209 1.6393e-13 -9.89036e-14 1.1166e-13 0 1.9586e-18
1534 16 0.001 0.00780073 0.00340306 -0.0444209 1.49566e-13 -9.60016e-14 1.07584e-13 0 1.9586e-18
1930 18 0.001 0.0278007 0.00340306 -0.0444209 1.70813e-13 -1.05836e-13 1.14205e-13 0 1.9586e-18
356 11 0.001 -0.0533378 -0.00380246 -0.0416864 -3.30495e-13 -1.48972e-13 -1.82775e-13 0 7.63276e-17
357 11 0.001 -0.0524115 -0.00352488 -0.0419373 -4.09481e-13 -2.06272e-13 -2.15713e-13 0 1.16277e-16
358 11 0.001 -0.051583 -0.00302734 -0.0421901 -2.60355e-13 -3.05936e-13 -2.75303e-13 0 1.55386e-16
732 12 0.001 -0.0333373 -0.00380238 -0.0416863 -3.03798e-13 -1.30813e-13 -1.76868e-13 0 7.89892e-17
733 12 0.001 -0.032411 -0.00352466 -0.0419371 -3.14181e-13 -2.06291e-13 -2.19178e-13 0 1.19037e-16
734 12 0.001 -0.0315825 -0.00302698 -0.0421899 -3.43642e-13 -2.69389e-13 -2.52534e-13 0 1.58174e-16
1128 14 0.001 -0.0133373 -0.00380238 -0.0416863 -3.40866e-13 -1.36115e-13 -1.66055e-13 0 7.89892e-17
1129 14 0.001 -0.012411 -0.00352466 -0.0419371 -3.1981e-13 -2.0561e-13 -2.20657e-13 0 1.19037e-16
1130 14 0.001 -0.0115825 -0.00302698 -0.0421899 -3.06577e-13 -2.7375e-13 -2.56213e-13 0 1.58174e-16
1524 16 0.001 0.00666275 -0.00380238 -0.0416863 -3.24731e-13 -1.37998e-13 -1.69905e-13 0 7.89892e-17
1525 16 0.001 0.00758901 -0.00352466 -0.0419371 -3.30768e-13 -2.05358e-13 -2.18142e-13 0 1.19037e-16
1526 16 0.001 0.00841751 -0.00302698 -0.0421899 -3.03584e-13 -2.73815e-13 -2.56795e-13 0 1.58174e-16
1920 18 0.001 0.0266627 -0.00380238 -0.0416863 -3.15256e-13 -1.36026e-13 -1.72045e-13 0 7.89892e-17
1921 18 0.001 0.027589 -0.00352466 -0.0419371 -3.3434e-13 -2.02685e-13 -2.17301e-13 0 1.19037e-16
1922 18 0.001 0.0284175 -0.00302698 -0.0421899 -3.06865e-13 -2.77759e-13 -2.57044e-13 0 1.58174e-16
359 11 0.001 -0.0509038 -0.00234112 -0.0424467 -3.04714e-13 -3.28887e-13 -2.82109e-13 0 1.82957e-16
360 11 0.001 -0.0504163 -0.00150941 -0.0427087 -2.11298e-13 -3.93319e-13 -2.73983e-13 0 1.89636e-16
735 12 0.001 -0.0309034 -0.00234065 -0.0424465 -2.29362e-13 -3.43069e-13 -2.729e-13 0 1.85794e-16
736 12 0.001 -0.0304161 -0.00150887 -0.0427086 -2.29498e-13 -3.50177e-13 -2.68494e-13 0 1.92594e-16
1131 14 0.001 -0.0109034 -0.00234065 -0.0424465 -2.62344e-13 -3.28223e-13 -2.73665e-13 0 1.85794e-16
1132 14 0.001 -0.0104161 -0.00150887 -0.0427086 -1.99098e-13 -3.55501e-13 -2.68509e-13 0 1.92594e-16
1527 16 0.001 0.00909657 -0.00234065 -0.0424465 -2.68862e-13 -3.26005e-13 -2.73573e-13 0 1.85794e-16
1528 16 0.001 0.00958391 -0.00150887 -0.0427086 -1.83126e-13 -3.60744e-13 -2.68198e-13 0 1.92594e-16
1923 18 0.001 0.0290966 -0.00234065 -0.0424465 -2.51693e-13 -3.28782e-13 -2.73079e-13 0 1.85794e-16
1924 18 0.001 0.0295839 -0.00150887 -0.0427086 -2.09953e-13 -3.54344e-13 -2.69096e-13 0 1.92594e-16
353 11 0.001 -0.0561167 -0.00321611 -0.0409301 -2.73589e-13 7.99576e-14 -4.87253e-15 0 9.91764e-18
355 11 0.001 -0.0543041 -0.00384267 -0.0414359 -3.54375e-13 -6.85444e-14 -1.12199e-13 0 4.36699e-17
354 11 0.001 -0.05525 -0.00364303 -0.0411842 -3.006e-13 4.57184e-14 -6.0888e-14 0 2.18055e-17
729 12 0.001 -0.0361163 -0.00321649 -0.04093 -2.25174e-13 1.13014e-13 -2.89753e-15 0 1.15678e-17
730 12 0.001 -0.0352495 -0.00364327 -0.041184 -2.705e-13 -5.58594e-16 -5.46068e-14 0 2.38579e-17
731 12 0.001 -0.0343035 -0.00384275 -0.0414357 -3.65754e-13 -6.5059e-14 -9.71729e-14 0 4.60932e-17
1125 14 0.001 -0.0161163 -0.00321649 -0.04093 -2.69932e-13 9.4825e-14 2.5848e-15 0 1.15678e-17
1126 14 0.001 -0.0152495 -0.00364327 -0.041184 -2.76763e-13 8.40383e-15 -5.06933e-14 0 2.38579e-17
1127 14 0.001 -0.0143035 -0.00384275 -0.0414357 -3.23861e-13 -6.11969e-14 -1.08371e-13 0 4.60932e-17
1521 16 0.001 0.00388374 -0.00321649 -0.04093 -2.63904e-13 9.92031e-14 2.6232e-15 0 1.15678e-17
1523 16 0.001 0.00569651 -0.00384275 -0.0414357 -3.35896e-13 -6.07343e-14 -1.05333e-13 0 4.60932e-17
1522 16 0.001 0.00475054 -0.00364327 -0.041184 -2.7456e-13 9.0651e-15 -5.16974e-14 0 2.38579e-17
1917 18 0.001 0.0238837 -0.00321649 -0.04093 -2.82127e-13 9.21593e-14 4.39299e-15 0 1.15678e-17
1918 18 0.001 0.0247505 -0.00364327 -0.041184 -2.54186e-13 8.30024e-15 -5.58903e-14 0 2.38579e-17
1919 18 0.001 0.0256965 -0.00384275 -0.0414357 -3.57058e-13 -6.1281e-14 -1.00309e-13 0 4.60932e-17
351 11 0.001 -0.0574054 -0.00179985 -0.0404128 -7.46915e-14 2.00857e-13 2.94193e-14 0 4.0935e-18
352 11 0.001 -0.0568504 -0.00258864 -0.0406731 -2.25073e-13 1.61095e-13 3.50541e-14 0 4.94e-18
727 12 0.001 -0.0374052 -0.00180044 -0.0404126 -1.16232e-13 1.81523e-13 4.73551e-14 0 5.53971e-18
728 12 0.001 -0.03685 -0.00258914 -0.0406729 -2.06016e-13 1.17359e-13 3.80075e-14 0 6.3274e-18
1123 14 0.001 -0.0174052 -0.00180044 -0.0404126 -1.18278e-13 1.75052e-13 4.66204e-14 0 5.53971e-18
1124 14 0.001 -0.01685 -0.00258914 -0.0406729 -1.63196e-13 1.30962e-13 3.30515e-14 0 6.32741e-18
1519 16 0.001 0.00259484 -0.00180044 -0.0404126 -1.03368e-13 1.79089e-13 4.5826e-14 0 5.53971e-18
1520 16 0.001 0.00315 -0.00258914 -0.0406729 -1.75246e-13 1.23462e-13 3.31745e-14 0 6.32741e-18
1915 18 0.001 0.0225948 -0.00180044 -0.0404126 -1.20946e-13 1.72957e-13 4.70404e-14 0 5.53971e-18
1916 18 0.001 0.02315 -0.00258914 -0.0406729 -1.48787e-13 1.32822e-13 3.10084e-14 0 6.32741e-18
350 11 0.001 -0.0577475 -0.000898945 -0.0401494 -6.81546e-14 2.30568e-13 3.92091e-14 0 6.61317e-18
726 12 0.001 -0.0377474 -0.000899598 -0.0401492 -1.52183e-14 2.25775e-13 3.63897e-14 0 8.56796e-18
1122 14 0.001 -0.0177474 -0.000899598 -0.0401492 -2.61716e-14 2.27359e-13 3.80726e-14 0 8.56796e-18
1518 16 0.001 0.00225264 -0.000899598 -0.0401492 -3.17208e-14 2.27852e-13 3.90388e-14 0 8.56796e-18
1914 18 0.001 0.0222526 -0.000899598 -0.0401492 -4.2683e-14 2.31432e-13 3.94626e-14 0 8.56796e-18
348 11 0.001 -0.0577227 0.00101107 -0.0396152 1.19685e-13 2.89202e-13 -1.58577e-14 0 2.86234e-17
349 11 0.001 -0.0578554 5.79006e-05 -0.0398833 9.29789e-14 2.42799e-13 1.16218e-14 0 1.39617e-17
724 12 0.001 -0.0377229 0.00101042 -0.039615 7.95515e-14 2.21671e-13 -3.66342e-14 0 3.29314e-17
725 12 0.001 -0.0378555 5.72278e-05 -0.0398831 7.89515e-14 2.2511e-13 3.28852e-14 0 1.69007e-17
1120 14 0.001 -0.0177229 0.00101042 -0.039615 1.19488e-13 2.18873e-13 -3.34749e-14 0 3.29314e-17
1121 14 0.001 -0.0178555 5.72278e-05 -0.0398831 6.56531e-14 2.23146e-13 3.08128e-14 0 1.69007e-17
1516 16 0.001 0.0022771 0.00101042 -0.039615 1.34462e-13 2.2227e-13 -3.15173e-14 0 3.29314e-17
1517 16 0.001 0.00214454 5.72278e-05 -0.0398831 5.71641e-14 2.19694e-13 2.94471e-14 0 1.69007e-17
1912 18 0.001 0.0222771 0.00101042 -0.039615 9.76048e-14 2.2212e-13 -3.42198e-14 0 3.29314e-17
1913 18 0.001 0.0221445 5.72278e-05 -0.0398831 8.92188e-14 2.20639e-13 3.04023e-14 0 1.69007e-17
347 11 0.001 -0.0573577 0.00190118 -0.0393459 2.51661e-13 2.08658e-13 -7.38735e-14 0 5.22177e-17
346 11 0.001 -0.0567832 0.00267273 -0.0390764 2.61112e-13 1.82572e-13 -1.2438e-13 0 8.39188e-17
722 12 0.001 -0.0367837 0.00267224 -0.0390762 2.40424e-13 1.90664e-13 -1.17141e-13 0 9.13447e-17
723 12 0.001 -0.037358 0.00190059 -0.0393457 2.7602e-13 2.04767e-13 -4.93718e-14 0 5.80963e-17
1118 14 0.001 -0.0167837 0.00267224 -0.0390762 2.99988e-13 1.84342e-13 -1.06359e-13 0 9.13447e-17
1119 14 0.001 -0.017358 0.00190059 -0.0393457 2.26955e-13 2.15069e-13 -5.42965e-14 0 5.80963e-17
1515 16 0.001 0.00264196 0.00190059 -0.0393457 2.20311e-13 2.14845e-13 -5.4782e-14 0 5.80963e-17
1514 16 0.001 0.00321633 0.00267224 -0.0390762 2.85811e-13 1.8245e-13 -1.09798e-13 0 9.13447e-17
1910 18 0.001 0.0232163 0.00267224 -0.0390762 2.64138e-13 1.91743e-13 -1.11669e-13 0 9.13447e-17
1911 18 0.001 0.022642 0.00190059 -0.0393457 2.5196e-13 2.08219e-13 -5.23874e-14 0 5.80963e-17
345 11 0.001 -0.056035 0.00327758 -0.0388071 3.76163e-13 1.37011e-13 -1.56482e-13 0 1.19948e-16
344 11 0.001 -0.05516 0.00367793 -0.0385388 4.10324e-13 8.05423e-14 -1.83945e-13 0 1.5438e-16
721 12 0.001 -0.0360357 0.00327722 -0.0388069 3.60659e-13 1.11456e-13 -1.49518e-13 0 1.2869e-16
720 12 0.001 -0.0351607 0.00367772 -0.0385386 3.54564e-13 7.29765e-14 -1.86043e-13 0 1.64061e-16
1117 14 0.001 -0.0160357 0.00327722 -0.0388069 3.0396e-13 1.14105e-13 -1.62064e-13 0 1.2869e-16
1116 14 0.001 -0.0151607 0.00367772 -0.0385386 3.79746e-13 6.95469e-14 -1.80382e-13 0 1.64061e-16
1513 16 0.001 0.00396435 0.00327722 -0.0388069 3.20058e-13 1.10299e-13 -1.59108e-13 0 1.2869e-16
1512 16 0.001 0.00483935 0.00367772 -0.0385386 3.90489e-13 7.51025e-14 -1.76607e-13 0 1.64061e-16
1909 18 0.001 0.0239643 0.00327722 -0.0388069 3.31617e-13 1.00603e-13 -1.58062e-13 0 1.2869e-16
1908 18 0.001 0.0248393 0.00367772 -0.0385386 3.83364e-13 8.20404e-14 -1.77542e-13 0 1.64061e-16
338 11 0.001 -0.0504148 0.0013962 -0.0369526 2.59503e-13 -2.08093e-13 -8.47624e-14 0 1.30536e-16
714 12 0.001 -0.030415 0.00139684 -0.0369524 1.93798e-13 -2.67821e-13 -6.20841e-14 0 1.38702e-16
1110 14 0.001 -0.010415 0.00139684 -0.0369524 1.91169e-13 -2.59868e-13 -6.67137e-14 0 1.38702e-16
1506 16 0.001 0.00958498 0.00139684 -0.0369524 1.86567e-13 -2.69863e-13 -6.32746e-14 0 1.38702e-16
1902 18 0.001 0.029585 0.00139684 -0.0369524 1.6646e-13 -2.71607e-13 -6.50269e-14 0 1.38702e-16
340 11 0.001 -0.051529 0.00295075 -0.037478 3.11268e-13 -1.90886e-13 -1.61541e-13 0 1.8033e-16
339 11 0.001 -0.0508741 0.00224361 -0.0372152 2.51558e-13 -2.48864e-13 -1.11135e-13 0 1.57478e-16
716 12 0.001 -0.0315295 0.00295119 -0.0374779 3.08898e-13 -1.76016e-13 -1.51864e-13 0 1.89848e-16
715 12 0.001 -0.0308745 0.00224417 -0.037215 2.30756e-13 -1.9351e-13 -1.16853e-13 0 1.66351e-16
1111 14 0.001 -0.0108745 0.00224417 -0.037215 2.37513e-13 -1.92483e-13 -1.14663e-13 0 1.66351e-16
1112 14 0.001 -0.0115295 0.00295119 -0.0374779 3.21026e-13 -1.91171e-13 -1.47185e-13 0 1.89848e-16
1508 16 0.001 0.0084705 0.00295119 -0.0374779 3.08204e-13 -1.85611e-13 -1.49908e-13 0 1.89848e-16
1507 16 0.001 0.00912553 0.00224417 -0.037215 2.50749e-13 -1.9046e-13 -1.14349e-13 0 1.66351e-16
1904 18 0.001 0.0284705 0.00295119 -0.0374779 2.97811e-13 -1.85541e-13 -1.51482e-13 0 1.89848e-16
1903 18 0.001 0.0291255 0.00224417 -0.037215 2.77131e-13 -1.91764e-13 -1.10106e-13 0 1.66351e-16
343 11 0.001 -0.0542126 0.00384869 -0.0382717 3.96145e-13 6.45982e-15 -2.10727e-13 0 1.8089e-16
342 11 0.001 -0.0532521 0.00377911 -0.038006 3.87393e-13 -7.50963e-14 -2.07489e-13 0 1.94723e-16
341 11 0.001 -0.0523385 0.00347346 -0.0377415 4.07592e-13 -1.2889e-13 -1.7958e-13 0 1.94057e-16
719 12 0.001 -0.0342133 0.00384865 -0.0382715 3.92885e-13 -4.28793e-15 -1.96417e-13 0 1.91075e-16
718 12 0.001 -0.0332528 0.00377924 -0.0380058 3.74383e-13 -5.99643e-14 -2.00977e-13 0 2.04995e-16
717 12 0.001 -0.0323391 0.00347375 -0.0377413 3.72575e-13 -1.31382e-13 -1.72753e-13 0 2.04074e-16
1115 14 0.001 -0.0142133 0.00384865 -0.0382715 3.98805e-13 -4.62206e-15 -1.9448e-13 0 1.91075e-16
1113 14 0.001 -0.0123391 0.00347375 -0.0377413 3.55795e-13 -1.20644e-13 -1.7805e-13 0 2.04074e-16
1114 14 0.001 -0.0132528 0.00377924 -0.0380058 3.70474e-13 -5.94881e-14 -2.02177e-13 0 2.04995e-16
1511 16 0.001 0.0057867 0.00384865 -0.0382715 3.76207e-13 -1.00323e-15 -2.00624e-13 0 1.91075e-16
1510 16 0.001 0.00674721 0.00377924 -0.0380058 3.79071e-13 -6.35128e-14 -2.00039e-13 0 2.04995e-16
1509 16 0.001 0.00766086 0.00347375 -0.0377413 3.59443e-13 -1.23876e-13 -1.76842e-13 0 2.04074e-16
1907 18 0.001 0.0257867 0.00384865 -0.0382715 3.98363e-13 -3.56111e-15 -1.9456e-13 0 1.91075e-16
1906 18 0.001 0.0267472 0.00377924 -0.0380058 3.62848e-13 -6.08282e-14 -2.05101e-13 0 2.04995e-16
1905 18 0.001 0.0276609 0.00347375 -0.0377413 3.53232e-13 -1.23124e-13 -1.78392e-13 0 2.04074e-16
333 11 0.001 -0.0515528 -0.00297879 -0.0356326 -7.44468e-14 -1.76457e-13 2.72315e-15 0 4.88459e-17
334 11 0.001 -0.0508924 -0.00227777 -0.0358981 -2.54257e-13 -1.74904e-13 3.78779e-14 0 5.40923e-17
709 12 0.001 -0.0315523 -0.00297836 -0.0356324 -1.76999e-13 -1.27771e-13 1.31922e-14 0 5.48542e-17
710 12 0.001 -0.030892 -0.00227721 -0.0358979 -8.01685e-14 -1.57037e-13 3.09413e-14 0 6.01511e-17
1105 14 0.001 -0.0115523 -0.00297836 -0.0356324 -1.75156e-13 -1.26852e-13 1.30592e-14 0 5.48542e-17
1106 14 0.001 -0.010892 -0.00227721 -0.0358979 -9.43042e-14 -1.64676e-13 3.51963e-14 0 6.01511e-17
1501 16 0.001 0.00844775 -0.00297836 -0.0356324 -1.71867e-13 -1.285e-13 1.26076e-14 0 5.48542e-17
1502 16 0.001 0.00910802 -0.00227721 -0.0358979 -8.79359e-14 -1.62573e-13 3.40113e-14 0 6.01511e-17
1897 18 0.001 0.0284477 -0.00297836 -0.0356324 -1.91708e-13 -1.3236e-13 1.64334e-14 0 5.48542e-17
1898 18 0.001 0.029108 -0.00227721 -0.0358979 -6.52834e-14 -1.58689e-13 2.93194e-14 0 6.01511e-17
335 11 0.001 -0.0504263 -0.00143473 -0.0361628 1.9663e-14 -2.35016e-13 1.22677e-14 0 6.49376e-17
336 11 0.001 -0.0501837 -0.000502252 -0.0364267 8.13406e-14 -2.25985e-13 -1.45404e-14 0 8.17541e-17
711 12 0.001 -0.0304261 -0.00143408 -0.0361626 -3.78856e-14 -2.07432e-13 1.16004e-14 0 7.12902e-17
712 12 0.001 -0.0301836 -0.000501562 -0.0364265 1.41622e-14 -2.75508e-13 1.67254e-14 0 8.85959e-17
1107 14 0.001 -0.0104261 -0.00143408 -0.0361626 -3.97823e-14 -1.98386e-13 8.69644e-15 0 7.12902e-17
1108 14 0.001 -0.0101836 -0.000501562 -0.0364265 3.7943e-14 -2.79996e-13 1.70777e-14 0 8.85959e-17
1503 16 0.001 0.00957394 -0.00143408 -0.0361626 -4.9396e-14 -1.99332e-13 1.02032e-14 0 7.12902e-17
1504 16 0.001 0.00981638 -0.000501562 -0.0364265 4.13681e-14 -2.77719e-13 1.62294e-14 0 8.85959e-17
1899 18 0.001 0.0295739 -0.00143408 -0.0361626 -4.9128e-14 -2.00164e-13 1.15433e-14 0 7.12902e-17
1900 18 0.001 0.0298164 -0.000501562 -0.0364265 2.37257e-14 -2.79935e-13 1.67411e-14 0 8.85959e-17
337 11 0.001 -0.0501798 0.000461448 -0.0366899 2.53962e-14 -3.22958e-13 -1.81175e-14 0 1.04184e-16
713 12 0.001 -0.0301798 0.000462137 -0.0366897 1.2697e-13 -2.09207e-13 -3.62425e-14 0 1.11651e-16
1109 14 0.001 -0.0101798 0.000462137 -0.0366897 1.07236e-13 -2.10872e-13 -3.44795e-14 0 1.11651e-16
1505 16 0.001 0.00982015 0.000462137 -0.0366897 1.08312e-13 -2.07015e-13 -3.63656e-14 0 1.11651e-16
1901 18 0.001 0.0298202 0.000462137 -0.0366897 1.26813e-13 -2.04992e-13 -3.61697e-14 0 1.11651e-16
328 11 0.001 -0.0560609 -0.0032647 -0.0343009 -2.1964e-13 2.27604e-13 -1.40546e-13 0 8.86399e-17
329 11 0.001 -0.0551889 -0.00367306 -0.0345671 -2.23932e-13 1.4041e-13 -1.2118e-13 0 7.38383e-17
330 11 0.001 -0.0542429 -0.00385236 -0.0348336 -2.82965e-13 4.64606e-14 -6.82284e-14 0 6.16402e-17
331 11 0.001 -0.0532821 -0.00379142 -0.0351002 -2.85264e-13 1.77519e-14 -3.4169e-14 0 5.30477e-17
332 11 0.001 -0.0523663 -0.00349405 -0.0353666 -2.22193e-13 -4.06694e-14 -1.37465e-14 0 4.86488e-17
704 12 0.001 -0.0360602 -0.00326514 -0.0343007 -1.99326e-13 2.14031e-13 -1.35079e-13 0 9.78188e-17
705 12 0.001 -0.0351881 -0.00367333 -0.0345668 -2.52993e-13 1.35529e-13 -1.02698e-13 0 8.20995e-17
706 12 0.001 -0.0342421 -0.00385244 -0.0348333 -2.40428e-13 6.59813e-14 -7.12651e-14 0 6.90488e-17
707 12 0.001 -0.0332813 -0.00379132 -0.0350999 -2.3758e-13 1.87574e-15 -3.28351e-14 0 5.97548e-17
708 12 0.001 -0.0323656 -0.00349377 -0.0353664 -1.93102e-13 -5.13646e-14 -5.22245e-15 0 5.48754e-17
1100 14 0.001 -0.0160602 -0.00326514 -0.0343007 -2.2237e-13 2.02625e-13 -1.31617e-13 0 9.78188e-17
1101 14 0.001 -0.0151881 -0.00367333 -0.0345668 -2.53042e-13 1.43373e-13 -1.00835e-13 0 8.20995e-17
1102 14 0.001 -0.0142421 -0.00385244 -0.0348333 -2.29582e-13 7.22173e-14 -7.43752e-14 0 6.90488e-17
1104 14 0.001 -0.0123656 -0.00349377 -0.0353664 -1.78516e-13 -5.26471e-14 -8.76114e-15 0 5.48754e-17
1103 14 0.001 -0.0132813 -0.00379132 -0.0350999 -2.52443e-13 -9.83301e-16 -2.92725e-14 0 5.97548e-17
1496 16 0.001 0.00393976 -0.00326514 -0.0343007 -2.3518e-13 1.97374e-13 -1.28513e-13 0 9.78188e-17
1497 16 0.001 0.00481185 -0.00367333 -0.0345668 -2.53137e-13 1.47114e-13 -1.00889e-13 0 8.20995e-17
1498 16 0.001 0.00575785 -0.00385244 -0.0348333 -2.18677e-13 7.04737e-14 -7.69802e-14 0 6.90488e-17
1499 16 0.001 0.00671869 -0.00379132 -0.0350999 -2.55661e-13 2.92848e-15 -2.88073e-14 0 5.97548e-17
1500 16 0.001 0.00763437 -0.00349377 -0.0353664 -1.84134e-13 -5.6202e-14 -7.20675e-15 0 5.48754e-17
1892 18 0.001 0.0239398 -0.00326514 -0.0343007 -2.32741e-13 2.03287e-13 -1.28538e-13 0 9.78188e-17
1893 18 0.001 0.0248119 -0.00367333 -0.0345668 -2.29907e-13 1.50528e-13 -1.0645e-13 0 8.20995e-17
1894 18 0.001 0.0257579 -0.00385244 -0.0348333 -2.34818e-13 6.01161e-14 -7.34998e-14 0 6.90488e-17
1895 18 0.001 0.0267187 -0.00379132 -0.0350999 -2.55837e-13 2.89721e-15 -2.82466e-14 0 5.97548e-17
1896 18 0.001 0.0276344 -0.00349377 -0.0353664 -1.79033e-13 -5.06104e-14 -8.44142e-15 0 5.48754e-17
327 11 0.001 -0.0568045 -0.00265276 -0.0340352 -2.54495e-13 2.66205e-13 -1.45577e-13 0 1.04573e-16
703 12 0.001 -0.036804 -0.00265335 -0.034035 -2.07349e-13 2.51177e-13 -1.44473e-13 0 1.14648e-16
1099 14 0.001 -0.016804 -0.00265335 -0.034035 -1.93618e-13 2.49743e-13 -1.48986e-13 0 1.14648e-16