ITEM: TIMESTEP
6900000
ITEM: NUMBER OF ATOMS
1970
ITEM: BOX BOUNDS ff ff ff
-6.0000000000000005e-02 6.0000000000000005e-02
-6.0000000000000001e-03 6.0000000000000001e-03
-5.5000000000000000e-02 5.5000000000000000e-02
ITEM: ATOMS id type radius x y z fx fy fz c_bendingE c_stretchingE
384 11 0.001 -0.0508203 -0.00263648 -0.048993 -3.88024e-13 3.95385e-14 -1.43309e-13 0 2.42884e-17
385 11 0.001 -0.0503208 -0.0018342 -0.0493167 -2.52191e-13 1.14894e-14 -9.0384e-14 0 9.36438e-15
760 12 0.001 -0.0308201 -0.00263646 -0.0489927 -3.22714e-13 7.51598e-14 -1.40237e-13 0 2.49147e-17
761 12 0.001 -0.0303206 -0.00183416 -0.0493165 -2.52652e-13 1.32809e-14 -6.52802e-14 0 9.2901e-15
1156 14 0.001 -0.0108201 -0.00263646 -0.0489927 -3.37927e-13 8.4932e-14 -1.4063e-13 0 2.49147e-17
1157 14 0.001 -0.0103206 -0.00183416 -0.0493165 -2.38353e-13 1.14393e-14 -6.61778e-14 0 9.2901e-15
1552 16 0.001 0.00917989 -0.00263646 -0.0489927 -3.3501e-13 7.4657e-14 -1.39051e-13 0 2.49147e-17
1553 16 0.001 0.00967941 -0.00183416 -0.0493165 -2.3974e-13 1.52574e-14 -6.64392e-14 0 9.2901e-15
1948 18 0.001 0.0291799 -0.00263646 -0.0489927 -3.27065e-13 8.14717e-14 -1.41366e-13 0 2.49147e-17
1949 18 0.001 0.0296794 -0.00183416 -0.0493165 -2.50688e-13 9.78033e-15 -6.41092e-14 0 9.2901e-15
2 2 0.001 -0.05 -4.31175e-17 -0.05 -2.81986e-06 3.05462e-06 2.01748e-06 0 8.196e-15
386 11 0.001 -0.0500416 -0.000936239 -0.049654 -1.2273e-13 1.21406e-14 -3.8958e-14 0 1.75488e-14
762 12 0.001 -0.0300415 -0.000936205 -0.0496539 -1.09058e-13 5.02414e-15 -3.1147e-14 0 1.73903e-14
4 4 0.001 -0.03 -4.31175e-17 -0.05 -2.84204e-06 3.11029e-06 2.00266e-06 0 8.11402e-15
6 6 0.001 -0.01 -4.31175e-17 -0.05 -2.84204e-06 3.11029e-06 2.00266e-06 0 8.11402e-15
1158 14 0.001 -0.0100415 -0.000936205 -0.0496539 -1.17949e-13 1.9406e-15 -2.95081e-14 0 1.73903e-14
8 8 0.001 0.01 -4.31175e-17 -0.05 -2.84204e-06 3.11029e-06 2.00266e-06 0 8.11402e-15
1554 16 0.001 0.00995846 -0.000936205 -0.0496539 -1.19226e-13 2.64696e-15 -3.0046e-14 0 1.73903e-14
10 10 0.001 0.03 -4.31175e-17 -0.05 -2.84204e-06 3.11029e-06 2.00266e-06 0 8.11402e-15
1950 18 0.001 0.0299585 -0.000936205 -0.0496539 -1.13191e-13 5.74636e-15 -3.1357e-14 0 1.73903e-14
379 11 0.001 -0.0551884 -0.0037788 -0.0476533 -5.58216e-13 5.04451e-13 -4.68411e-13 0 1.01872e-15
380 11 0.001 -0.0542445 -0.00400988 -0.0478852 -5.93157e-13 3.97532e-13 -4.32943e-13 0 8.7954e-16
381 11 0.001 -0.0532768 -0.00400198 -0.0481331 -5.29672e-13 2.86649e-13 -3.87345e-13 0 6.2992e-16
382 11 0.001 -0.0523458 -0.00375693 -0.0483999 -5.9506e-13 2.098e-13 -2.94657e-13 0 3.43476e-16
383 11 0.001 -0.0515096 -0.00329155 -0.0486867 -4.04563e-13 1.38606e-13 -2.47582e-13 0 1.13927e-16
755 12 0.001 -0.035188 -0.00377905 -0.047653 -5.22357e-13 4.72834e-13 -4.35774e-13 0 1.02445e-15
756 12 0.001 -0.0342442 -0.00401006 -0.0478848 -5.35334e-13 3.83154e-13 -4.04117e-13 0 8.80498e-16
757 12 0.001 -0.0332764 -0.0040021 -0.0481327 -5.6367e-13 2.73409e-13 -3.37519e-13 0 6.26429e-16
758 12 0.001 -0.0323454 -0.00375698 -0.0483995 -4.67006e-13 2.13643e-13 -2.85325e-13 0 3.37483e-16
759 12 0.001 -0.0315093 -0.00329155 -0.0486863 -4.52986e-13 1.02755e-13 -1.91207e-13 0 1.08972e-16
1151 14 0.001 -0.015188 -0.00377905 -0.047653 -5.63035e-13 4.6346e-13 -4.27551e-13 0 1.02445e-15
1152 14 0.001 -0.0142442 -0.00401006 -0.0478848 -5.32158e-13 3.93208e-13 -4.04316e-13 0 8.80498e-16
1153 14 0.001 -0.0132764 -0.0040021 -0.0481327 -5.48844e-13 2.74293e-13 -3.41501e-13 0 6.26429e-16
1154 14 0.001 -0.0123454 -0.00375698 -0.0483995 -4.90173e-13 2.11777e-13 -2.79935e-13 0 3.37483e-16
1155 14 0.001 -0.0115093 -0.00329155 -0.0486863 -4.31555e-13 9.66108e-14 -1.93912e-13 0 1.08972e-16
1547 16 0.001 0.00481195 -0.00377905 -0.047653 -5.33118e-13 4.67658e-13 -4.3382e-13 0 1.02445e-15
1548 16 0.001 0.00575583 -0.00401006 -0.0478848 -5.5926e-13 3.89242e-13 -3.9829e-13 0 8.80498e-16
1549 16 0.001 0.00672355 -0.0040021 -0.0481327 -5.30569e-13 2.78943e-13 -3.46002e-13 0 6.26429e-16
1550 16 0.001 0.00765456 -0.00375698 -0.0483995 -4.97481e-13 2.04036e-13 -2.77364e-13 0 3.37483e-16
1551 16 0.001 0.00849069 -0.00329155 -0.0486863 -4.31749e-13 1.07899e-13 -1.95944e-13 0 1.08972e-16
1943 18 0.001 0.024812 -0.00377905 -0.047653 -5.46409e-13 4.66774e-13 -4.30361e-13 0 1.02445e-15
1944 18 0.001 0.0257558 -0.00401006 -0.0478848 -5.53527e-13 3.98907e-13 -4.00032e-13 0 8.80498e-16
1945 18 0.001 0.0267236 -0.0040021 -0.0481327 -5.34778e-13 2.64665e-13 -3.43496e-13 0 6.26429e-16
1946 18 0.001 0.0276546 -0.00375698 -0.0483995 -4.94902e-13 2.15447e-13 -2.79566e-13 0 3.37483e-16
1947 18 0.001 0.0284907 -0.00329155 -0.0486863 -4.32482e-13 1.00855e-13 -1.94681e-13 0 1.08972e-16
378 11 0.001 -0.0560493 -0.00332208 -0.0474336 -5.58893e-13 5.77066e-13 -4.61825e-13 0 1.01496e-15
754 12 0.001 -0.036049 -0.00332239 -0.0474333 -5.18323e-13 5.57555e-13 -4.34597e-13 0 1.02451e-15
1150 14 0.001 -0.016049 -0.00332239 -0.0474333 -4.75447e-13 5.52808e-13 -4.43866e-13 0 1.02451e-15
1546 16 0.001 0.00395101 -0.00332239 -0.0474333 -4.9423e-13 5.49581e-13 -4.40307e-13 0 1.02451e-15
1942 18 0.001 0.023951 -0.00332239 -0.0474333 -4.95709e-13 5.49562e-13 -4.40817e-13 0 1.02451e-15
376 11 0.001 -0.0573156 -0.00185514 -0.047011 -4.22865e-13 6.8006e-13 -3.82435e-13 0 6.66914e-16
377 11 0.001 -0.0567734 -0.00266744 -0.0472212 -3.98896e-13 6.62627e-13 -4.45686e-13 0 8.81656e-16
753 12 0.001 -0.0367732 -0.0026678 -0.0472209 -4.32638e-13 6.07933e-13 -4.18089e-13 0 8.93357e-16
752 12 0.001 -0.0373155 -0.00185553 -0.0470108 -3.03947e-13 6.63498e-13 -3.63814e-13 0 6.78933e-16
1149 14 0.001 -0.0167732 -0.0026678 -0.0472209 -4.28826e-13 6.12336e-13 -4.1734e-13 0 8.93357e-16
1148 14 0.001 -0.0173155 -0.00185553 -0.0470108 -3.31704e-13 6.6617e-13 -3.60768e-13 0 6.78933e-16
1544 16 0.001 0.00268453 -0.00185553 -0.0470108 -3.43863e-13 6.60908e-13 -3.61154e-13 0 6.78933e-16
1545 16 0.001 0.00322684 -0.0026678 -0.0472209 -4.21977e-13 6.17419e-13 -4.17471e-13 0 8.93357e-16
1941 18 0.001 0.0232268 -0.0026678 -0.0472209 -4.07462e-13 6.12734e-13 -4.20109e-13 0 8.93357e-16
1940 18 0.001 0.0226845 -0.00185553 -0.0470108 -3.43134e-13 6.6318e-13 -3.60229e-13 0 6.78933e-16
375 11 0.001 -0.0576425 -0.000935416 -0.0467982 -1.4908e-13 7.34508e-13 -2.91595e-13 0 4.32437e-16
751 12 0.001 -0.0376424 -0.000935831 -0.046798 -2.90458e-13 6.76306e-13 -2.8303e-13 0 4.43174e-16
1147 14 0.001 -0.0176424 -0.000935831 -0.046798 -2.49296e-13 6.76456e-13 -2.82649e-13 0 4.43174e-16
1543 16 0.001 0.00235761 -0.000935831 -0.046798 -2.32561e-13 6.77878e-13 -2.82785e-13 0 4.43174e-16
1939 18 0.001 0.0223576 -0.000935831 -0.046798 -2.50803e-13 6.76344e-13 -2.83341e-13 0 4.43174e-16
373 11 0.001 -0.0575854 0.000995467 -0.0463481 5.47097e-14 6.5089e-13 -7.47965e-14 0 9.43273e-17
374 11 0.001 -0.0577341 3.47859e-05 -0.0465783 -2.6469e-13 7.04342e-13 -2.06796e-13 0 2.31546e-16
749 12 0.001 -0.0375855 0.000995076 -0.0463481 -1.21263e-13 6.19242e-13 -8.45442e-14 0 9.97749e-17
750 12 0.001 -0.0377341 3.43731e-05 -0.0465782 -5.87921e-14 6.6588e-13 -1.8285e-13 0 2.39894e-16
1145 14 0.001 -0.0175855 0.000995076 -0.0463481 -1.62706e-14 6.21506e-13 -7.14187e-14 0 9.97749e-17
1146 14 0.001 -0.0177341 3.43731e-05 -0.0465782 -1.44945e-13 6.62358e-13 -1.90512e-13 0 2.39894e-16
1541 16 0.001 0.00241454 0.000995076 -0.0463481 -3.65297e-14 6.19478e-13 -7.49134e-14 0 9.97749e-17
1542 16 0.001 0.00226592 3.43731e-05 -0.0465782 -1.47262e-13 6.64035e-13 -1.89391e-13 0 2.39894e-16
1937 18 0.001 0.0224145 0.000995076 -0.0463481 -2.51565e-14 6.26437e-13 -7.17763e-14 0 9.97749e-17
1938 18 0.001 0.0222659 3.43731e-05 -0.0465782 -1.31762e-13 6.63801e-13 -1.89016e-13 0 2.39894e-16
372 11 0.001 -0.0572063 0.00188734 -0.0461054 9.26505e-14 5.98078e-13 2.0027e-14 0 2.3894e-17
748 12 0.001 -0.0372065 0.00188699 -0.0461054 6.51753e-14 5.50122e-13 1.09966e-14 0 2.65069e-17
1144 14 0.001 -0.0172065 0.00188699 -0.0461054 2.61035e-14 5.50397e-13 5.75404e-15 0 2.65069e-17
1540 16 0.001 0.00279349 0.00188699 -0.0461054 5.1836e-14 5.48367e-13 9.47447e-15 0 2.65069e-17
1936 18 0.001 0.0227935 0.00188699 -0.0461054 3.3307e-14 5.49354e-13 8.18376e-15 0 2.65069e-17
371 11 0.001 -0.0566212 0.00265553 -0.0458493 4.53366e-14 4.84612e-13 8.59816e-14 0 2.91057e-18
747 12 0.001 -0.0366215 0.00265524 -0.0458493 1.83787e-13 4.46175e-13 1.25446e-13 0 3.21897e-18
1143 14 0.001 -0.0166215 0.00265524 -0.0458493 1.50162e-13 4.55803e-13 1.18346e-13 0 3.21897e-18
1539 16 0.001 0.00337851 0.00265524 -0.0458493 1.40349e-13 4.62321e-13 1.18524e-13 0 3.21897e-18
1935 18 0.001 0.0233785 0.00265524 -0.0458493 1.25029e-13 4.48345e-13 1.10001e-13 0 3.21897e-18
370 11 0.001 -0.055867 0.00325289 -0.0455803 2.76108e-13 3.48361e-13 1.78012e-13 0 5.87091e-18
369 11 0.001 -0.0549911 0.00364292 -0.0453 2.87383e-13 2.54671e-13 2.14623e-13 0 1.13585e-17
368 11 0.001 -0.0540482 0.0038019 -0.0450106 2.62158e-13 1.19029e-13 1.9431e-13 0 9.61589e-18
367 11 0.001 -0.0530973 0.00372037 -0.0447153 3.15048e-13 -4.00442e-14 1.74014e-13 0 3.39436e-18
745 12 0.001 -0.0349914 0.00364279 -0.0453 2.15987e-13 2.25951e-13 2.00231e-13 0 9.6231e-18
746 12 0.001 -0.0358673 0.00325268 -0.0455803 1.62685e-13 3.72087e-13 1.5982e-13 0 4.69886e-18
744 12 0.001 -0.0340486 0.00380186 -0.0450106 2.79468e-13 8.81077e-14 2.07585e-13 0 8.13336e-18
743 12 0.001 -0.0330977 0.00372043 -0.0447153 2.6009e-13 -1.63492e-14 1.7237e-13 0 2.73132e-18
1142 14 0.001 -0.0158673 0.00325268 -0.0455803 1.93237e-13 3.50898e-13 1.65912e-13 0 4.69886e-18
1140 14 0.001 -0.0140486 0.00380186 -0.0450106 2.6567e-13 9.30898e-14 2.03429e-13 0 8.13336e-18
1141 14 0.001 -0.0149914 0.00364279 -0.0453 2.25622e-13 2.3753e-13 2.03409e-13 0 9.6231e-18
1139 14 0.001 -0.0130977 0.00372043 -0.0447153 2.57355e-13 -2.44637e-14 1.71935e-13 0 2.73132e-18
1538 16 0.001 0.00413265 0.00325268 -0.0455803 1.84934e-13 3.46526e-13 1.61454e-13 0 4.69886e-18
1537 16 0.001 0.00500856 0.00364279 -0.0453 2.3759e-13 2.35149e-13 2.07993e-13 0 9.6231e-18
1536 16 0.001 0.00595143 0.00380186 -0.0450106 2.63834e-13 9.82605e-14 2.02467e-13 0 8.13336e-18
1535 16 0.001 0.00690231 0.00372043 -0.0447153 2.56175e-13 -2.87809e-14 1.71871e-13 0 2.73132e-18
1933 18 0.001 0.0250086 0.00364279 -0.0453 2.37237e-13 2.36914e-13 2.07931e-13 0 9.6231e-18
1934 18 0.001 0.0241327 0.00325268 -0.0455803 2.06432e-13 3.49682e-13 1.68947e-13 0 4.69886e-18
1932 18 0.001 0.0259514 0.00380186 -0.0450106 2.66145e-13 1.03155e-13 2.03244e-13 0 8.13336e-18
1931 18 0.001 0.0269023 0.00372043 -0.0447153 2.52929e-13 -2.85974e-14 1.70506e-13 0 2.73132e-18
361 11 0.001 -0.050154 -0.000587719 -0.0429791 -1.81037e-13 -5.07232e-13 -3.10527e-13 0 1.93332e-16
737 12 0.001 -0.0301539 -0.000587356 -0.042979 -1.62525e-13 -4.74702e-13 -2.99899e-13 0 1.95739e-16
1133 14 0.001 -0.0101539 -0.000587356 -0.042979 -1.60363e-13 -4.70384e-13 -3.01386e-13 0 1.95739e-16
1529 16 0.001 0.00984609 -0.000587356 -0.042979 -1.46955e-13 -4.74333e-13 -2.99312e-13 0 1.95739e-16
1925 18 0.001 0.0298461 -0.000587356 -0.042979 -1.47726e-13 -4.76407e-13 -2.9915e-13 0 1.95739e-16
362 11 0.001 -0.0501254 0.000372306 -0.0432539 2.5321e-14 -4.96984e-13 -2.44775e-13 0 1.55266e-16
363 11 0.001 -0.0503362 0.00130715 -0.0435362 -1.22749e-15 -4.76917e-13 -1.65883e-13 0 1.04057e-16
738 12 0.001 -0.0301255 0.00037267 -0.0432538 -3.81677e-14 -4.86613e-13 -2.34184e-13 0 1.57797e-16
739 12 0.001 -0.0303363 0.00130749 -0.0435361 2.48289e-14 -4.17071e-13 -1.62067e-13 0 1.06537e-16
1134 14 0.001 -0.0101255 0.00037267 -0.0432538 -3.75601e-14 -4.78232e-13 -2.35745e-13 0 1.57797e-16
1135 14 0.001 -0.0103363 0.00130749 -0.0435361 3.33667e-14 -4.22824e-13 -1.59892e-13 0 1.06537e-16
1530 16 0.001 0.00987453 0.00037267 -0.0432538 -4.93932e-14 -4.72272e-13 -2.39372e-13 0 1.57797e-16
1531 16 0.001 0.0096637 0.00130749 -0.0435361 4.04694e-14 -4.23322e-13 -1.57794e-13 0 1.06537e-16
1926 18 0.001 0.0298745 0.00037267 -0.0432538 -3.17555e-14 -4.74053e-13 -2.37207e-13 0 1.57797e-16
1927 18 0.001 0.0296637 0.00130749 -0.0435361 1.99687e-14 -4.2196e-13 -1.60418e-13 0 1.06537e-16
365 11 0.001 -0.0514064 0.00287187 -0.0441197 2.96279e-13 -2.95141e-13 4.00194e-14 0 1.87619e-17
364 11 0.001 -0.0507724 0.00215812 -0.0438253 9.47083e-14 -3.50481e-13 -9.37389e-14 0 5.42993e-17
740 12 0.001 -0.0307726 0.00215841 -0.0438252 1.41893e-13 -3.54818e-13 -7.01623e-14 0 5.64182e-17
741 12 0.001 -0.0314067 0.0028721 -0.0441196 1.59671e-13 -2.65391e-13 2.52248e-14 0 2.0161e-17
1136 14 0.001 -0.0107726 0.00215841 -0.0438252 1.16918e-13 -3.55478e-13 -7.45011e-14 0 5.64182e-17
1137 14 0.001 -0.0114067 0.0028721 -0.0441196 1.8885e-13 -2.63355e-13 3.13265e-14 0 2.0161e-17
1533 16 0.001 0.00859335 0.0028721 -0.0441196 1.93013e-13 -2.64043e-13 3.2269e-14 0 2.0161e-17
1532 16 0.001 0.00922736 0.00215841 -0.0438252 1.12639e-13 -3.59549e-13 -7.46809e-14 0 5.64182e-17
1928 18 0.001 0.0292274 0.00215841 -0.0438252 1.09754e-13 -3.57967e-13 -7.62969e-14 0 5.64182e-17
1929 18 0.001 0.0285933 0.0028721 -0.0441196 2.09335e-13 -2.61272e-13 3.54648e-14 0 2.0161e-17
366 11 0.001 -0.0521979 0.00340372 -0.0444173 2.00039e-13 -1.64387e-13 9.09108e-14 0 3.01842e-18
742 12 0.001 -0.0321983 0.00340387 -0.0444172 2.34377e-13 -1.56151e-13 1.02321e-13 0 3.41846e-18
1138 14 0.001 -0.0121983 0.00340387 -0.0444172 2.24683e-13 -1.55492e-13 1.00273e-13 0 3.41846e-18
1534 16 0.001 0.00780173 0.00340387 -0.0444172 2.21073e-13 -1.51249e-13 9.87948e-14 0 3.41846e-18
1930 18 0.001 0.0278017 0.00340387 -0.0444172 2.1352e-13 -1.57554e-13 9.79975e-14 0 3.41846e-18
355 11 0.001 -0.0543101 -0.00384278 -0.0414387 -3.77527e-13 -8.02539e-14 -1.45235e-13 0 4.63958e-17
356 11 0.001 -0.053344 -0.00380341 -0.0416899 -5.21487e-13 -1.56843e-13 -1.78455e-13 0 7.94503e-17
357 11 0.001 -0.0524176 -0.00352663 -0.0419411 -4.09166e-13 -2.8141e-13 -2.70526e-13 0 1.21097e-16
358 11 0.001 -0.0515886 -0.00302976 -0.042194 -3.99617e-13 -3.65703e-13 -3.10808e-13 0 1.63637e-16
731 12 0.001 -0.0343098 -0.00384284 -0.0414386 -4.04262e-13 -5.84567e-14 -1.19004e-13 0 4.83725e-17
732 12 0.001 -0.0333437 -0.00380337 -0.0416898 -4.47936e-13 -1.71647e-13 -1.79907e-13 0 8.15762e-17
733 12 0.001 -0.0324173 -0.00352649 -0.041941 -3.82057e-13 -2.5849e-13 -2.60213e-13 0 1.23265e-16
734 12 0.001 -0.0315883 -0.00302954 -0.0421938 -4.01753e-13 -3.47519e-13 -2.94589e-13 0 1.6579e-16
1127 14 0.001 -0.0143098 -0.00384284 -0.0414386 -4.05191e-13 -6.09084e-14 -1.19143e-13 0 4.83725e-17
1128 14 0.001 -0.0133437 -0.00380337 -0.0416898 -4.30374e-13 -1.71118e-13 -1.84113e-13 0 8.15762e-17
1129 14 0.001 -0.0124173 -0.00352649 -0.041941 -3.89122e-13 -2.51862e-13 -2.58821e-13 0 1.23265e-16
1130 14 0.001 -0.0115883 -0.00302954 -0.0421938 -3.81408e-13 -3.5303e-13 -2.98588e-13 0 1.6579e-16
1523 16 0.001 0.00569022 -0.00384284 -0.0414386 -4.18068e-13 -6.10942e-14 -1.16109e-13 0 4.83725e-17
1524 16 0.001 0.00665632 -0.00380337 -0.0416898 -4.21135e-13 -1.69481e-13 -1.86205e-13 0 8.15762e-17
1525 16 0.001 0.00758275 -0.00352649 -0.041941 -4.04636e-13 -2.55443e-13 -2.55056e-13 0 1.23265e-16
1526 16 0.001 0.00841168 -0.00302954 -0.0421938 -3.74053e-13 -3.47895e-13 -3.01133e-13 0 1.6579e-16
1919 18 0.001 0.0256902 -0.00384284 -0.0414386 -4.10412e-13 -5.86301e-14 -1.18073e-13 0 4.83725e-17
1920 18 0.001 0.0266563 -0.00380337 -0.0416898 -4.42467e-13 -1.67898e-13 -1.8117e-13 0 8.15762e-17
1921 18 0.001 0.0275827 -0.00352649 -0.041941 -3.70923e-13 -2.5846e-13 -2.6292e-13 0 1.23265e-16
1922 18 0.001 0.0284117 -0.00302954 -0.0421938 -3.98628e-13 -3.47689e-13 -2.95863e-13 0 1.6579e-16
359 11 0.001 -0.0509088 -0.00234403 -0.0424502 -3.26325e-13 -4.35989e-13 -3.43356e-13 0 1.96043e-16
360 11 0.001 -0.0504205 -0.00151256 -0.0427114 -2.43148e-13 -4.98087e-13 -3.36267e-13 0 2.0778e-16
735 12 0.001 -0.0309086 -0.00234374 -0.0424501 -2.91431e-13 -4.18146e-13 -3.34207e-13 0 1.98206e-16
736 12 0.001 -0.0304204 -0.00151223 -0.0427113 -2.31007e-13 -4.58547e-13 -3.27123e-13 0 2.10033e-16
1131 14 0.001 -0.0109086 -0.00234374 -0.0424501 -3.11754e-13 -4.1012e-13 -3.31278e-13 0 1.98206e-16
1132 14 0.001 -0.0104204 -0.00151223 -0.0427113 -2.30943e-13 -4.73051e-13 -3.24721e-13 0 2.10033e-16
1527 16 0.001 0.00909142 -0.00234374 -0.0424501 -3.05824e-13 -4.15421e-13 -3.30748e-13 0 1.98206e-16
1528 16 0.001 0.00957964 -0.00151223 -0.0427113 -2.42242e-13 -4.69368e-13 -3.25177e-13 0 2.10033e-16
1923 18 0.001 0.0290914 -0.00234374 -0.0424501 -2.93603e-13 -4.17381e-13 -3.32102e-13 0 1.98206e-16
1924 18 0.001 0.0295796 -0.00151223 -0.0427113 -2.50052e-13 -4.65461e-13 -3.25601e-13 0 2.10033e-16
353 11 0.001 -0.0561218 -0.00321469 -0.0409311 -2.83392e-13 1.37385e-13 -2.62141e-14 0 1.30757e-17
354 11 0.001 -0.0552557 -0.00364234 -0.0411861 -4.24167e-13 5.18404e-14 -5.05933e-14 0 2.47058e-17
729 12 0.001 -0.0361215 -0.00321493 -0.040931 -3.05292e-13 1.29885e-13 2.77853e-15 0 1.45846e-17
730 12 0.001 -0.0352553 -0.00364249 -0.041186 -3.51107e-13 4.0824e-14 -5.5096e-14 0 2.64453e-17
1125 14 0.001 -0.0161215 -0.00321493 -0.040931 -3.05207e-13 1.28314e-13 7.94356e-16 0 1.45846e-17
1126 14 0.001 -0.0152553 -0.00364249 -0.041186 -3.72523e-13 3.76869e-14 -4.98519e-14 0 2.64453e-17
1521 16 0.001 0.00387854 -0.00321493 -0.040931 -3.12952e-13 1.29939e-13 3.29867e-15 0 1.45846e-17
1522 16 0.001 0.00474467 -0.00364249 -0.041186 -3.51878e-13 3.52432e-14 -5.50935e-14 0 2.64453e-17
1917 18 0.001 0.0238785 -0.00321493 -0.040931 -3.24137e-13 1.27595e-13 5.07723e-15 0 1.45846e-17
1918 18 0.001 0.0247447 -0.00364249 -0.041186 -3.52914e-13 3.7542e-14 -5.41663e-14 0 2.64453e-17
351 11 0.001 -0.0574086 -0.00179742 -0.040412 -8.075e-14 3.12109e-13 3.03415e-14 0 8.88644e-18
352 11 0.001 -0.0568546 -0.00258663 -0.0406731 -2.98638e-13 2.25288e-13 3.84019e-14 0 8.52248e-18
727 12 0.001 -0.0374085 -0.00179779 -0.0404119 -2.99615e-14 2.49099e-13 3.29544e-14 0 1.05148e-17
728 12 0.001 -0.0368543 -0.00258695 -0.040673 -2.73221e-13 1.81041e-13 3.05542e-14 0 9.94866e-18
1123 14 0.001 -0.0174085 -0.00179779 -0.0404119 -1.02547e-13 2.56317e-13 4.18903e-14 0 1.05148e-17
1124 14 0.001 -0.0168543 -0.00258695 -0.040673 -2.25914e-13 1.87469e-13 2.62623e-14 0 9.94866e-18
1519 16 0.001 0.00259155 -0.00179779 -0.0404119 -1.19518e-13 2.46332e-13 4.18651e-14 0 1.05148e-17
1520 16 0.001 0.00314567 -0.00258695 -0.040673 -2.26923e-13 1.94139e-13 2.73507e-14 0 9.94866e-18
1915 18 0.001 0.0225915 -0.00179779 -0.0404119 -1.02889e-13 2.53403e-13 4.15857e-14 0 1.05148e-17
1916 18 0.001 0.0231457 -0.00258695 -0.040673 -2.18593e-13 1.89226e-13 2.48381e-14 0 9.94866e-18
350 11 0.001 -0.0577496 -0.000896288 -0.0401479 -1.30487e-13 3.02825e-13 1.42716e-14 0 1.41964e-17
726 12 0.001 -0.0377495 -0.000896702 -0.0401478 -1.04502e-13 3.07939e-13 2.94705e-14 0 1.63925e-17
1122 14 0.001 -0.0177495 -0.000896702 -0.0401478 -7.17302e-14 3.09421e-13 2.86386e-14 0 1.63925e-17
1518 16 0.001 0.0022505 -0.000896702 -0.0401478 -3.25614e-14 3.05766e-13 2.42112e-14 0 1.63925e-17
1914 18 0.001 0.0222505 -0.000896702 -0.0401478 -6.85763e-14 3.07982e-13 2.81123e-14 0 1.63925e-17
348 11 0.001 -0.0577225 0.00101358 -0.0396133 1.27626e-13 3.55292e-13 -6.88359e-14 0 4.77477e-17
349 11 0.001 -0.0578564 6.05842e-05 -0.0398815 1.6929e-13 3.5411e-13 -1.06558e-14 0 2.63926e-17
724 12 0.001 -0.0377227 0.00101317 -0.0396132 1.571e-13 3.2755e-13 -5.88662e-14 0 5.20533e-17
725 12 0.001 -0.0378564 6.01577e-05 -0.0398813 1.08485e-13 3.27287e-13 1.5731e-15 0 2.95141e-17
1120 14 0.001 -0.0177227 0.00101317 -0.0396132 1.66403e-13 3.27883e-13 -5.55878e-14 0 5.20533e-17
1121 14 0.001 -0.0178564 6.01577e-05 -0.0398813 1.08915e-13 3.16675e-13 -4.05399e-15 0 2.95141e-17
1516 16 0.001 0.00227734 0.00101317 -0.0396132 1.83406e-13 3.22037e-13 -5.78728e-14 0 5.20533e-17
1517 16 0.001 0.00214359 6.01577e-05 -0.0398813 7.31601e-14 3.29297e-13 1.53918e-15 0 2.95141e-17
1912 18 0.001 0.0222773 0.00101317 -0.0396132 1.77697e-13 3.29305e-13 -5.41671e-14 0 5.20533e-17
1913 18 0.001 0.0221436 6.01577e-05 -0.0398813 1.0227e-13 3.16141e-13 -4.26548e-15 0 2.95141e-17
347 11 0.001 -0.0573564 0.00190331 -0.0393443 3.56063e-13 3.1686e-13 -1.08428e-13 0 7.89091e-17
346 11 0.001 -0.056781 0.00267429 -0.0390751 3.33881e-13 2.89867e-13 -1.77085e-13 0 1.17586e-16
722 12 0.001 -0.0367813 0.00267398 -0.039075 3.86343e-13 2.57022e-13 -1.57617e-13 0 1.2437e-16
723 12 0.001 -0.0373567 0.00190293 -0.0393442 2.81349e-13 2.80022e-13 -1.08224e-13 0 8.44955e-17
1118 14 0.001 -0.0167813 0.00267398 -0.039075 3.39817e-13 2.55657e-13 -1.66948e-13 0 1.2437e-16
1119 14 0.001 -0.0173567 0.00190293 -0.0393442 2.96276e-13 2.88876e-13 -1.03392e-13 0 8.44955e-17
1515 16 0.001 0.00264333 0.00190293 -0.0393442 2.78636e-13 2.85743e-13 -1.0614e-13 0 8.44955e-17
1514 16 0.001 0.00321871 0.00267398 -0.039075 3.69797e-13 2.59931e-13 -1.60479e-13 0 1.2437e-16
1910 18 0.001 0.0232187 0.00267398 -0.039075 3.68272e-13 2.51922e-13 -1.62606e-13 0 1.2437e-16
1911 18 0.001 0.0226433 0.00190293 -0.0393442 2.68337e-13 2.87095e-13 -1.07967e-13 0 8.44955e-17
345 11 0.001 -0.056032 0.00327841 -0.0388065 4.86e-13 1.83505e-13 -2.14336e-13 0 1.58536e-16
344 11 0.001 -0.0551564 0.0036779 -0.0385388 5.01176e-13 1.237e-13 -2.42816e-13 0 1.94868e-16
721 12 0.001 -0.0360324 0.00327818 -0.0388064 4.43328e-13 1.87715e-13 -2.01546e-13 0 1.66282e-16
720 12 0.001 -0.0351568 0.00367777 -0.0385387 4.44585e-13 1.05777e-13 -2.43272e-13 0 2.03249e-16
1117 14 0.001 -0.0160324 0.00327818 -0.0388064 4.45575e-13 1.71052e-13 -2.0492e-13 0 1.66282e-16
1116 14 0.001 -0.0151568 0.00367777 -0.0385387 4.82198e-13 1.11764e-13 -2.32547e-13 0 2.03249e-16
1513 16 0.001 0.00396757 0.00327818 -0.0388064 4.29028e-13 1.73962e-13 -2.0773e-13 0 1.66282e-16
1512 16 0.001 0.00484319 0.00367777 -0.0385387 4.79756e-13 1.11565e-13 -2.33684e-13 0 2.03249e-16
1909 18 0.001 0.0239676 0.00327818 -0.0388064 4.51427e-13 1.83871e-13 -2.01118e-13 0 1.66282e-16
1908 18 0.001 0.0248432 0.00367777 -0.0385387 4.65425e-13 1.08942e-13 -2.36989e-13 0 2.03249e-16
338 11 0.001 -0.0504127 0.00139171 -0.0369543 2.18591e-13 -3.32564e-13 -7.36004e-14 0 1.48244e-16
714 12 0.001 -0.0304129 0.00139213 -0.0369542 2.43493e-13 -3.20192e-13 -5.85725e-14 0 1.55105e-16
1110 14 0.001 -0.0104129 0.00139213 -0.0369542 2.33936e-13 -3.14366e-13 -6.02265e-14 0 1.55105e-16
1506 16 0.001 0.00958711 0.00139213 -0.0369542 2.30328e-13 -3.22002e-13 -5.87515e-14 0 1.55105e-16
1902 18 0.001 0.0295871 0.00139213 -0.0369542 2.45027e-13 -3.15854e-13 -6.01556e-14 0 1.55105e-16
340 11 0.001 -0.0515255 0.00294722 -0.0374799 3.89435e-13 -2.21873e-13 -1.80045e-13 0 2.05395e-16
339 11 0.001 -0.0508713 0.00223949 -0.0372171 3.64318e-13 -2.96115e-13 -1.18693e-13 0 1.78188e-16
716 12 0.001 -0.0315259 0.0029475 -0.0374798 3.95636e-13 -2.20348e-13 -1.629e-13 0 2.13322e-16
715 12 0.001 -0.0308715 0.00223985 -0.037217 2.98125e-13 -2.57919e-13 -1.21944e-13 0 1.85593e-16
1111 14 0.001 -0.0108715 0.00223985 -0.037217 2.88698e-13 -2.63676e-13 -1.22714e-13 0 1.85593e-16
1112 14 0.001 -0.0115259 0.0029475 -0.0374798 4.15607e-13 -2.11645e-13 -1.59977e-13 0 2.13322e-16
1508 16 0.001 0.00847414 0.0029475 -0.0374798 3.92705e-13 -2.18506e-13 -1.63347e-13 0 2.13322e-16
1507 16 0.001 0.00912849 0.00223985 -0.037217 3.01683e-13 -2.54151e-13 -1.22617e-13 0 1.85593e-16
1904 18 0.001 0.0284741 0.0029475 -0.0374798 3.89177e-13 -2.15661e-13 -1.66963e-13 0 2.13322e-16
1903 18 0.001 0.0291285 0.00223985 -0.037217 3.00829e-13 -2.6268e-13 -1.19079e-13 0 1.85593e-16
343 11 0.001 -0.0542087 0.00384773 -0.0382724 5.64214e-13 1.99729e-14 -2.45056e-13 0 2.20109e-16
342 11 0.001 -0.0532481 0.00377722 -0.0380072 4.70417e-13 -6.43555e-14 -2.55367e-13 0 2.30153e-16
341 11 0.001 -0.0523347 0.00347068 -0.0377432 4.84659e-13 -1.61578e-13 -2.13814e-13 0 2.24351e-16
719 12 0.001 -0.0342091 0.00384771 -0.0382723 5.14709e-13 1.79326e-14 -2.38793e-13 0 2.28774e-16
718 12 0.001 -0.0332485 0.00377731 -0.0380071 4.59212e-13 -6.66002e-14 -2.41883e-13 0 2.38789e-16
717 12 0.001 -0.0323351 0.00347088 -0.0377431 4.56214e-13 -1.39934e-13 -2.0565e-13 0 2.32713e-16
1115 14 0.001 -0.0142091 0.00384771 -0.0382723 4.82416e-13 2.10731e-14 -2.46758e-13 0 2.28774e-16
1113 14 0.001 -0.0123351 0.00347088 -0.0377431 4.35078e-13 -1.53842e-13 -2.09033e-13 0 2.32713e-16
1114 14 0.001 -0.0132485 0.00377731 -0.0380071 4.85598e-13 -5.96478e-14 -2.35934e-13 0 2.38789e-16
1511 16 0.001 0.0057909 0.00384771 -0.0382723 4.87565e-13 1.68854e-14 -2.45672e-13 0 2.28774e-16
1510 16 0.001 0.0067515 0.00377731 -0.0380071 4.75711e-13 -6.23018e-14 -2.37902e-13 0 2.38789e-16
1509 16 0.001 0.00766494 0.00347088 -0.0377431 4.54365e-13 -1.46727e-13 -2.05514e-13 0 2.32713e-16
1907 18 0.001 0.0257909 0.00384771 -0.0382723 4.8134e-13 2.05066e-14 -2.47894e-13 0 2.28774e-16
1906 18 0.001 0.0267515 0.00377731 -0.0380071 4.85535e-13 -7.20746e-14 -2.35005e-13 0 2.38789e-16
1905 18 0.001 0.0276649 0.00347088 -0.0377431 4.53158e-13 -1.39028e-13 -2.05145e-13 0 2.32713e-16
333 11 0.001 -0.0515548 -0.00298163 -0.0356323 -2.32898e-13 -1.64197e-13 -5.28533e-15 0 6.77435e-17
334 11 0.001 -0.0508938 -0.00228135 -0.0358981 -2.27622e-13 -2.51933e-13 1.83373e-14 0 7.11966e-17
709 12 0.001 -0.0315544 -0.00298135 -0.0356322 -2.61024e-13 -1.51517e-13 -8.61561e-16 0 7.33334e-17
710 12 0.001 -0.0308935 -0.00228098 -0.035898 -9.89089e-14 -2.19146e-13 1.94478e-14 0 7.67037e-17
1105 14 0.001 -0.0115544 -0.00298135 -0.0356322 -2.23859e-13 -1.42493e-13 -9.33442e-15 0 7.33334e-17
1106 14 0.001 -0.0108935 -0.00228098 -0.035898 -1.41414e-13 -2.1883e-13 2.60159e-14 0 7.67037e-17
1501 16 0.001 0.00844556 -0.00298135 -0.0356322 -2.16377e-13 -1.49885e-13 -9.52614e-15 0 7.33334e-17
1502 16 0.001 0.00910652 -0.00228098 -0.035898 -1.49263e-13 -2.12391e-13 2.6128e-14 0 7.67037e-17
1897 18 0.001 0.0284456 -0.00298135 -0.0356322 -2.37649e-13 -1.42065e-13 -7.45012e-15 0 7.33334e-17
1898 18 0.001 0.0291065 -0.00228098 -0.035898 -1.01386e-13 -2.23798e-13 2.13801e-14 0 7.67037e-17
335 11 0.001 -0.0504269 -0.00143886 -0.0361632 -2.08023e-14 -3.04034e-13 9.19105e-15 0 8.0935e-17
336 11 0.001 -0.0501835 -0.000506741 -0.0364276 -1.11287e-15 -3.23316e-13 3.35478e-16 0 9.73586e-17
711 12 0.001 -0.0304267 -0.00143844 -0.0361631 -1.02502e-13 -2.7912e-13 1.7353e-14 0 8.65634e-17
712 12 0.001 -0.0301834 -0.000506294 -0.0364275 5.49118e-14 -2.85294e-13 6.74584e-15 0 1.03283e-16
1107 14 0.001 -0.0104267 -0.00143844 -0.0361631 -6.15727e-14 -2.82203e-13 1.36853e-14 0 8.65634e-17
1108 14 0.001 -0.0101834 -0.000506294 -0.0364275 1.71536e-14 -2.86493e-13 9.01567e-15 0 1.03283e-16
1503 16 0.001 0.00957327 -0.00143844 -0.0361631 -6.15123e-14 -2.87924e-13 1.47673e-14 0 8.65634e-17
1504 16 0.001 0.00981662 -0.000506294 -0.0364275 1.98808e-14 -2.84387e-13 8.29602e-15 0 1.03283e-16
1899 18 0.001 0.0295733 -0.00143844 -0.0361631 -1.17866e-13 -2.76758e-13 1.8173e-14 0 8.65634e-17
1900 18 0.001 0.0298166 -0.000506294 -0.0364275 6.82942e-14 -2.9171e-13 7.69755e-15 0 1.03283e-16
337 11 0.001 -0.0501786 0.000456838 -0.0366912 1.49386e-13 -3.28209e-13 -3.53892e-14 0 1.20268e-16
713 12 0.001 -0.0301786 0.000457285 -0.0366911 1.0563e-13 -3.00784e-13 -2.98625e-14 0 1.26619e-16
1109 14 0.001 -0.0101786 0.000457285 -0.0366911 1.31567e-13 -3.00746e-13 -2.9836e-14 0 1.26619e-16
1505 16 0.001 0.00982135 0.000457285 -0.0366911 1.32171e-13 -2.98742e-13 -3.02649e-14 0 1.26619e-16
1901 18 0.001 0.0298214 0.000457285 -0.0366911 9.87704e-14 -2.99129e-13 -3.03031e-14 0 1.26619e-16
328 11 0.001 -0.0560632 -0.00326287 -0.0343007 -3.03492e-13 2.70017e-13 -1.89923e-13 0 1.23057e-16
329 11 0.001 -0.0551916 -0.00367213 -0.0345667 -3.62061e-13 1.80261e-13 -1.5787e-13 0 1.05303e-16
330 11 0.001 -0.0542457 -0.00385239 -0.034833 -3.63708e-13 9.24697e-14 -1.20455e-13 0 8.96429e-17
331 11 0.001 -0.0532848 -0.00379244 -0.0350995 -3.705e-13 5.01179e-16 -7.20857e-14 0 7.75553e-17
332 11 0.001 -0.0523688 -0.00349602 -0.0353661 -2.821e-13 -1.07245e-13 -4.82895e-14 0 7.00392e-17
704 12 0.001 -0.0360628 -0.00326317 -0.0343006 -2.96524e-13 2.39447e-13 -1.79127e-13 0 1.31535e-16
705 12 0.001 -0.0351911 -0.00367231 -0.0345665 -3.05086e-13 1.70534e-13 -1.56596e-13 0 1.13038e-16
706 12 0.001 -0.0342452 -0.00385245 -0.0348328 -3.81163e-13 1.03208e-13 -9.93758e-14 0 9.66531e-17
707 12 0.001 -0.0332843 -0.00379238 -0.0350994 -2.82839e-13 -5.97471e-15 -8.08285e-14 0 8.39281e-17
708 12 0.001 -0.0323683 -0.00349584 -0.0353659 -2.97228e-13 -9.17738e-14 -2.35584e-14 0 7.59238e-17
1100 14 0.001 -0.0160628 -0.00326317 -0.0343006 -3.14809e-13 2.43835e-13 -1.75307e-13 0 1.31535e-16
1101 14 0.001 -0.0151911 -0.00367231 -0.0345665 -3.08244e-13 1.7279e-13 -1.53806e-13 0 1.13038e-16
1102 14 0.001 -0.0142452 -0.00385245 -0.0348328 -3.48106e-13 9.81372e-14 -1.09908e-13 0 9.66531e-17
1104 14 0.001 -0.0123683 -0.00349584 -0.0353659 -3.07737e-13 -1.02276e-13 -2.05578e-14 0 7.59238e-17
1103 14 0.001 -0.0132843 -0.00379238 -0.0350994 -3.06351e-13 -5.82553e-16 -7.41193e-14 0 8.39281e-17
1496 16 0.001 0.00393719 -0.00326317 -0.0343006 -3.06908e-13 2.47895e-13 -1.75909e-13 0 1.31535e-16
1497 16 0.001 0.00480892 -0.00367231 -0.0345665 -3.2687e-13 1.74285e-13 -1.50298e-13 0 1.13038e-16
1498 16 0.001 0.00575477 -0.00385245 -0.0348328 -3.33832e-13 9.06028e-14 -1.12734e-13 0 9.66531e-17
1499 16 0.001 0.00671569 -0.00379238 -0.0350994 -3.13007e-13 4.82146e-15 -7.26662e-14 0 8.39281e-17
1500 16 0.001 0.00763168 -0.00349584 -0.0353659 -3.06966e-13 -9.85685e-14 -2.15436e-14 0 7.59238e-17
1892 18 0.001 0.0239372 -0.00326317 -0.0343006 -2.8208e-13 2.57823e-13 -1.79515e-13 0 1.31535e-16
1893 18 0.001 0.0248089 -0.00367231 -0.0345665 -3.44126e-13 1.60021e-13 -1.48184e-13 0 1.13038e-16
1894 18 0.001 0.0257548 -0.00385245 -0.0348328 -3.24829e-13 1.07071e-13 -1.13338e-13 0 9.66531e-17
1895 18 0.001 0.0267157 -0.00379238 -0.0350994 -3.13844e-13 -8.67392e-15 -7.30462e-14 0 8.39281e-17
1896 18 0.001 0.0276317 -0.00349584 -0.0353659 -3.06119e-13 -9.52609e-14 -2.09991e-14 0 7.59238e-17
327 11 0.001 -0.0568063 -0.00265016 -0.0340354 -2.84726e-13 3.34874e-13 -2.00213e-13 0 1.41033e-16
703 12 0.001 -0.036806 -0.00265055 -0.0340352 -2.68041e-13 3.16691e-13 -1.92615e-13 0 1.50211e-16
1099 14 0.001 -0.016806 -0.00265055 -0.0340352 -2.44474e-13 3.19195e-13 -1.95059e-13 0 1.50211e-16