ITEM: TIMESTEP
100000
ITEM: NUMBER OF ATOMS
1970
ITEM: BOX BOUNDS ff ff ff
-6.0000000000000005e-02 6.0000000000000005e-02
-6.0000000000000001e-03 6.0000000000000001e-03
-5.5000000000000000e-02 5.5000000000000000e-02
ITEM: ATOMS id type radius x y z fx fy fz c_bendingE c_stretchingE
384 11 0.001 -0.0510345 -0.00259688 -0.0490921 -4.43399e-10 6.90003e-11 -3.16564e-10 0 8.45719e-15
385 11 0.001 -0.0504696 -0.0018198 -0.0493661 -3.20227e-10 1.03557e-10 5.07261e-11 0 1.87161e-14
760 12 0.001 -0.0310345 -0.00259688 -0.0490921 -4.43301e-10 6.89915e-11 -3.16571e-10 0 8.45719e-15
761 12 0.001 -0.0304696 -0.0018198 -0.0493661 -3.20328e-10 1.03561e-10 5.07297e-11 0 1.87161e-14
1156 14 0.001 -0.0110345 -0.00259688 -0.0490921 -4.43312e-10 6.89971e-11 -3.16571e-10 0 8.45719e-15
1157 14 0.001 -0.0104696 -0.0018198 -0.0493661 -3.20324e-10 1.0356e-10 5.07297e-11 0 1.87161e-14
1552 16 0.001 0.00896546 -0.00259688 -0.0490921 -4.43295e-10 6.89885e-11 -3.1657e-10 0 8.45719e-15
1553 16 0.001 0.00953037 -0.0018198 -0.0493661 -3.20335e-10 1.03562e-10 5.07292e-11 0 1.87161e-14
1948 18 0.001 0.0289655 -0.00259688 -0.0490921 -4.4329e-10 6.89959e-11 -3.16573e-10 0 8.45719e-15
1949 18 0.001 0.0295304 -0.0018198 -0.0493661 -3.20333e-10 1.03557e-10 5.07317e-11 0 1.87161e-14
2 2 0.001 -0.05 -4.31175e-17 -0.05 -5.47048e-05 5.28558e-05 5.49325e-06 0 5.07005e-14
386 11 0.001 -0.050118 -0.000935208 -0.0496692 -1.77363e-10 8.78513e-11 1.76694e-10 0 6.17597e-14
762 12 0.001 -0.030118 -0.000935208 -0.0496692 -1.77308e-10 8.78585e-11 1.76691e-10 0 6.17597e-14
4 4 0.001 -0.03 -4.31175e-17 -0.05 -5.47048e-05 5.28558e-05 5.49325e-06 0 5.07005e-14
6 6 0.001 -0.01 -4.31175e-17 -0.05 -5.47048e-05 5.28558e-05 5.49325e-06 0 5.07005e-14
1158 14 0.001 -0.010118 -0.000935208 -0.0496692 -1.7731e-10 8.786e-11 1.76691e-10 0 6.17597e-14
8 8 0.001 0.01 -4.31175e-17 -0.05 -5.47048e-05 5.28558e-05 5.49325e-06 0 5.07005e-14
1554 16 0.001 0.00988199 -0.000935208 -0.0496692 -1.77307e-10 8.78593e-11 1.76691e-10 0 6.17597e-14
10 10 0.001 0.03 -4.31175e-17 -0.05 -5.47048e-05 5.28558e-05 5.49325e-06 0 5.07005e-14
1950 18 0.001 0.029882 -0.000935208 -0.0496692 -1.77322e-10 8.78514e-11 1.76693e-10 0 6.17597e-14
379 11 0.001 -0.0555145 -0.00349572 -0.0479454 -4.19188e-10 -7.27004e-11 -2.02182e-10 0 1.66508e-13
380 11 0.001 -0.0545847 -0.00377961 -0.0481755 -5.54018e-10 -1.15581e-11 -8.09227e-10 0 1.39163e-13
381 11 0.001 -0.0536115 -0.00382722 -0.0483961 -6.28182e-10 5.54424e-12 -1.14166e-09 0 1.00391e-13
382 11 0.001 -0.0526561 -0.00363506 -0.0486156 -6.21734e-10 5.8616e-12 -1.10743e-09 0 5.47246e-14
383 11 0.001 -0.0517787 -0.00321564 -0.0488443 -5.49789e-10 2.54945e-11 -7.72031e-10 0 1.64184e-14
755 12 0.001 -0.0355145 -0.00349572 -0.0479454 -4.19168e-10 -7.26812e-11 -2.02183e-10 0 1.66508e-13
756 12 0.001 -0.0345847 -0.00377961 -0.0481755 -5.54005e-10 -1.15726e-11 -8.09231e-10 0 1.39163e-13
757 12 0.001 -0.0336115 -0.00382722 -0.0483961 -6.28216e-10 5.54751e-12 -1.14165e-09 0 1.00391e-13
758 12 0.001 -0.0326561 -0.00363506 -0.0486156 -6.21704e-10 5.86416e-12 -1.10744e-09 0 5.47246e-14
759 12 0.001 -0.0317787 -0.00321564 -0.0488443 -5.4984e-10 2.54964e-11 -7.72022e-10 0 1.64184e-14
1151 14 0.001 -0.0155145 -0.00349572 -0.0479454 -4.19181e-10 -7.26945e-11 -2.02182e-10 0 1.66508e-13
1152 14 0.001 -0.0145847 -0.00377961 -0.0481755 -5.53992e-10 -1.15661e-11 -8.09234e-10 0 1.39163e-13
1153 14 0.001 -0.0136115 -0.00382722 -0.0483961 -6.28196e-10 5.54408e-12 -1.14165e-09 0 1.00391e-13
1154 14 0.001 -0.0126561 -0.00363506 -0.0486156 -6.21748e-10 5.86355e-12 -1.10743e-09 0 5.47246e-14
1155 14 0.001 -0.0117787 -0.00321564 -0.0488443 -5.49813e-10 2.54923e-11 -7.72025e-10 0 1.64184e-14
1547 16 0.001 0.00448548 -0.00349572 -0.0479454 -4.19176e-10 -7.26948e-11 -2.02183e-10 0 1.66508e-13
1548 16 0.001 0.00541529 -0.00377961 -0.0481755 -5.54002e-10 -1.15606e-11 -8.09231e-10 0 1.39163e-13
1549 16 0.001 0.00638848 -0.00382722 -0.0483961 -6.28193e-10 5.53862e-12 -1.14165e-09 0 1.00391e-13
1550 16 0.001 0.00734394 -0.00363506 -0.0486156 -6.21743e-10 5.86002e-12 -1.10743e-09 0 5.47246e-14
1551 16 0.001 0.00822132 -0.00321564 -0.0488443 -5.49822e-10 2.5506e-11 -7.72029e-10 0 1.64184e-14
1943 18 0.001 0.0244855 -0.00349572 -0.0479454 -4.19174e-10 -7.26887e-11 -2.02182e-10 0 1.66508e-13
1944 18 0.001 0.0254153 -0.00377961 -0.0481755 -5.54001e-10 -1.15718e-11 -8.09232e-10 0 1.39163e-13
1945 18 0.001 0.0263885 -0.00382722 -0.0483961 -6.28216e-10 5.55052e-12 -1.14165e-09 0 1.00391e-13
1946 18 0.001 0.0273439 -0.00363506 -0.0486156 -6.21714e-10 5.86002e-12 -1.10744e-09 0 5.47246e-14
1947 18 0.001 0.0282213 -0.00321564 -0.0488443 -5.49829e-10 2.55027e-11 -7.72025e-10 0 1.64184e-14
378 11 0.001 -0.0563433 -0.00299419 -0.0477012 -2.67641e-10 -1.62875e-10 4.62958e-10 0 1.83095e-13
754 12 0.001 -0.0363433 -0.00299419 -0.0477012 -2.67694e-10 -1.62892e-10 4.62963e-10 0 1.83095e-13
1150 14 0.001 -0.0163433 -0.00299419 -0.0477012 -2.67662e-10 -1.6288e-10 4.6296e-10 0 1.83095e-13
1546 16 0.001 0.00365672 -0.00299419 -0.0477012 -2.67676e-10 -1.62881e-10 4.62962e-10 0 1.83095e-13
1942 18 0.001 0.0236567 -0.00299419 -0.0477012 -2.67683e-10 -1.62885e-10 4.62962e-10 0 1.83095e-13
377 11 0.001 -0.0570203 -0.00230682 -0.0474421 -1.41392e-10 -2.31732e-10 9.38636e-10 0 1.90422e-13
753 12 0.001 -0.0370203 -0.00230682 -0.0474421 -1.41313e-10 -2.31718e-10 9.3863e-10 0 1.90422e-13
1149 14 0.001 -0.0170203 -0.00230682 -0.0474421 -1.41379e-10 -2.31723e-10 9.38637e-10 0 1.90422e-13
1545 16 0.001 0.00297967 -0.00230682 -0.0474421 -1.41347e-10 -2.31723e-10 9.38633e-10 0 1.90422e-13
1941 18 0.001 0.0229797 -0.00230682 -0.0474421 -1.41348e-10 -2.31718e-10 9.38634e-10 0 1.90422e-13
376 11 0.001 -0.0575047 -0.0014763 -0.0471707 -6.05732e-11 -2.29975e-10 1.05626e-09 0 1.8908e-13
375 11 0.001 -0.0577673 -0.000553635 -0.0468918 -2.07721e-11 -1.43411e-10 8.02287e-10 0 1.78965e-13
752 12 0.001 -0.0375047 -0.0014763 -0.0471707 -6.06464e-11 -2.29991e-10 1.05626e-09 0 1.8908e-13
751 12 0.001 -0.0377673 -0.000553635 -0.0468918 -2.0724e-11 -1.43397e-10 8.02288e-10 0 1.78965e-13
1148 14 0.001 -0.0175047 -0.0014763 -0.0471707 -6.05814e-11 -2.29984e-10 1.05626e-09 0 1.8908e-13
1147 14 0.001 -0.0177673 -0.000553635 -0.0468918 -2.07625e-11 -1.43408e-10 8.02287e-10 0 1.78965e-13
1544 16 0.001 0.00249529 -0.0014763 -0.0471707 -6.06138e-11 -2.29987e-10 1.05626e-09 0 1.8908e-13
1543 16 0.001 0.00223273 -0.000553635 -0.0468918 -2.07436e-11 -1.43401e-10 8.02288e-10 0 1.78965e-13
1940 18 0.001 0.0224953 -0.0014763 -0.0471707 -6.05964e-11 -2.2999e-10 1.05626e-09 0 1.8908e-13
1939 18 0.001 0.0222327 -0.000553635 -0.0468918 -2.07626e-11 -1.43404e-10 8.02288e-10 0 1.78965e-13
373 11 0.001 -0.0575779 0.00133918 -0.0463298 2.44902e-12 1.34413e-10 -1.4655e-10 0 1.33802e-13
374 11 0.001 -0.0577922 0.000404568 -0.0466102 -3.29335e-12 -2.68222e-12 3.22886e-10 0 1.6015e-13
749 12 0.001 -0.0375779 0.00133918 -0.0463298 2.43335e-12 1.34405e-10 -1.46556e-10 0 1.33802e-13
750 12 0.001 -0.0377922 0.000404568 -0.0466102 -3.31168e-12 -2.6821e-12 3.22888e-10 0 1.6015e-13
1145 14 0.001 -0.0175779 0.00133918 -0.0463298 2.44213e-12 1.34398e-10 -1.46557e-10 0 1.33802e-13
1146 14 0.001 -0.0177922 0.000404568 -0.0466102 -3.30734e-12 -2.67207e-12 3.22889e-10 0 1.6015e-13
1541 16 0.001 0.00242208 0.00133918 -0.0463298 2.45478e-12 1.34402e-10 -1.46555e-10 0 1.33802e-13
1542 16 0.001 0.00220784 0.000404568 -0.0466102 -3.318e-12 -2.67834e-12 3.22888e-10 0 1.6015e-13
1937 18 0.001 0.0224221 0.00133918 -0.0463298 2.43537e-12 1.34401e-10 -1.46556e-10 0 1.33802e-13
1938 18 0.001 0.0222078 0.000404568 -0.0466102 -3.29777e-12 -2.67703e-12 3.22889e-10 0 1.6015e-13
372 11 0.001 -0.0571377 0.00219199 -0.0460523 -1.42171e-11 2.19623e-10 -3.9322e-10 0 1.02831e-13
748 12 0.001 -0.0371377 0.00219199 -0.0460523 -1.41762e-11 2.19621e-10 -3.93213e-10 0 1.02831e-13
1144 14 0.001 -0.0171377 0.00219199 -0.0460523 -1.4177e-11 2.19632e-10 -3.9321e-10 0 1.02831e-13
1540 16 0.001 0.00286225 0.00219199 -0.0460523 -1.41998e-11 2.1963e-10 -3.93214e-10 0 1.02831e-13
1936 18 0.001 0.0228623 0.00219199 -0.0460523 -1.41899e-11 2.19628e-10 -3.93214e-10 0 1.02831e-13
371 11 0.001 -0.056499 0.00290945 -0.0457779 -7.38733e-11 2.43664e-10 -3.24091e-10 0 7.16431e-14
747 12 0.001 -0.036499 0.00290945 -0.0457779 -7.39299e-11 2.43673e-10 -3.24101e-10 0 7.16431e-14
1143 14 0.001 -0.016499 0.00290945 -0.0457779 -7.39118e-11 2.43662e-10 -3.24099e-10 0 7.16431e-14
1539 16 0.001 0.00350096 0.00290945 -0.0457779 -7.3879e-11 2.43664e-10 -3.24092e-10 0 7.16431e-14
1935 18 0.001 0.023501 0.00290945 -0.0457779 -7.38888e-11 2.43665e-10 -3.24093e-10 0 7.16431e-14
370 11 0.001 -0.0557019 0.00344629 -0.0455053 -1.78107e-10 2.33297e-10 -5.8138e-13 0 4.4716e-14
369 11 0.001 -0.0547963 0.00376866 -0.0452332 -2.95699e-10 2.2067e-10 4.0382e-10 0 2.48402e-14
367 11 0.001 -0.0528903 0.00370378 -0.0446878 -3.97283e-10 2.08884e-10 7.47554e-10 0 5.62532e-15
368 11 0.001 -0.0538391 0.00385631 -0.0449607 -3.79524e-10 2.16518e-10 6.94812e-10 0 1.23296e-14
745 12 0.001 -0.0347963 0.00376866 -0.0452332 -2.95816e-10 2.20671e-10 4.0379e-10 0 2.48402e-14
746 12 0.001 -0.0357019 0.00344629 -0.0455053 -1.78018e-10 2.33294e-10 -5.60601e-13 0 4.4716e-14
744 12 0.001 -0.0338391 0.00385631 -0.0449607 -3.79453e-10 2.1651e-10 6.94831e-10 0 1.23296e-14
743 12 0.001 -0.0328903 0.00370378 -0.0446878 -3.97275e-10 2.08887e-10 7.47557e-10 0 5.62532e-15
1142 14 0.001 -0.0157019 0.00344629 -0.0455053 -1.78079e-10 2.33302e-10 -5.7483e-13 0 4.4716e-14
1140 14 0.001 -0.0138391 0.00385631 -0.0449607 -3.79487e-10 2.16517e-10 6.94824e-10 0 1.23296e-14
1141 14 0.001 -0.0147963 0.00376866 -0.0452332 -2.95732e-10 2.20661e-10 4.03811e-10 0 2.48402e-14
1139 14 0.001 -0.0128903 0.00370378 -0.0446878 -3.97308e-10 2.08897e-10 7.47545e-10 0 5.62532e-15
1538 16 0.001 0.00429815 0.00344629 -0.0455053 -1.78108e-10 2.33302e-10 -5.81653e-13 0 4.4716e-14
1537 16 0.001 0.00520373 0.00376866 -0.0452332 -2.95725e-10 2.2066e-10 4.03813e-10 0 2.48402e-14
1535 16 0.001 0.00710968 0.00370378 -0.0446878 -3.97323e-10 2.0889e-10 7.47542e-10 0 5.62532e-15
1536 16 0.001 0.00616086 0.00385631 -0.0449607 -3.79479e-10 2.1652e-10 6.94825e-10 0 1.23296e-14
1933 18 0.001 0.0252037 0.00376866 -0.0452332 -2.95728e-10 2.20664e-10 4.03812e-10 0 2.48402e-14
1934 18 0.001 0.0242981 0.00344629 -0.0455053 -1.7809e-10 2.33302e-10 -5.77107e-13 0 4.4716e-14
1932 18 0.001 0.0261609 0.00385631 -0.0449607 -3.79485e-10 2.16518e-10 6.94824e-10 0 1.23296e-14
1931 18 0.001 0.0271097 0.00370378 -0.0446878 -3.97321e-10 2.08892e-10 7.47542e-10 0 5.62532e-15
361 11 0.001 -0.0502127 -0.000824101 -0.0430802 -1.81402e-12 7.20274e-11 -2.74434e-10 0 3.44729e-15
737 12 0.001 -0.0302127 -0.000824101 -0.0430802 -1.84521e-12 7.2042e-11 -2.74434e-10 0 3.44729e-15
1133 14 0.001 -0.0102127 -0.000824101 -0.0430802 -1.80578e-12 7.20328e-11 -2.74434e-10 0 3.44729e-15
1529 16 0.001 0.00978727 -0.000824101 -0.0430802 -1.81083e-12 7.20352e-11 -2.74433e-10 0 3.44729e-15
1925 18 0.001 0.0297873 -0.000824101 -0.0430802 -1.84038e-12 7.20432e-11 -2.74434e-10 0 3.44729e-15
362 11 0.001 -0.0501251 0.000135802 -0.0433428 -5.28055e-11 4.39937e-11 -3.91669e-10 0 2.18543e-15
363 11 0.001 -0.0502775 0.00108704 -0.0436072 -1.08702e-10 4.4357e-11 -3.54278e-10 0 1.45382e-15
738 12 0.001 -0.0301251 0.000135802 -0.0433428 -5.28048e-11 4.39924e-11 -3.9167e-10 0 2.18543e-15
739 12 0.001 -0.0302775 0.00108704 -0.0436072 -1.08718e-10 4.43534e-11 -3.54279e-10 0 1.45382e-15
1134 14 0.001 -0.0101251 0.000135802 -0.0433428 -5.28547e-11 4.39967e-11 -3.91672e-10 0 2.18543e-15
1135 14 0.001 -0.0102775 0.00108704 -0.0436072 -1.08649e-10 4.43581e-11 -3.54275e-10 0 1.45382e-15
1530 16 0.001 0.00987494 0.000135802 -0.0433428 -5.28564e-11 4.39967e-11 -3.91672e-10 0 2.18543e-15
1531 16 0.001 0.00972246 0.00108704 -0.0436072 -1.08646e-10 4.43565e-11 -3.54274e-10 0 1.45382e-15
1926 18 0.001 0.0298749 0.000135802 -0.0433428 -5.28108e-11 4.39935e-11 -3.9167e-10 0 2.18543e-15
1927 18 0.001 0.0297225 0.00108704 -0.0436072 -1.08714e-10 4.43545e-11 -3.5428e-10 0 1.45382e-15
365 11 0.001 -0.0512499 0.00273056 -0.0441435 -2.66281e-10 1.32518e-10 2.10458e-10 0 1.4221e-15
364 11 0.001 -0.0506605 0.00197029 -0.0438741 -1.79399e-10 7.86829e-11 -1.34715e-10 0 1.17907e-15
740 12 0.001 -0.0306605 0.00197029 -0.0438741 -1.79371e-10 7.86837e-11 -1.34712e-10 0 1.17907e-15
741 12 0.001 -0.0312499 0.00273056 -0.0441435 -2.66295e-10 1.32524e-10 2.10455e-10 0 1.4221e-15
1136 14 0.001 -0.0106605 0.00197029 -0.0438741 -1.79433e-10 7.86752e-11 -1.34717e-10 0 1.17907e-15
1137 14 0.001 -0.0112499 0.00273056 -0.0441435 -2.66271e-10 1.32531e-10 2.10456e-10 0 1.4221e-15
1533 16 0.001 0.00875008 0.00273056 -0.0441435 -2.66279e-10 1.32532e-10 2.10453e-10 0 1.4221e-15
1532 16 0.001 0.00933949 0.00197029 -0.0438741 -1.7944e-10 7.86763e-11 -1.34718e-10 0 1.17907e-15
1928 18 0.001 0.0293395 0.00197029 -0.0438741 -1.79379e-10 7.86811e-11 -1.34711e-10 0 1.17907e-15
1929 18 0.001 0.0287501 0.00273056 -0.0441435 -2.66294e-10 1.32523e-10 2.10454e-10 0 1.4221e-15
366 11 0.001 -0.052009 0.0033206 -0.044415 -3.50239e-10 1.81561e-10 5.53638e-10 0 2.57199e-15
742 12 0.001 -0.032009 0.0033206 -0.044415 -3.50255e-10 1.81557e-10 5.53634e-10 0 2.57199e-15
1138 14 0.001 -0.012009 0.0033206 -0.044415 -3.50232e-10 1.81544e-10 5.53644e-10 0 2.57199e-15
1534 16 0.001 0.00799104 0.0033206 -0.044415 -3.50208e-10 1.81547e-10 5.53649e-10 0 2.57199e-15
1930 18 0.001 0.027991 0.0033206 -0.044415 -3.50218e-10 1.81551e-10 5.53646e-10 0 2.57199e-15
355 11 0.001 -0.054548 -0.00382354 -0.0415099 5.25278e-11 7.79707e-11 -1.2267e-10 0 2.62521e-14
356 11 0.001 -0.0535843 -0.00384233 -0.0417725 8.25446e-11 9.90306e-11 -1.39698e-11 0 2.10819e-14
357 11 0.001 -0.0526458 -0.00362218 -0.0420348 1.07059e-10 1.19618e-10 9.14604e-11 0 1.60767e-14
358 11 0.001 -0.0517908 -0.00317673 -0.0422965 1.11757e-10 1.33706e-10 1.31945e-10 0 1.1661e-14
731 12 0.001 -0.034548 -0.00382354 -0.0415099 5.25857e-11 7.79702e-11 -1.22685e-10 0 2.62521e-14
732 12 0.001 -0.0335843 -0.00384233 -0.0417725 8.24748e-11 9.90299e-11 -1.39527e-11 0 2.10819e-14
733 12 0.001 -0.0326458 -0.00362218 -0.0420348 1.07091e-10 1.19617e-10 9.14539e-11 0 1.60767e-14
734 12 0.001 -0.0317908 -0.00317673 -0.0422965 1.11794e-10 1.33714e-10 1.31935e-10 0 1.1661e-14
1127 14 0.001 -0.014548 -0.00382354 -0.0415099 5.25329e-11 7.79746e-11 -1.22671e-10 0 2.62521e-14
1128 14 0.001 -0.0135843 -0.00384233 -0.0417725 8.25374e-11 9.90249e-11 -1.3968e-11 0 2.10819e-14
1129 14 0.001 -0.0126458 -0.00362218 -0.0420348 1.07032e-10 1.19623e-10 9.1467e-11 0 1.60767e-14
1130 14 0.001 -0.0117908 -0.00317673 -0.0422965 1.11833e-10 1.33711e-10 1.31927e-10 0 1.1661e-14
1523 16 0.001 0.00545199 -0.00382354 -0.0415099 5.25389e-11 7.79716e-11 -1.22673e-10 0 2.62521e-14
1524 16 0.001 0.00641568 -0.00384233 -0.0417725 8.25234e-11 9.90249e-11 -1.39643e-11 0 2.10819e-14
1525 16 0.001 0.00735419 -0.00362218 -0.0420348 1.07034e-10 1.19628e-10 9.1466e-11 0 1.60767e-14
1526 16 0.001 0.00820923 -0.00317673 -0.0422965 1.11848e-10 1.33701e-10 1.31925e-10 0 1.1661e-14
1919 18 0.001 0.025452 -0.00382354 -0.0415099 5.25242e-11 7.79734e-11 -1.2267e-10 0 2.62521e-14
1920 18 0.001 0.0264157 -0.00384233 -0.0417725 8.25334e-11 9.90259e-11 -1.39667e-11 0 2.10819e-14
1921 18 0.001 0.0273542 -0.00362218 -0.0420348 1.07025e-10 1.19624e-10 9.14682e-11 0 1.60767e-14
1922 18 0.001 0.0282092 -0.00317673 -0.0422965 1.1186e-10 1.33703e-10 1.31924e-10 0 1.1661e-14
359 11 0.001 -0.0510723 -0.00253361 -0.0425577 9.05598e-11 1.31372e-10 6.85337e-11 0 8.07465e-15
360 11 0.001 -0.0505352 -0.00173279 -0.0428188 4.84257e-11 1.08017e-10 -8.853e-11 0 5.36509e-15
735 12 0.001 -0.0310723 -0.00253361 -0.0425577 9.04732e-11 1.3137e-10 6.8549e-11 0 8.07465e-15
736 12 0.001 -0.0305352 -0.00173279 -0.0428188 4.85059e-11 1.08003e-10 -8.85375e-11 0 5.36509e-15
1131 14 0.001 -0.0110723 -0.00253361 -0.0425577 9.04744e-11 1.31367e-10 6.85511e-11 0 8.07465e-15
1132 14 0.001 -0.0105352 -0.00173279 -0.0428188 4.84733e-11 1.0801e-10 -8.85361e-11 0 5.36509e-15
1527 16 0.001 0.00892768 -0.00253361 -0.0425577 9.04467e-11 1.31375e-10 6.85546e-11 0 8.07465e-15
1528 16 0.001 0.00946484 -0.00173279 -0.0428188 4.8496e-11 1.08007e-10 -8.8539e-11 0 5.36509e-15
1923 18 0.001 0.0289277 -0.00253361 -0.0425577 9.04325e-11 1.31382e-10 6.8554e-11 0 8.07465e-15
1924 18 0.001 0.0294648 -0.00173279 -0.0428188 4.85194e-11 1.07997e-10 -8.85386e-11 0 5.36509e-15
353 11 0.001 -0.0563137 -0.00308874 -0.0409837 1.78839e-11 2.805e-11 -1.68885e-10 0 3.50618e-14
354 11 0.001 -0.055477 -0.00356702 -0.041247 2.96963e-11 5.56095e-11 -1.81722e-10 0 3.10699e-14
729 12 0.001 -0.0363137 -0.00308874 -0.0409837 1.79094e-11 2.80532e-11 -1.6889e-10 0 3.50618e-14
730 12 0.001 -0.035477 -0.00356702 -0.041247 2.96572e-11 5.56118e-11 -1.81712e-10 0 3.10699e-14
1125 14 0.001 -0.0163137 -0.00308874 -0.0409837 1.79092e-11 2.80438e-11 -1.68892e-10 0 3.50618e-14
1126 14 0.001 -0.015477 -0.00356702 -0.041247 2.96782e-11 5.56137e-11 -1.81717e-10 0 3.10699e-14
1521 16 0.001 0.00368633 -0.00308874 -0.0409837 1.78966e-11 2.80417e-11 -1.68889e-10 0 3.50618e-14
1522 16 0.001 0.00452297 -0.00356702 -0.041247 2.96851e-11 5.56168e-11 -1.81718e-10 0 3.10699e-14
1917 18 0.001 0.0236863 -0.00308874 -0.0409837 1.79016e-11 2.80384e-11 -1.68891e-10 0 3.50618e-14
1918 18 0.001 0.024523 -0.00356702 -0.041247 2.96919e-11 5.56145e-11 -1.8172e-10 0 3.10699e-14
351 11 0.001 -0.0575108 -0.00159784 -0.040456 6.69071e-12 -3.95908e-11 -2.40941e-12 0 3.95377e-14
352 11 0.001 -0.0570059 -0.00241845 -0.0407201 1.26914e-11 -5.51032e-12 -9.71694e-11 0 3.79178e-14
727 12 0.001 -0.0375108 -0.00159784 -0.040456 6.73294e-12 -3.95958e-11 -2.41537e-12 0 3.95377e-14
728 12 0.001 -0.0370059 -0.00241845 -0.0407201 1.26588e-11 -5.51081e-12 -9.71649e-11 0 3.79178e-14
1123 14 0.001 -0.0175108 -0.00159784 -0.040456 6.69613e-12 -3.95912e-11 -2.4096e-12 0 3.95377e-14
1124 14 0.001 -0.0170059 -0.00241845 -0.0407201 1.26832e-11 -5.51064e-12 -9.7168e-11 0 3.79178e-14
1519 16 0.001 0.00248918 -0.00159784 -0.040456 6.68119e-12 -3.95915e-11 -2.4084e-12 0 3.95377e-14
1520 16 0.001 0.00299407 -0.00241845 -0.0407201 1.26986e-11 -5.50968e-12 -9.71704e-11 0 3.79178e-14
1915 18 0.001 0.0224892 -0.00159784 -0.040456 6.67114e-12 -3.9591e-11 -2.40739e-12 0 3.95377e-14
1916 18 0.001 0.0229941 -0.00241845 -0.0407201 1.26962e-11 -5.5039e-12 -9.71683e-11 0 3.79178e-14
350 11 0.001 -0.0577969 -0.000677975 -0.0401914 -4.09175e-12 -6.56461e-11 7.66029e-11 0 4.00023e-14
726 12 0.001 -0.0377969 -0.000677975 -0.0401914 -4.11736e-12 -6.56451e-11 7.66046e-11 0 4.00023e-14
1122 14 0.001 -0.0177969 -0.000677975 -0.0401914 -4.11391e-12 -6.56426e-11 7.66029e-11 0 4.00023e-14
1518 16 0.001 0.00220306 -0.000677975 -0.0401914 -4.08969e-12 -6.56435e-11 7.66028e-11 0 4.00023e-14
1914 18 0.001 0.0222031 -0.000677975 -0.0401914 -4.08596e-12 -6.56471e-11 7.66011e-11 0 4.00023e-14
348 11 0.001 -0.0576566 0.00122809 -0.0396607 -3.26595e-11 -7.35076e-11 1.13178e-10 0 3.82547e-14
349 11 0.001 -0.0578466 0.000283939 -0.0399263 -1.85141e-11 -7.71218e-11 1.15811e-10 0 3.95e-14
724 12 0.001 -0.0376566 0.00122809 -0.0396607 -3.26977e-11 -7.34882e-11 1.13178e-10 0 3.82547e-14
725 12 0.001 -0.0378466 0.000283939 -0.0399263 -1.84918e-11 -7.713e-11 1.1581e-10 0 3.95e-14
1120 14 0.001 -0.0176566 0.00122809 -0.0396607 -3.27609e-11 -7.34894e-11 1.13171e-10 0 3.82547e-14
1121 14 0.001 -0.0178466 0.000283939 -0.0399263 -1.84513e-11 -7.71332e-11 1.15813e-10 0 3.95e-14
1516 16 0.001 0.00234336 0.00122809 -0.0396607 -3.27063e-11 -7.34971e-11 1.13175e-10 0 3.82547e-14
1517 16 0.001 0.00215343 0.000283939 -0.0399263 -1.84912e-11 -7.7128e-11 1.15812e-10 0 3.95e-14
1912 18 0.001 0.0223434 0.00122809 -0.0396607 -3.27342e-11 -7.34969e-11 1.13173e-10 0 3.82547e-14
1913 18 0.001 0.0221534 0.000283939 -0.0399263 -1.84738e-11 -7.71279e-11 1.15813e-10 0 3.95e-14
347 11 0.001 -0.057239 0.00209577 -0.0393948 -4.43043e-11 -5.91422e-11 8.47376e-11 0 3.64811e-14
346 11 0.001 -0.0566196 0.00283304 -0.0391286 -5.36334e-11 -3.99662e-11 5.32104e-11 0 3.43696e-14
722 12 0.001 -0.0366196 0.00283304 -0.0391286 -5.37129e-11 -3.99487e-11 5.31992e-11 0 3.43696e-14
723 12 0.001 -0.037239 0.00209577 -0.0393948 -4.42408e-11 -5.9166e-11 8.47422e-11 0 3.64811e-14
1118 14 0.001 -0.0166196 0.00283304 -0.0391286 -5.36323e-11 -3.99502e-11 5.32174e-11 0 3.43696e-14
1119 14 0.001 -0.017239 0.00209577 -0.0393948 -4.42184e-11 -5.91622e-11 8.47448e-11 0 3.64811e-14
1515 16 0.001 0.002761 0.00209577 -0.0393948 -4.428e-11 -5.9159e-11 8.4736e-11 0 3.64811e-14
1514 16 0.001 0.00338035 0.00283304 -0.0391286 -5.35992e-11 -3.99564e-11 5.32222e-11 0 3.43696e-14
1910 18 0.001 0.0233804 0.00283304 -0.0391286 -5.36082e-11 -3.99587e-11 5.32201e-11 0 3.43696e-14
1911 18 0.001 0.022761 0.00209577 -0.0393948 -4.42586e-11 -5.91558e-11 8.47394e-11 0 3.64811e-14
345 11 0.001 -0.0558371 0.00339406 -0.0388624 -6.22556e-11 -1.95853e-11 3.629e-11 0 3.20889e-14
344 11 0.001 -0.05494 0.00374393 -0.0385961 -7.14645e-11 8.67476e-13 3.93453e-11 0 2.97904e-14
720 12 0.001 -0.03494 0.00374393 -0.0385961 -7.14748e-11 8.70027e-13 3.93444e-11 0 2.97904e-14
721 12 0.001 -0.0358371 0.00339406 -0.0388624 -6.22033e-11 -1.95936e-11 3.6299e-11 0 3.20889e-14
1117 14 0.001 -0.0158371 0.00339406 -0.0388624 -6.23612e-11 -1.95881e-11 3.62606e-11 0 3.20889e-14
1116 14 0.001 -0.01494 0.00374393 -0.0385961 -7.13316e-11 8.53819e-13 3.93817e-11 0 2.97904e-14
1513 16 0.001 0.0041629 0.00339406 -0.0388624 -6.2354e-11 -1.95818e-11 3.62638e-11 0 3.20889e-14
1512 16 0.001 0.00505996 0.00374393 -0.0385961 -7.13346e-11 8.60511e-13 3.93811e-11 0 2.97904e-14
1908 18 0.001 0.02506 0.00374393 -0.0385961 -7.13583e-11 8.55009e-13 3.93741e-11 0 2.97904e-14
1909 18 0.001 0.0241629 0.00339406 -0.0388624 -6.23409e-11 -1.95784e-11 3.62677e-11 0 3.20889e-14
338 11 0.001 -0.0503288 0.00120382 -0.0370006 -3.128e-11 8.25118e-11 3.95799e-11 0 2.11055e-14
714 12 0.001 -0.0303288 0.00120382 -0.0370006 -3.12659e-11 8.25255e-11 3.95776e-11 0 2.11055e-14
1110 14 0.001 -0.0103288 0.00120382 -0.0370006 -3.12236e-11 8.25168e-11 3.95826e-11 0 2.11055e-14
1506 16 0.001 0.00967118 0.00120382 -0.0370006 -3.12196e-11 8.25208e-11 3.95826e-11 0 2.11055e-14
1902 18 0.001 0.0296712 0.00120382 -0.0370006 -3.12459e-11 8.252e-11 3.95795e-11 0 2.11055e-14
340 11 0.001 -0.0513555 0.00281566 -0.0375319 -6.5699e-11 7.32618e-11 7.91693e-11 0 2.26789e-14
339 11 0.001 -0.0507409 0.00207428 -0.0372662 -4.94264e-11 8.05968e-11 6.19546e-11 0 2.17214e-14
715 12 0.001 -0.0307409 0.00207428 -0.0372662 -4.94699e-11 8.05902e-11 6.19488e-11 0 2.17214e-14
716 12 0.001 -0.0313555 0.00281566 -0.0375319 -6.56448e-11 7.32658e-11 7.91785e-11 0 2.26789e-14
1111 14 0.001 -0.0107409 0.00207428 -0.0372662 -4.94886e-11 8.05949e-11 6.19466e-11 0 2.17214e-14
1112 14 0.001 -0.0113555 0.00281566 -0.0375319 -6.56572e-11 7.32726e-11 7.91744e-11 0 2.26789e-14
1508 16 0.001 0.00864448 0.00281566 -0.0375319 -6.56555e-11 7.32775e-11 7.91742e-11 0 2.26789e-14
1507 16 0.001 0.00925911 0.00207428 -0.0372662 -4.94899e-11 8.05874e-11 6.19476e-11 0 2.17214e-14
1903 18 0.001 0.0292591 0.00207428 -0.0372662 -4.94635e-11 8.05902e-11 6.19516e-11 0 2.17214e-14
1904 18 0.001 0.0286445 0.00281566 -0.0375319 -6.5674e-11 7.32714e-11 7.91713e-11 0 2.26789e-14
342 11 0.001 -0.0530293 0.00373763 -0.0380638 -8.12418e-11 4.20471e-11 7.51364e-11 0 2.56487e-14
343 11 0.001 -0.0539843 0.00386088 -0.0383299 -7.85774e-11 2.16433e-11 5.64586e-11 0 2.76074e-14
341 11 0.001 -0.0521345 0.00338185 -0.0377978 -7.69371e-11 6.00239e-11 8.43457e-11 0 2.39916e-14
719 12 0.001 -0.0339843 0.00386088 -0.0383299 -7.85835e-11 2.1644e-11 5.64556e-11 0 2.76074e-14
718 12 0.001 -0.0330293 0.00373763 -0.0380638 -8.12446e-11 4.20502e-11 7.51366e-11 0 2.56487e-14
717 12 0.001 -0.0321345 0.00338185 -0.0377978 -7.69482e-11 6.0014e-11 8.4345e-11 0 2.39916e-14
1115 14 0.001 -0.0139843 0.00386088 -0.0383299 -7.86236e-11 2.16591e-11 5.64444e-11 0 2.76074e-14
1113 14 0.001 -0.0121345 0.00338185 -0.0377978 -7.69117e-11 6.00049e-11 8.43548e-11 0 2.39916e-14
1114 14 0.001 -0.0130293 0.00373763 -0.0380638 -8.12877e-11 4.20525e-11 7.5125e-11 0 2.56487e-14
1510 16 0.001 0.00697072 0.00373763 -0.0380638 -8.12709e-11 4.20568e-11 7.51287e-11 0 2.56487e-14
1511 16 0.001 0.00601572 0.00386088 -0.0383299 -7.86382e-11 2.16481e-11 5.64409e-11 0 2.76074e-14
1509 16 0.001 0.00786553 0.00338185 -0.0377978 -7.69233e-11 6.00046e-11 8.43523e-11 0 2.39916e-14
1907 18 0.001 0.0260157 0.00386088 -0.0383299 -7.86253e-11 2.1653e-11 5.64443e-11 0 2.76074e-14
1906 18 0.001 0.0269707 0.00373763 -0.0380638 -8.12798e-11 4.20519e-11 7.51272e-11 0 2.56487e-14
1905 18 0.001 0.0278655 0.00338185 -0.0377978 -7.69078e-11 6.00099e-11 8.43551e-11 0 2.39916e-14
333 11 0.001 -0.0516991 -0.00310359 -0.0356747 4.32774e-11 5.01456e-11 -1.12663e-12 0 2.19138e-14
709 12 0.001 -0.0316991 -0.00310359 -0.0356747 4.33002e-11 5.01462e-11 -1.13258e-12 0 2.19138e-14
1105 14 0.001 -0.0116991 -0.00310359 -0.0356747 4.32761e-11 5.01366e-11 -1.12575e-12 0 2.19138e-14
1501 16 0.001 0.00830092 -0.00310359 -0.0356747 4.32803e-11 5.01449e-11 -1.12781e-12 0 2.19138e-14
1897 18 0.001 0.0283009 -0.00310359 -0.0356747 4.32893e-11 5.01449e-11 -1.12914e-12 0 2.19138e-14
334 11 0.001 -0.0510027 -0.00243807 -0.0359397 3.3093e-11 6.07932e-11 -9.78096e-13 0 2.13693e-14
335 11 0.001 -0.0504927 -0.00162096 -0.0362048 1.98625e-11 6.93993e-11 2.93662e-13 0 2.09746e-14
710 12 0.001 -0.0310027 -0.00243807 -0.0359397 3.31103e-11 6.07874e-11 -9.79233e-13 0 2.13693e-14
711 12 0.001 -0.0304927 -0.00162096 -0.0362048 1.98275e-11 6.94072e-11 2.95046e-13 0 2.09746e-14
1106 14 0.001 -0.0110027 -0.00243807 -0.0359397 3.31194e-11 6.07963e-11 -9.8277e-13 0 2.13693e-14
1107 14 0.001 -0.0104927 -0.00162096 -0.0362048 1.98303e-11 6.94017e-11 2.96157e-13 0 2.09746e-14
1502 16 0.001 0.00899725 -0.00243807 -0.0359397 3.31171e-11 6.07886e-11 -9.80776e-13 0 2.13693e-14
1503 16 0.001 0.00950727 -0.00162096 -0.0362048 1.9825e-11 6.94082e-11 2.9494e-13 0 2.09746e-14
1898 18 0.001 0.0289973 -0.00243807 -0.0359397 3.30907e-11 6.07899e-11 -9.77148e-13 0 2.13693e-14
1899 18 0.001 0.0295073 -0.00162096 -0.0362048 1.98525e-11 6.94023e-11 2.9326e-13 0 2.09746e-14
336 11 0.001 -0.0502008 -0.000703102 -0.0364699 4.22947e-12 7.59622e-11 6.25516e-12 0 2.07715e-14
712 12 0.001 -0.0302008 -0.000703102 -0.0364699 4.27559e-12 7.59615e-11 6.2532e-12 0 2.07715e-14
1108 14 0.001 -0.0102008 -0.000703102 -0.0364699 4.27448e-12 7.59636e-11 6.25308e-12 0 2.07715e-14
1504 16 0.001 0.00979924 -0.000703102 -0.0364699 4.28225e-12 7.59583e-11 6.25397e-12 0 2.07715e-14
1900 18 0.001 0.0297992 -0.000703102 -0.0364699 4.26384e-12 7.59636e-11 6.25363e-12 0 2.07715e-14
337 11 0.001 -0.050145 0.000258427 -0.0367352 -1.28625e-11 8.05529e-11 1.9495e-11 0 2.08015e-14
713 12 0.001 -0.030145 0.000258427 -0.0367352 -1.28928e-11 8.05465e-11 1.94974e-11 0 2.08015e-14
1109 14 0.001 -0.010145 0.000258427 -0.0367352 -1.2915e-11 8.05456e-11 1.94963e-11 0 2.08015e-14
1505 16 0.001 0.00985504 0.000258427 -0.0367352 -1.29196e-11 8.05469e-11 1.94956e-11 0 2.08015e-14
1901 18 0.001 0.029855 0.000258427 -0.0367352 -1.29015e-11 8.05468e-11 1.94967e-11 0 2.08015e-14
328 11 0.001 -0.0562192 -0.00316139 -0.03435 4.20855e-11 -9.47525e-12 -1.32541e-11 0 2.53895e-14
329 11 0.001 -0.055368 -0.00361234 -0.034615 4.76401e-11 9.61831e-13 -1.29362e-11 0 2.47329e-14
330 11 0.001 -0.0544318 -0.00383869 -0.0348799 5.13136e-11 1.26238e-11 -1.01154e-11 0 2.40179e-14
332 11 0.001 -0.0525384 -0.00357616 -0.0354098 4.97574e-11 3.79825e-11 -2.67994e-12 0 2.25657e-14
331 11 0.001 -0.0534686 -0.00382638 -0.0351449 5.2211e-11 2.51633e-11 -6.05557e-12 0 2.32815e-14
704 12 0.001 -0.0362192 -0.00316139 -0.03435 4.20929e-11 -9.46794e-12 -1.32539e-11 0 2.53895e-14
705 12 0.001 -0.035368 -0.00361234 -0.034615 4.76644e-11 9.59779e-13 -1.2943e-11 0 2.47329e-14
706 12 0.001 -0.0344318 -0.00383869 -0.0348799 5.12794e-11 1.26255e-11 -1.01071e-11 0 2.40179e-14
707 12 0.001 -0.0334686 -0.00382638 -0.0351449 5.22591e-11 2.5153e-11 -6.06682e-12 0 2.32815e-14
708 12 0.001 -0.0325384 -0.00357616 -0.0354098 4.96938e-11 3.79897e-11 -2.66466e-12 0 2.25657e-14
1100 14 0.001 -0.0162192 -0.00316139 -0.03435 4.2112e-11 -9.44723e-12 -1.32542e-11 0 2.53895e-14
1101 14 0.001 -0.015368 -0.00361234 -0.034615 4.76637e-11 9.52632e-13 -1.29442e-11 0 2.47329e-14
1102 14 0.001 -0.0144318 -0.00383869 -0.0348799 5.12748e-11 1.26182e-11 -1.01059e-11 0 2.40179e-14
1104 14 0.001 -0.0125384 -0.00357616 -0.0354098 4.97192e-11 3.79919e-11 -2.67142e-12 0 2.25657e-14
1103 14 0.001 -0.0134686 -0.00382638 -0.0351449 5.2251e-11 2.51614e-11 -6.06476e-12 0 2.32815e-14
1496 16 0.001 0.00378082 -0.00316139 -0.03435 4.20852e-11 -9.45811e-12 -1.32504e-11 0 2.53895e-14
1497 16 0.001 0.00463197 -0.00361234 -0.034615 4.76753e-11 9.5618e-13 -1.29463e-11 0 2.47329e-14
1498 16 0.001 0.00556823 -0.00383869 -0.0348799 5.12833e-11 1.26179e-11 -1.01083e-11 0 2.40179e-14
1500 16 0.001 0.00746157 -0.00357616 -0.0354098 4.97159e-11 3.79866e-11 -2.66995e-12 0 2.25657e-14
1499 16 0.001 0.00653139 -0.00382638 -0.0351449 5.22451e-11 2.51618e-11 -6.0633e-12 0 2.32815e-14
1892 18 0.001 0.0237808 -0.00316139 -0.03435 4.21186e-11 -9.46025e-12 -1.32576e-11 0 2.53895e-14
1893 18 0.001 0.024632 -0.00361234 -0.034615 4.76627e-11 9.55051e-13 -1.29437e-11 0 2.47329e-14
1894 18 0.001 0.0255682 -0.00383869 -0.0348799 5.12599e-11 1.26206e-11 -1.01018e-11 0 2.40179e-14
1895 18 0.001 0.0265314 -0.00382638 -0.0351449 5.22644e-11 2.51634e-11 -6.06855e-12 0 2.32815e-14
1896 18 0.001 0.0274616 -0.00357616 -0.0354098 4.97164e-11 3.79854e-11 -2.67019e-12 0 2.25657e-14
327 11 0.001 -0.0569323 -0.0025139 -0.034085 3.49313e-11 -1.83419e-11 -1.07131e-11 0 2.5957e-14
703 12 0.001 -0.0369323 -0.0025139 -0.034085 3.49003e-11 -1.83567e-11 -1.0712e-11 0 2.5957e-14
1099 14 0.001 -0.0169323 -0.0025139 -0.034085 3.48846e-11 -1.83626e-11 -1.07091e-11 0 2.5957e-14
1495 16 0.001 0.0030677 -0.0025139 -0.034085 3.49031e-11 -1.83509e-11 -1.07106e-11 0 2.5957e-14