ITEM: TIMESTEP
8400000
ITEM: NUMBER OF ATOMS
1970
ITEM: BOX BOUNDS ff ff ff
-6.0000000000000005e-02 6.0000000000000005e-02
-6.0000000000000001e-03 6.0000000000000001e-03
-5.5000000000000000e-02 5.5000000000000000e-02
ITEM: ATOMS id type radius x y z fx fy fz c_bendingE c_stretchingE
384 11 0.001 -0.0508128 -0.00264049 -0.0489974 -2.65977e-13 9.09272e-14 -3.91656e-14 0 1.85382e-17
385 11 0.001 -0.0503155 -0.00183652 -0.0493205 -4.94786e-14 1.26793e-14 -2.36868e-15 0 9.88974e-15
760 12 0.001 -0.0308121 -0.00264042 -0.0489966 -1.6593e-13 4.17183e-14 -1.75376e-14 0 1.7997e-17
761 12 0.001 -0.0303151 -0.0018364 -0.0493199 -1.23172e-13 2.27924e-14 -5.39476e-15 0 9.77107e-15
1156 14 0.001 -0.0108121 -0.00264042 -0.0489966 -1.87514e-13 4.52114e-14 -1.48627e-14 0 1.7997e-17
1157 14 0.001 -0.0103151 -0.0018364 -0.0493199 -1.29305e-13 1.8979e-14 -4.0543e-15 0 9.77107e-15
1552 16 0.001 0.0091879 -0.00264042 -0.0489966 -1.86614e-13 4.47663e-14 -1.46054e-14 0 1.7997e-17
1553 16 0.001 0.00968494 -0.0018364 -0.0493199 -1.28316e-13 2.00231e-14 -4.63892e-15 0 9.77107e-15
1948 18 0.001 0.0291879 -0.00264042 -0.0489966 -1.70615e-13 3.91054e-14 -1.4932e-14 0 1.7997e-17
1949 18 0.001 0.0296849 -0.0018364 -0.0493199 -1.44442e-13 2.43215e-14 -4.15423e-15 0 9.77107e-15
2 2 0.001 -0.05 -4.31175e-17 -0.05 -2.32423e-06 2.47082e-06 1.89894e-06 0 8.9001e-15
386 11 0.001 -0.050039 -0.000937206 -0.0496563 -1.22376e-13 2.19708e-16 4.01959e-15 0 1.87863e-14
762 12 0.001 -0.0300387 -0.000937113 -0.049656 -7.82286e-14 -4.74572e-15 1.49516e-14 0 1.85327e-14
4 4 0.001 -0.03 -4.31175e-17 -0.05 -2.36375e-06 2.55918e-06 1.87995e-06 0 8.76723e-15
6 6 0.001 -0.01 -4.31175e-17 -0.05 -2.36375e-06 2.55918e-06 1.87995e-06 0 8.76723e-15
1158 14 0.001 -0.0100387 -0.000937113 -0.049656 -6.64448e-14 -2.89388e-15 1.37902e-14 0 1.85327e-14
8 8 0.001 0.01 -4.31175e-17 -0.05 -2.36375e-06 2.55918e-06 1.87995e-06 0 8.76723e-15
1554 16 0.001 0.00996127 -0.000937113 -0.049656 -6.69135e-14 -3.14447e-15 1.39655e-14 0 1.85327e-14
10 10 0.001 0.03 -4.31175e-17 -0.05 -2.36375e-06 2.55918e-06 1.87995e-06 0 8.76723e-15
1950 18 0.001 0.0299613 -0.000937113 -0.049656 -6.29326e-14 -4.48703e-15 1.39611e-14 0 1.85327e-14
379 11 0.001 -0.0551756 -0.00379428 -0.0476506 -3.18737e-13 2.94448e-13 -2.23162e-13 0 7.78288e-16
380 11 0.001 -0.0542316 -0.00402297 -0.0478844 -3.21978e-13 2.36674e-13 -1.91356e-13 0 6.75633e-16
381 11 0.001 -0.0532644 -0.0040126 -0.0481343 -2.96512e-13 1.96848e-13 -1.56894e-13 0 4.91002e-16
382 11 0.001 -0.0523345 -0.00376516 -0.0484028 -3.16579e-13 1.30516e-13 -1.01918e-13 0 2.7734e-16
383 11 0.001 -0.0515 -0.00329754 -0.0486907 -1.96314e-13 6.66191e-14 -6.49106e-14 0 1.00632e-16
755 12 0.001 -0.0351746 -0.00379501 -0.0476496 -3.0457e-13 2.88248e-13 -2.06422e-13 0 7.89198e-16
756 12 0.001 -0.0342306 -0.0040235 -0.0478834 -2.95216e-13 2.35266e-13 -1.84264e-13 0 6.79928e-16
757 12 0.001 -0.0332634 -0.00401295 -0.0481333 -3.01929e-13 1.85991e-13 -1.39334e-13 0 4.88646e-16
758 12 0.001 -0.0323336 -0.00376533 -0.0484018 -2.52293e-13 1.02235e-13 -9.22802e-14 0 2.70564e-16
759 12 0.001 -0.0314991 -0.00329757 -0.0486898 -2.62019e-13 1.15945e-13 -6.16794e-14 0 9.3952e-17
1151 14 0.001 -0.0151746 -0.00379501 -0.0476496 -2.95403e-13 2.8349e-13 -2.11592e-13 0 7.89198e-16
1152 14 0.001 -0.0142306 -0.0040235 -0.0478834 -3.00541e-13 2.30694e-13 -1.80013e-13 0 6.79928e-16
1153 14 0.001 -0.0132634 -0.00401295 -0.0481333 -2.92611e-13 1.8881e-13 -1.43366e-13 0 4.88646e-16
1154 14 0.001 -0.0123336 -0.00376533 -0.0484018 -2.94528e-13 1.03476e-13 -8.24949e-14 0 2.70564e-16
1155 14 0.001 -0.0114991 -0.00329757 -0.0486898 -2.11983e-13 1.14863e-13 -7.12698e-14 0 9.3952e-17
1547 16 0.001 0.00482539 -0.00379501 -0.0476496 -3.07969e-13 2.70224e-13 -2.09218e-13 0 7.89198e-16
1548 16 0.001 0.0057694 -0.0040235 -0.0478834 -2.88266e-13 2.37035e-13 -1.8277e-13 0 6.79928e-16
1549 16 0.001 0.00673658 -0.00401295 -0.0481333 -3.00856e-13 1.90437e-13 -1.41921e-13 0 4.88646e-16
1550 16 0.001 0.00766643 -0.00376533 -0.0484018 -2.84943e-13 1.03424e-13 -8.45061e-14 0 2.70564e-16
1551 16 0.001 0.00850086 -0.00329757 -0.0486898 -2.19433e-13 1.12472e-13 -6.95619e-14 0 9.3952e-17
1943 18 0.001 0.0248254 -0.00379501 -0.0476496 -3.10379e-13 2.80809e-13 -2.06203e-13 0 7.89198e-16
1944 18 0.001 0.0257694 -0.0040235 -0.0478834 -2.86401e-13 2.36371e-13 -1.85042e-13 0 6.79928e-16
1945 18 0.001 0.0267366 -0.00401295 -0.0481333 -2.86759e-13 1.8553e-13 -1.43885e-13 0 4.88646e-16
1946 18 0.001 0.0276664 -0.00376533 -0.0484018 -3.06935e-13 1.02092e-13 -7.92249e-14 0 2.70564e-16
1947 18 0.001 0.0285009 -0.00329757 -0.0486898 -2.12389e-13 1.19442e-13 -7.32316e-14 0 9.3952e-17
378 11 0.001 -0.0560372 -0.00333974 -0.0474291 -3.31059e-13 3.23651e-13 -2.32168e-13 0 7.74513e-16
754 12 0.001 -0.0360363 -0.00334064 -0.0474283 -2.95182e-13 3.22799e-13 -2.22789e-13 0 7.9032e-16
1150 14 0.001 -0.0160363 -0.00334064 -0.0474283 -2.90559e-13 3.22678e-13 -2.22547e-13 0 7.9032e-16
1546 16 0.001 0.00396365 -0.00334064 -0.0474283 -2.80035e-13 3.32182e-13 -2.23914e-13 0 7.9032e-16
1942 18 0.001 0.0239637 -0.00334064 -0.0474283 -2.91621e-13 3.20839e-13 -2.23945e-13 0 7.9032e-16
376 11 0.001 -0.0573066 -0.00187586 -0.0470051 -2.72534e-13 3.9851e-13 -2.03545e-13 0 5.08522e-16
377 11 0.001 -0.0567626 -0.00268689 -0.0472156 -1.64214e-13 3.96435e-13 -2.4769e-13 0 6.7296e-16
753 12 0.001 -0.0367619 -0.00268793 -0.0472149 -2.60085e-13 3.42655e-13 -2.29606e-13 0 6.9109e-16
752 12 0.001 -0.0373061 -0.001877 -0.0470046 -1.24881e-13 4.11139e-13 -2.0268e-13 0 5.26328e-16
1149 14 0.001 -0.0167619 -0.00268793 -0.0472149 -2.45363e-13 3.58928e-13 -2.28244e-13 0 6.9109e-16
1148 14 0.001 -0.0173061 -0.001877 -0.0470046 -1.84294e-13 3.93831e-13 -2.01718e-13 0 5.26328e-16
1544 16 0.001 0.00269387 -0.001877 -0.0470046 -2.0208e-13 3.99378e-13 -1.99468e-13 0 5.26328e-16
1545 16 0.001 0.00323807 -0.00268793 -0.0472149 -2.44582e-13 3.55243e-13 -2.28198e-13 0 6.9109e-16
1941 18 0.001 0.0232381 -0.00268793 -0.0472149 -2.40999e-13 3.63091e-13 -2.27912e-13 0 6.9109e-16
1940 18 0.001 0.0226939 -0.001877 -0.0470046 -1.86649e-13 3.92636e-13 -2.01694e-13 0 5.26328e-16
375 11 0.001 -0.0576355 -0.000956759 -0.0467928 -1.97215e-13 4.12422e-13 -1.77173e-13 0 3.27637e-16
751 12 0.001 -0.0376353 -0.000957947 -0.0467924 -2.44624e-13 3.73668e-13 -1.6891e-13 0 3.42965e-16
1147 14 0.001 -0.0176353 -0.000957947 -0.0467924 -1.73721e-13 3.80691e-13 -1.6946e-13 0 3.42965e-16
1543 16 0.001 0.00236472 -0.000957947 -0.0467924 -1.57044e-13 3.77672e-13 -1.7077e-13 0 3.42965e-16
1939 18 0.001 0.0223647 -0.000957947 -0.0467924 -1.76102e-13 3.79684e-13 -1.69785e-13 0 3.42965e-16
373 11 0.001 -0.0575827 0.000975033 -0.0463461 -9.33556e-14 3.6526e-13 -6.22684e-14 0 6.61859e-17
374 11 0.001 -0.0577293 1.35374e-05 -0.0465743 -2.17862e-14 4.21393e-13 -1.12093e-13 0 1.71928e-16
749 12 0.001 -0.037583 0.000973913 -0.046346 -9.79811e-14 3.68218e-13 -5.51478e-14 0 7.33004e-17
750 12 0.001 -0.0377293 1.23552e-05 -0.046574 -2.09234e-14 3.96205e-13 -1.10971e-13 0 1.8341e-16
1145 14 0.001 -0.017583 0.000973913 -0.046346 -5.73029e-14 3.62516e-13 -5.04308e-14 0 7.33004e-17
1146 14 0.001 -0.0177293 1.23552e-05 -0.046574 -7.76767e-14 4.04151e-13 -1.12119e-13 0 1.8341e-16
1541 16 0.001 0.002417 0.000973913 -0.046346 -4.84247e-14 3.57964e-13 -5.16292e-14 0 7.33004e-17
1542 16 0.001 0.00227068 1.23552e-05 -0.046574 -8.96303e-14 4.03068e-13 -1.12618e-13 0 1.8341e-16
1937 18 0.001 0.022417 0.000973913 -0.046346 -6.37926e-14 3.77899e-13 -4.60276e-14 0 7.33004e-17
1938 18 0.001 0.0222707 1.23552e-05 -0.046574 -6.87903e-14 4.03371e-13 -1.12467e-13 0 1.8341e-16
372 11 0.001 -0.0572056 0.00186839 -0.0461059 3.71146e-14 3.4084e-13 8.89682e-15 0 1.42651e-17
748 12 0.001 -0.0372061 0.00186739 -0.0461058 -1.4477e-14 3.22572e-13 -1.23858e-17 0 1.72458e-17
1144 14 0.001 -0.0172061 0.00186739 -0.0461058 -1.0943e-14 3.22115e-13 -5.79876e-16 0 1.72458e-17
1540 16 0.001 0.00279389 0.00186739 -0.0461058 2.27429e-15 3.35065e-13 6.24227e-15 0 1.72458e-17
1936 18 0.001 0.0227939 0.00186739 -0.0461058 4.0414e-15 3.04167e-13 -3.62135e-15 0 1.72458e-17
371 11 0.001 -0.0566221 0.00263864 -0.0458525 -1.20202e-14 3.00859e-13 5.94424e-14 0 3.00389e-18
747 12 0.001 -0.0366228 0.0026378 -0.0458525 9.79819e-14 2.72309e-13 7.96724e-14 0 2.65363e-18
1143 14 0.001 -0.0166228 0.0026378 -0.0458525 5.59322e-14 2.70805e-13 7.14716e-14 0 2.65363e-18
1539 16 0.001 0.00337723 0.0026378 -0.0458525 3.81032e-14 2.65259e-13 6.60353e-14 0 2.65363e-18
1935 18 0.001 0.0233772 0.0026378 -0.0458525 2.38965e-14 2.68433e-13 6.66179e-14 0 2.65363e-18
370 11 0.001 -0.055869 0.00323851 -0.045586 1.73345e-13 2.22861e-13 1.33091e-13 0 1.13147e-17
369 11 0.001 -0.0549937 0.00363136 -0.0453077 -1.21535e-14 1.58933e-13 1.10453e-13 0 2.01828e-17
368 11 0.001 -0.0540509 0.00379333 -0.0450196 2.24781e-13 7.88829e-14 1.82591e-13 0 1.96831e-17
367 11 0.001 -0.0530996 0.00371483 -0.0447247 5.9056e-14 1.50017e-14 1.19373e-13 0 1.08657e-17
745 12 0.001 -0.0349946 0.00363097 -0.0453076 8.33046e-14 1.50201e-13 1.37984e-13 0 1.67272e-17
746 12 0.001 -0.0358698 0.00323789 -0.045586 5.94865e-14 2.27873e-13 1.08807e-13 0 8.78191e-18
744 12 0.001 -0.0340519 0.00379321 -0.0450196 7.56834e-14 8.18189e-14 1.38154e-13 0 1.64559e-17
743 12 0.001 -0.0331006 0.00371497 -0.0447247 1.24281e-13 3.34782e-15 1.42864e-13 0 8.73279e-18
1142 14 0.001 -0.0158698 0.00323789 -0.045586 7.4439e-14 2.23598e-13 1.11983e-13 0 8.78191e-18
1140 14 0.001 -0.0140519 0.00379321 -0.0450196 1.07544e-13 7.33813e-14 1.51806e-13 0 1.64559e-17
1141 14 0.001 -0.0149946 0.00363097 -0.0453076 8.67127e-14 1.53045e-13 1.36609e-13 0 1.67272e-17
1139 14 0.001 -0.0131006 0.00371497 -0.0447247 9.26138e-14 1.55203e-14 1.29681e-13 0 8.73279e-18
1538 16 0.001 0.00413016 0.00323789 -0.045586 6.87929e-14 2.22868e-13 1.09927e-13 0 8.78191e-18
1537 16 0.001 0.00500539 0.00363097 -0.0453076 8.82966e-14 1.47283e-13 1.36741e-13 0 1.67272e-17
1536 16 0.001 0.00594811 0.00379321 -0.0450196 1.25591e-13 7.74354e-14 1.57267e-13 0 1.64559e-17
1535 16 0.001 0.00689938 0.00371497 -0.0447247 7.16896e-14 1.75577e-14 1.23265e-13 0 8.73279e-18
1933 18 0.001 0.0250054 0.00363097 -0.0453076 1.1207e-13 1.42533e-13 1.44887e-13 0 1.67272e-17
1934 18 0.001 0.0241302 0.00323789 -0.045586 7.37853e-14 2.30625e-13 1.09743e-13 0 8.78191e-18
1932 18 0.001 0.0259481 0.00379321 -0.0450196 1.34231e-13 9.0016e-14 1.59071e-13 0 1.64559e-17
1931 18 0.001 0.0268994 0.00371497 -0.0447247 1.78116e-14 1.18973e-14 1.0779e-13 0 8.73279e-18
361 11 0.001 -0.0501462 -0.000581153 -0.0429757 -1.81495e-13 -2.68704e-13 -1.72564e-13 0 1.4521e-16
737 12 0.001 -0.0301461 -0.000580159 -0.0429754 -6.82398e-14 -2.43267e-13 -1.78673e-13 0 1.49075e-16
1133 14 0.001 -0.0101461 -0.000580159 -0.0429754 -8.34972e-14 -2.46839e-13 -1.76483e-13 0 1.49075e-16
1529 16 0.001 0.00985389 -0.000580159 -0.0429754 -1.13474e-13 -2.44368e-13 -1.76275e-13 0 1.49075e-16
1925 18 0.001 0.0298539 -0.000580159 -0.0429754 -7.67098e-14 -2.4458e-13 -1.77256e-13 0 1.49075e-16
362 11 0.001 -0.0501199 0.000378104 -0.0432535 -3.85198e-14 -2.38596e-13 -1.39155e-13 0 1.0686e-16
363 11 0.001 -0.0503328 0.00131156 -0.0435387 4.69182e-14 -2.54315e-13 -5.18698e-14 0 6.29887e-17
738 12 0.001 -0.03012 0.000379099 -0.0432532 -4.66291e-14 -2.66493e-13 -1.14104e-13 0 1.10649e-16
739 12 0.001 -0.0303331 0.00131249 -0.0435385 -9.90122e-14 -1.83659e-13 -8.76358e-14 0 6.63402e-17
1134 14 0.001 -0.01012 0.000379099 -0.0432532 -8.17395e-14 -2.69595e-13 -1.17092e-13 0 1.10649e-16
1135 14 0.001 -0.0103331 0.00131249 -0.0435385 -1.60656e-14 -1.81644e-13 -7.71451e-14 0 6.63402e-17
1530 16 0.001 0.00987998 0.000379099 -0.0432532 -5.74952e-14 -2.66721e-13 -1.16666e-13 0 1.10649e-16
1531 16 0.001 0.00966687 0.00131249 -0.0435385 -3.74036e-14 -1.84839e-13 -7.88854e-14 0 6.63402e-17
1926 18 0.001 0.02988 0.000379099 -0.0432532 -8.5137e-14 -2.73601e-13 -1.16191e-13 0 1.10649e-16
1927 18 0.001 0.0296669 0.00131249 -0.0435385 -9.56007e-15 -1.78912e-13 -7.67251e-14 0 6.63402e-17
365 11 0.001 -0.0514065 0.00287198 -0.0441271 1.23025e-13 -1.11549e-13 5.74456e-14 0 5.6576e-18
364 11 0.001 -0.0507709 0.0021606 -0.0438305 -5.33286e-14 -1.80995e-13 -2.48623e-14 0 2.62726e-17
740 12 0.001 -0.0307715 0.0021614 -0.0438303 8.77917e-14 -1.78378e-13 -1.99729e-15 0 2.87098e-17
741 12 0.001 -0.0314073 0.0028726 -0.0441269 7.32422e-14 -1.45765e-13 6.67726e-14 0 6.72672e-18
1136 14 0.001 -0.0107715 0.0021614 -0.0438303 3.1533e-14 -1.85509e-13 -8.54958e-15 0 2.87098e-17
1137 14 0.001 -0.0114073 0.0028726 -0.0441269 6.21163e-14 -1.3167e-13 5.91841e-14 0 6.72672e-18
1533 16 0.001 0.00859268 0.0028726 -0.0441269 4.81237e-14 -1.29125e-13 5.55979e-14 0 6.72672e-18
1532 16 0.001 0.00922845 0.0021614 -0.0438303 4.86771e-14 -1.84151e-13 -5.97973e-15 0 2.87098e-17
1928 18 0.001 0.0292285 0.0021614 -0.0438303 1.30628e-14 -1.84422e-13 -1.26917e-14 0 2.87098e-17
1929 18 0.001 0.0285927 0.0028726 -0.0441269 7.20483e-14 -1.3143e-13 6.13386e-14 0 6.72672e-18
366 11 0.001 -0.0521994 0.00340111 -0.0444262 7.25756e-14 -7.02706e-14 9.8012e-14 0 2.63405e-18
742 12 0.001 -0.0322003 0.00340151 -0.044426 6.0123e-14 -5.11285e-14 8.85636e-14 0 2.06921e-18
1138 14 0.001 -0.0122003 0.00340151 -0.044426 8.1788e-14 -5.7849e-14 9.68936e-14 0 2.06921e-18
1534 16 0.001 0.00779971 0.00340151 -0.044426 9.84909e-14 -6.33556e-14 1.02267e-13 0 2.06921e-18
1930 18 0.001 0.0277997 0.00340151 -0.044426 1.26331e-13 -6.38734e-14 1.10464e-13 0 2.06921e-18
356 11 0.001 -0.0533297 -0.00380148 -0.0416817 -2.33506e-13 -9.27273e-14 -1.52993e-13 0 7.36667e-17
357 11 0.001 -0.0524035 -0.00352295 -0.0419322 -2.35673e-13 -1.72057e-13 -1.88973e-13 0 1.10809e-16
358 11 0.001 -0.0515755 -0.00302462 -0.0421852 -2.80554e-13 -2.05182e-13 -2.00121e-13 0 1.44935e-16
732 12 0.001 -0.0333287 -0.00380134 -0.0416814 -2.48348e-13 -1.08377e-13 -1.42616e-13 0 7.68736e-17
733 12 0.001 -0.0324026 -0.00352256 -0.0419319 -2.4766e-13 -1.56297e-13 -1.75488e-13 0 1.14196e-16
734 12 0.001 -0.0315747 -0.003024 -0.0421849 -2.52059e-13 -1.83088e-13 -2.05275e-13 0 1.48424e-16
1128 14 0.001 -0.0133287 -0.00380134 -0.0416814 -2.26089e-13 -1.06905e-13 -1.47632e-13 0 7.68736e-17
1129 14 0.001 -0.0124026 -0.00352256 -0.0419319 -2.57823e-13 -1.53238e-13 -1.73969e-13 0 1.14196e-16
1130 14 0.001 -0.0115747 -0.003024 -0.0421849 -2.32593e-13 -1.95129e-13 -2.05851e-13 0 1.48424e-16
1524 16 0.001 0.00667133 -0.00380134 -0.0416814 -2.36582e-13 -1.01428e-13 -1.45341e-13 0 7.68736e-17
1525 16 0.001 0.00759737 -0.00352256 -0.0419319 -2.61918e-13 -1.55521e-13 -1.72454e-13 0 1.14196e-16
1526 16 0.001 0.0084253 -0.003024 -0.0421849 -2.15491e-13 -1.89876e-13 -2.1082e-13 0 1.48424e-16
1920 18 0.001 0.0266713 -0.00380134 -0.0416814 -2.55726e-13 -1.06686e-13 -1.40512e-13 0 7.68736e-17
1921 18 0.001 0.0275974 -0.00352256 -0.0419319 -2.41874e-13 -1.56783e-13 -1.77513e-13 0 1.14196e-16
1922 18 0.001 0.0284253 -0.003024 -0.0421849 -2.41066e-13 -1.90738e-13 -2.043e-13 0 1.48424e-16
359 11 0.001 -0.0508971 -0.00233784 -0.0424425 -1.94661e-13 -2.26011e-13 -2.26048e-13 0 1.66134e-16
360 11 0.001 -0.0504107 -0.00150587 -0.0427056 -1.16599e-13 -2.69102e-13 -2.06835e-13 0 1.66812e-16
735 12 0.001 -0.0308965 -0.00233704 -0.0424421 -1.44957e-13 -2.43059e-13 -2.16257e-13 0 1.69735e-16
736 12 0.001 -0.0304103 -0.00150495 -0.0427053 -2.19633e-13 -2.45215e-13 -1.96279e-13 0 1.70562e-16
1131 14 0.001 -0.0108965 -0.00233704 -0.0424421 -1.89459e-13 -2.2695e-13 -2.14166e-13 0 1.69735e-16
1132 14 0.001 -0.0104103 -0.00150495 -0.0427053 -1.77776e-13 -2.53736e-13 -1.97905e-13 0 1.70562e-16
1527 16 0.001 0.00910347 -0.00233704 -0.0424421 -2.14689e-13 -2.30981e-13 -2.08921e-13 0 1.69735e-16
1528 16 0.001 0.00958969 -0.00150495 -0.0427053 -1.46229e-13 -2.55717e-13 -2.00536e-13 0 1.70562e-16
1923 18 0.001 0.0291035 -0.00233704 -0.0424421 -1.8149e-13 -2.31171e-13 -2.14739e-13 0 1.69735e-16
1924 18 0.001 0.0295897 -0.00150495 -0.0427053 -1.86627e-13 -2.51426e-13 -1.97596e-13 0 1.70562e-16
353 11 0.001 -0.05611 -0.00321796 -0.0409287 -1.18537e-13 5.38813e-14 -2.20311e-14 0 7.78656e-18
355 11 0.001 -0.0542961 -0.00384269 -0.041432 -3.05141e-13 -3.44212e-14 -8.50752e-14 0 4.19109e-17
354 11 0.001 -0.0552425 -0.00364402 -0.0411814 -2.40887e-13 -3.06603e-14 -4.86478e-14 0 1.99403e-17
729 12 0.001 -0.0361092 -0.00321858 -0.0409284 -1.53662e-13 -6.525e-15 -1.31683e-14 0 9.52094e-18
730 12 0.001 -0.0352416 -0.00364441 -0.0411811 -2.57784e-13 7.41449e-15 -3.71603e-14 0 2.22828e-17
731 12 0.001 -0.0342951 -0.00384281 -0.0414317 -2.3389e-13 -3.97832e-14 -9.44423e-14 0 4.47743e-17
1125 14 0.001 -0.0161092 -0.00321858 -0.0409284 -1.67491e-13 -3.3188e-15 -1.04392e-14 0 9.52093e-18
1126 14 0.001 -0.0152416 -0.00364441 -0.0411811 -2.4808e-13 1.50508e-14 -3.63075e-14 0 2.22828e-17
1127 14 0.001 -0.0142951 -0.00384281 -0.0414317 -2.40833e-13 -4.35758e-14 -9.48326e-14 0 4.47743e-17
1521 16 0.001 0.00389079 -0.00321858 -0.0409284 -1.5737e-13 1.35551e-14 -8.64461e-15 0 9.52093e-18
1523 16 0.001 0.00570493 -0.00384281 -0.0414317 -2.34728e-13 -5.28289e-14 -9.57192e-14 0 4.47743e-17
1522 16 0.001 0.00475844 -0.00364441 -0.0411811 -2.43905e-13 1.13862e-14 -3.93266e-14 0 2.22828e-17
1917 18 0.001 0.0238908 -0.00321858 -0.0409284 -1.61761e-13 5.80407e-15 -9.99776e-15 0 9.52093e-18
1918 18 0.001 0.0247584 -0.00364441 -0.0411811 -2.61136e-13 6.99816e-15 -3.43893e-14 0 2.22828e-17
1919 18 0.001 0.0257049 -0.00384281 -0.0414317 -2.09036e-13 -4.21813e-14 -1.02461e-13 0 4.47743e-17
351 11 0.001 -0.057401 -0.00180286 -0.0404139 -2.23636e-14 1.38393e-13 4.75656e-14 0 1.21479e-18
352 11 0.001 -0.0568447 -0.00259118 -0.040673 -2.11541e-13 8.80196e-14 3.36953e-14 0 2.63597e-18
727 12 0.001 -0.0374006 -0.00180384 -0.0404135 -1.04772e-13 1.30804e-13 6.36155e-14 0 2.24121e-18
728 12 0.001 -0.0368441 -0.002592 -0.0406726 -9.84069e-14 1.07635e-13 1.95342e-14 0 3.85789e-18
1123 14 0.001 -0.0174006 -0.00180384 -0.0404135 -7.19217e-14 1.37531e-13 6.06816e-14 0 2.24121e-18
1124 14 0.001 -0.0168441 -0.002592 -0.0406726 -1.20676e-13 9.98403e-14 2.15339e-14 0 3.85789e-18
1519 16 0.001 0.00259943 -0.00180384 -0.0404135 -9.14858e-14 1.2858e-13 5.88126e-14 0 2.24121e-18
1520 16 0.001 0.00315592 -0.002592 -0.0406726 -1.41023e-13 9.45581e-14 2.44031e-14 0 3.85789e-18
1915 18 0.001 0.0225994 -0.00180384 -0.0404135 -8.28372e-14 1.26014e-13 5.90391e-14 0 2.24121e-18
1916 18 0.001 0.0231559 -0.002592 -0.0406726 -1.27773e-13 1.06011e-13 2.41577e-14 0 3.85789e-18
350 11 0.001 -0.0577444 -0.000902199 -0.0401514 -1.28966e-13 1.38678e-13 4.94095e-14 0 1.80692e-18
726 12 0.001 -0.0377442 -0.00090328 -0.0401511 -8.08067e-14 1.04045e-13 4.30655e-14 0 3.13986e-18
1122 14 0.001 -0.0177442 -0.00090328 -0.0401511 -9.22612e-14 9.61539e-14 4.27688e-14 0 3.13986e-18
1518 16 0.001 0.00225577 -0.00090328 -0.0401511 -2.36004e-14 1.05044e-13 4.20823e-14 0 3.13986e-18
1914 18 0.001 0.0222558 -0.00090328 -0.0401511 -7.28775e-14 1.03649e-13 4.27462e-14 0 3.13986e-18
348 11 0.001 -0.0577225 0.00100809 -0.039618 1.07692e-14 1.78921e-13 2.26329e-14 0 1.31834e-17
349 11 0.001 -0.0578538 5.46554e-05 -0.0398859 1.44467e-13 1.13881e-13 2.19271e-14 0 5.03123e-18
724 12 0.001 -0.0377228 0.00100701 -0.0396177 1.94036e-14 1.39771e-13 1.28254e-14 0 1.68315e-17
725 12 0.001 -0.0378539 5.35422e-05 -0.0398856 1.09885e-13 1.4749e-13 3.53994e-14 0 7.25561e-18
1120 14 0.001 -0.0177228 0.00100701 -0.0396177 4.9376e-14 1.30879e-13 1.39978e-14 0 1.68315e-17
1121 14 0.001 -0.0178539 5.35422e-05 -0.0398856 1.01821e-13 1.55516e-13 3.62689e-14 0 7.25561e-18
1516 16 0.001 0.00227716 0.00100701 -0.0396177 9.31326e-14 1.29165e-13 1.54804e-14 0 1.68315e-17
1517 16 0.001 0.00214613 5.35422e-05 -0.0398856 3.12109e-14 1.51136e-13 3.56015e-14 0 7.25561e-18
1912 18 0.001 0.0222772 0.00100701 -0.0396177 4.80015e-14 1.25964e-13 1.22294e-14 0 1.68315e-17
1913 18 0.001 0.0221461 5.35422e-05 -0.0398856 9.65136e-14 1.52976e-13 3.68506e-14 0 7.25561e-18
347 11 0.001 -0.0573588 0.0018987 -0.0393487 2.26423e-13 1.26919e-13 -2.77877e-14 0 2.86153e-17
346 11 0.001 -0.0567855 0.00267099 -0.0390786 1.35116e-13 1.24457e-13 -6.27306e-14 0 5.20101e-17
722 12 0.001 -0.0367864 0.00267018 -0.0390782 1.33582e-13 1.02917e-13 -7.04691e-14 0 5.93146e-17
723 12 0.001 -0.0373594 0.00189773 -0.0393483 2.22023e-13 1.30057e-13 -1.45192e-14 0 3.40419e-17
1118 14 0.001 -0.0167864 0.00267018 -0.0390782 1.77465e-13 9.08791e-14 -6.54725e-14 0 5.93146e-17
1119 14 0.001 -0.0173594 0.00189773 -0.0393483 1.68925e-13 1.36286e-13 -2.08105e-14 0 3.40419e-17
1515 16 0.001 0.00264058 0.00189773 -0.0393483 1.49617e-13 1.40288e-13 -2.16296e-14 0 3.40419e-17
1514 16 0.001 0.00321363 0.00267018 -0.0390782 1.87233e-13 9.01107e-14 -6.40629e-14 0 5.93146e-17
1910 18 0.001 0.0232136 0.00267018 -0.0390782 1.87822e-13 8.83698e-14 -6.41819e-14 0 5.93146e-17
1911 18 0.001 0.0226406 0.00189773 -0.0393483 1.64935e-13 1.419e-13 -1.98071e-14 0 3.40419e-17
345 11 0.001 -0.0560384 0.00327677 -0.0388086 2.76179e-13 5.5535e-14 -1.02421e-13 0 8.13821e-17
344 11 0.001 -0.0551641 0.00367819 -0.0385394 2.57491e-13 2.4909e-14 -1.30314e-13 0 1.12254e-16
721 12 0.001 -0.0360394 0.00327617 -0.0388083 2.64988e-13 7.54156e-14 -8.93525e-14 0 9.0399e-17
720 12 0.001 -0.0351653 0.00367785 -0.038539 2.68135e-13 1.47646e-14 -1.2699e-13 0 1.22605e-16
1117 14 0.001 -0.0160394 0.00327617 -0.0388083 2.64444e-13 8.71401e-14 -8.59728e-14 0 9.0399e-17
1116 14 0.001 -0.0151653 0.00367785 -0.038539 2.43279e-13 1.59046e-14 -1.34253e-13 0 1.22605e-16
1513 16 0.001 0.00396056 0.00327617 -0.0388083 2.5863e-13 8.74949e-14 -8.7207e-14 0 9.0399e-17
1512 16 0.001 0.00483474 0.00367785 -0.038539 2.35572e-13 1.55042e-14 -1.36401e-13 0 1.22605e-16
1909 18 0.001 0.0239606 0.00327617 -0.0388083 2.446e-13 8.78822e-14 -9.03846e-14 0 9.0399e-17
1908 18 0.001 0.0248347 0.00367785 -0.038539 2.52033e-13 1.1018e-14 -1.32735e-13 0 1.22605e-16
338 11 0.001 -0.0504172 0.00140212 -0.0369503 1.4125e-13 -1.73064e-13 -7.44765e-14 0 1.13544e-16
714 12 0.001 -0.0304176 0.00140316 -0.03695 1.57451e-13 -1.77448e-13 -6.84684e-14 0 1.22826e-16
1110 14 0.001 -0.0104176 0.00140316 -0.03695 1.50399e-13 -1.74469e-13 -6.91911e-14 0 1.22826e-16
1506 16 0.001 0.00958237 0.00140316 -0.03695 1.49686e-13 -1.7833e-13 -6.91325e-14 0 1.22826e-16
1902 18 0.001 0.0295824 0.00140316 -0.03695 1.63962e-13 -1.69659e-13 -6.92674e-14 0 1.22826e-16
340 11 0.001 -0.0515331 0.00295546 -0.0374757 2.18997e-13 -1.29766e-13 -1.36445e-13 0 1.53699e-16
339 11 0.001 -0.0508774 0.00224906 -0.0372128 2.03648e-13 -1.81413e-13 -9.96881e-14 0 1.36409e-16
716 12 0.001 -0.031534 0.00295617 -0.0374755 2.03724e-13 -1.48675e-13 -1.28459e-13 0 1.64569e-16
715 12 0.001 -0.0308781 0.00224997 -0.0372125 1.89355e-13 -1.44688e-13 -1.0218e-13 0 1.46549e-16
1111 14 0.001 -0.0108781 0.00224997 -0.0372125 1.68597e-13 -1.45904e-13 -1.05751e-13 0 1.46549e-16
1112 14 0.001 -0.011534 0.00295617 -0.0374755 2.52011e-13 -1.57557e-13 -1.1768e-13 0 1.64569e-16
1508 16 0.001 0.00846603 0.00295617 -0.0374755 2.51297e-13 -1.51405e-13 -1.18837e-13 0 1.64569e-16
1507 16 0.001 0.00912188 0.00224997 -0.0372125 1.66198e-13 -1.45708e-13 -1.05901e-13 0 1.46549e-16
1904 18 0.001 0.028466 0.00295617 -0.0374755 2.80863e-13 -1.40294e-13 -1.14233e-13 0 1.64569e-16
1903 18 0.001 0.0291219 0.00224997 -0.0372125 1.53943e-13 -1.57018e-13 -1.06266e-13 0 1.46549e-16
343 11 0.001 -0.0542172 0.00385013 -0.0382714 3.03985e-13 -7.93343e-16 -1.43134e-13 0 1.38917e-16
342 11 0.001 -0.0532569 0.00378174 -0.0380048 2.73716e-13 -6.10212e-14 -1.61059e-13 0 1.56224e-16
341 11 0.001 -0.0523431 0.0034772 -0.0377396 2.77606e-13 -1.15345e-13 -1.43853e-13 0 1.61175e-16
719 12 0.001 -0.0342184 0.00385005 -0.038271 2.3632e-13 -1.09726e-14 -1.55933e-13 0 1.50104e-16
718 12 0.001 -0.033258 0.00378195 -0.0380045 2.91038e-13 -5.30998e-14 -1.46425e-13 0 1.67728e-16
717 12 0.001 -0.0323442 0.00347767 -0.0377393 2.83991e-13 -1.10152e-13 -1.41309e-13 0 1.72539e-16
1115 14 0.001 -0.0142184 0.00385005 -0.038271 2.70985e-13 -1.01075e-14 -1.46376e-13 0 1.50104e-16
1113 14 0.001 -0.0123442 0.00347767 -0.0377393 2.41416e-13 -9.1186e-14 -1.52342e-13 0 1.72539e-16
1114 14 0.001 -0.013258 0.00378195 -0.0380045 2.82099e-13 -6.68731e-14 -1.49022e-13 0 1.67728e-16
1511 16 0.001 0.0057816 0.00385005 -0.038271 2.81375e-13 -1.30764e-14 -1.44158e-13 0 1.50104e-16
1510 16 0.001 0.00674197 0.00378195 -0.0380045 2.77722e-13 -6.22337e-14 -1.49742e-13 0 1.67728e-16
1509 16 0.001 0.00765583 0.00347767 -0.0377393 2.46459e-13 -9.85756e-14 -1.50675e-13 0 1.72539e-16
1907 18 0.001 0.0257816 0.00385005 -0.038271 2.69395e-13 -4.57512e-15 -1.46173e-13 0 1.50104e-16
1906 18 0.001 0.026742 0.00378195 -0.0380045 3.10078e-13 -6.37595e-14 -1.42711e-13 0 1.67728e-16
1905 18 0.001 0.0276558 0.00347767 -0.0377393 2.0195e-13 -1.06548e-13 -1.59569e-13 0 1.72539e-16
333 11 0.001 -0.0515504 -0.00297496 -0.0356331 -1.1181e-13 -6.79235e-14 1.68233e-14 0 3.27693e-17
334 11 0.001 -0.0508907 -0.00227301 -0.0358979 -3.55834e-14 -1.42926e-13 3.24949e-14 0 3.95255e-17
709 12 0.001 -0.0315495 -0.00297425 -0.0356328 -1.10409e-13 -9.68979e-14 3.46991e-14 0 3.87335e-17
710 12 0.001 -0.03089 -0.0022721 -0.0358976 -3.7997e-14 -1.2502e-13 2.4346e-14 0 4.57745e-17
1105 14 0.001 -0.0115495 -0.00297425 -0.0356328 -1.08246e-13 -9.15612e-14 3.32373e-14 0 3.87335e-17
1106 14 0.001 -0.01089 -0.0022721 -0.0358976 -3.5571e-14 -1.26646e-13 2.46818e-14 0 4.57745e-17
1501 16 0.001 0.00845054 -0.00297425 -0.0356328 -1.13592e-13 -9.69414e-14 3.51097e-14 0 3.87335e-17
1502 16 0.001 0.00910996 -0.0022721 -0.0358976 -3.37472e-14 -1.24257e-13 2.39373e-14 0 4.57745e-17
1897 18 0.001 0.0284505 -0.00297425 -0.0356328 -7.48434e-14 -1.0276e-13 2.89293e-14 0 3.87335e-17
1898 18 0.001 0.02911 -0.0022721 -0.0358976 -8.5382e-14 -1.20874e-13 3.12987e-14 0 4.57745e-17
335 11 0.001 -0.0504256 -0.00142924 -0.036162 -4.13992e-14 -1.48618e-13 9.16992e-15 0 5.12138e-17
336 11 0.001 -0.050184 -0.000496321 -0.0364253 7.32413e-14 -1.71561e-13 -1.2375e-14 0 6.81182e-17
711 12 0.001 -0.0304251 -0.0014282 -0.0361617 -2.40187e-14 -1.50307e-13 1.50584e-14 0 5.80085e-17
712 12 0.001 -0.0301839 -0.000495204 -0.036425 6.31072e-14 -1.55609e-13 -8.98357e-15 0 7.56506e-17
1107 14 0.001 -0.0104251 -0.0014282 -0.0361617 -2.84235e-14 -1.50927e-13 1.60189e-14 0 5.80085e-17
1108 14 0.001 -0.0101839 -0.000495204 -0.036425 5.15881e-14 -1.57871e-13 -8.60263e-15 0 7.56506e-17
1503 16 0.001 0.00957485 -0.0014282 -0.0361617 -3.33152e-14 -1.52234e-13 1.69956e-14 0 5.80085e-17
1504 16 0.001 0.00981614 -0.000495204 -0.036425 5.72825e-14 -1.61637e-13 -8.67372e-15 0 7.56506e-17
1899 18 0.001 0.0295749 -0.0014282 -0.0361617 6.76291e-15 -1.50014e-13 1.13134e-14 0 5.80085e-17
1900 18 0.001 0.0298161 -0.000495204 -0.036425 5.03145e-14 -1.59513e-13 -6.9116e-15 0 7.56506e-17
337 11 0.001 -0.0501812 0.000467531 -0.0366879 8.60887e-14 -2.1156e-13 -2.66137e-14 0 8.95891e-17
713 12 0.001 -0.0301813 0.000468646 -0.0366877 6.40979e-14 -2.02652e-13 -2.71345e-14 0 9.79758e-17
1109 14 0.001 -0.0101813 0.000468646 -0.0366877 8.36671e-14 -2.03979e-13 -2.62298e-14 0 9.79758e-17
1505 16 0.001 0.00981871 0.000468646 -0.0366877 8.24955e-14 -1.98351e-13 -2.63609e-14 0 9.79758e-17
1901 18 0.001 0.0298187 0.000468646 -0.0366877 6.45642e-14 -2.03934e-13 -2.70147e-14 0 9.79758e-17
328 11 0.001 -0.0560581 -0.00326678 -0.0343016 -7.67327e-14 1.33391e-13 -1.05757e-13 0 5.60372e-17
329 11 0.001 -0.0551857 -0.003674 -0.034568 -2.6552e-13 1.29206e-13 -2.94275e-14 0 4.49319e-17
330 11 0.001 -0.0542395 -0.00385207 -0.0348347 -7.36797e-14 4.96241e-14 -5.07214e-14 0 3.66747e-17
331 11 0.001 -0.0532787 -0.00378989 -0.0351012 -1.57413e-13 1.29758e-14 -1.29185e-14 0 3.17333e-17
332 11 0.001 -0.0523633 -0.00349131 -0.0353675 -1.67083e-13 -8.6527e-14 3.7126e-14 0 3.03382e-17
704 12 0.001 -0.0360571 -0.00326748 -0.0343012 -1.54484e-13 1.14073e-13 -8.68653e-14 0 6.50103e-17
705 12 0.001 -0.0351845 -0.00367442 -0.0345677 -2.01815e-13 1.37121e-13 -4.13733e-14 0 5.28513e-17
706 12 0.001 -0.0342383 -0.0038522 -0.0348343 -1.02182e-13 3.63093e-14 -4.30188e-14 0 4.36875e-17
707 12 0.001 -0.0332775 -0.00378972 -0.0351009 -1.27721e-13 1.00059e-14 -1.021e-14 0 3.80818e-17
708 12 0.001 -0.0323622 -0.00349086 -0.0353671 -1.64846e-13 -4.36391e-14 2.44672e-14 0 3.63295e-17
1100 14 0.001 -0.0160571 -0.00326748 -0.0343012 -1.61604e-13 1.19676e-13 -8.47509e-14 0 6.50103e-17
1101 14 0.001 -0.0151845 -0.00367442 -0.0345677 -1.84876e-13 1.2731e-13 -4.59233e-14 0 5.28513e-17
1102 14 0.001 -0.0142383 -0.0038522 -0.0348343 -1.149e-13 4.97714e-14 -3.92114e-14 0 4.36875e-17
1104 14 0.001 -0.0123622 -0.00349086 -0.0353671 -1.38369e-13 -4.01546e-14 1.75903e-14 0 3.63295e-17
1103 14 0.001 -0.0132775 -0.00378972 -0.0351009 -1.50365e-13 -3.33723e-16 -4.24948e-15 0 3.80818e-17
1496 16 0.001 0.00394291 -0.00326748 -0.0343012 -1.21219e-13 1.27035e-13 -9.24266e-14 0 6.50103e-17
1497 16 0.001 0.0048155 -0.00367442 -0.0345677 -1.99004e-13 1.19139e-13 -4.36372e-14 0 5.28513e-17
1498 16 0.001 0.0057617 -0.0038522 -0.0348343 -1.19925e-13 5.06668e-14 -3.74435e-14 0 4.36875e-17
1499 16 0.001 0.00672246 -0.00378972 -0.0351009 -1.55391e-13 2.81178e-16 -2.95272e-15 0 3.80818e-17
1500 16 0.001 0.00763779 -0.00349086 -0.0353671 -1.25058e-13 -3.39933e-14 1.35746e-14 0 3.63295e-17
1892 18 0.001 0.0239429 -0.00326748 -0.0343012 -1.30851e-13 1.27531e-13 -9.03469e-14 0 6.50103e-17
1893 18 0.001 0.0248155 -0.00367442 -0.0345677 -2.03884e-13 1.22816e-13 -4.21574e-14 0 5.28513e-17
1894 18 0.001 0.0257617 -0.0038522 -0.0348343 -1.10274e-13 5.13029e-14 -4.04287e-14 0 4.36875e-17
1895 18 0.001 0.0267225 -0.00378972 -0.0351009 -1.42047e-13 -4.24056e-15 -6.1324e-15 0 3.80818e-17
1896 18 0.001 0.0276378 -0.00349086 -0.0353671 -1.55392e-13 -3.14969e-14 2.04149e-14 0 3.63295e-17
327 11 0.001 -0.0568024 -0.00265583 -0.0340355 -2.03775e-13 1.85642e-13 -9.04817e-14 0 6.90776e-17
703 12 0.001 -0.0368016 -0.00265676 -0.0340351 -7.87812e-14 2.133e-13 -1.04606e-13 0 7.91422e-17
1099 14 0.001 -0.0168016 -0.00265676 -0.0340351 -8.93366e-14 1.92148e-13 -1.06407e-13 0 7.91422e-17