ITEM: TIMESTEP
7700000
ITEM: NUMBER OF ATOMS
1970
ITEM: BOX BOUNDS ff ff ff
-6.0000000000000005e-02 6.0000000000000005e-02
-6.0000000000000001e-03 6.0000000000000001e-03
-5.5000000000000000e-02 5.5000000000000000e-02
ITEM: ATOMS id type radius x y z fx fy fz c_bendingE c_stretchingE
384 11 0.001 -0.050816 -0.00263869 -0.0489952 -2.49632e-13 5.58032e-14 -7.86347e-14 0 2.05375e-17
385 11 0.001 -0.0503177 -0.00183546 -0.0493186 -1.92765e-13 2.02684e-14 -2.82189e-14 0 9.68568e-15
760 12 0.001 -0.0308155 -0.00263864 -0.0489947 -2.45565e-13 7.89848e-14 -7.17419e-14 0 2.04814e-17
761 12 0.001 -0.0303174 -0.00183538 -0.0493183 -1.51825e-13 2.99852e-16 -1.3348e-14 0 9.58365e-15
1156 14 0.001 -0.0108155 -0.00263864 -0.0489947 -2.40362e-13 8.07676e-14 -7.33369e-14 0 2.04814e-17
1157 14 0.001 -0.0103174 -0.00183538 -0.0493183 -1.61069e-13 5.43287e-15 -1.4076e-14 0 9.58365e-15
1552 16 0.001 0.0091845 -0.00263864 -0.0489947 -2.2719e-13 8.21272e-14 -7.54064e-14 0 2.04814e-17
1553 16 0.001 0.00968259 -0.00183538 -0.0493183 -1.70904e-13 4.93369e-15 -1.26728e-14 0 9.58365e-15
1948 18 0.001 0.0291845 -0.00263864 -0.0489947 -2.40947e-13 7.24918e-14 -7.04106e-14 0 2.04814e-17
1949 18 0.001 0.0296826 -0.00183538 -0.0493183 -1.74476e-13 9.56961e-15 -1.40251e-14 0 9.58365e-15
2 2 0.001 -0.05 -4.31175e-17 -0.05 -2.53174e-06 2.70533e-06 1.95747e-06 0 8.62005e-15
386 11 0.001 -0.0500401 -0.000936757 -0.0496552 -8.8908e-14 5.34126e-15 -1.53013e-14 0 1.82998e-14
762 12 0.001 -0.0300399 -0.000936694 -0.049655 -1.06041e-13 -2.14369e-15 -1.45848e-15 0 1.80821e-14
4 4 0.001 -0.03 -4.31175e-17 -0.05 -2.564e-06 2.78123e-06 1.93928e-06 0 8.50665e-15
6 6 0.001 -0.01 -4.31175e-17 -0.05 -2.564e-06 2.78123e-06 1.93928e-06 0 8.50665e-15
1158 14 0.001 -0.0100399 -0.000936694 -0.049655 -9.41707e-14 -1.56239e-14 2.3156e-15 0 1.80821e-14
8 8 0.001 0.01 -4.31175e-17 -0.05 -2.564e-06 2.78123e-06 1.93928e-06 0 8.50665e-15
1554 16 0.001 0.00996007 -0.000936694 -0.049655 -9.34959e-14 -1.36074e-14 1.32866e-15 0 1.80821e-14
10 10 0.001 0.03 -4.31175e-17 -0.05 -2.564e-06 2.78123e-06 1.93928e-06 0 8.50665e-15
1950 18 0.001 0.0299601 -0.000936694 -0.049655 -8.47419e-14 -1.23168e-14 4.37105e-16 0 1.80821e-14
379 11 0.001 -0.055181 -0.00378756 -0.0476514 -4.26096e-13 3.74739e-13 -3.11598e-13 0 8.77805e-16
380 11 0.001 -0.0542371 -0.00401727 -0.0478844 -4.1605e-13 2.92836e-13 -2.83475e-13 0 7.61237e-16
381 11 0.001 -0.0532696 -0.00400796 -0.0481334 -4.16025e-13 2.45306e-13 -2.38895e-13 0 5.50722e-16
382 11 0.001 -0.0523393 -0.00376154 -0.0484012 -3.88888e-13 1.42691e-13 -1.73703e-13 0 3.07323e-16
383 11 0.001 -0.051504 -0.00329488 -0.0486886 -3.18512e-13 1.16291e-13 -1.31474e-13 0 1.08004e-16
755 12 0.001 -0.0351804 -0.00378804 -0.0476508 -3.42756e-13 3.625e-13 -3.04002e-13 0 8.86496e-16
756 12 0.001 -0.0342364 -0.00401762 -0.0478837 -4.28927e-13 2.83362e-13 -2.50103e-13 0 7.63894e-16
757 12 0.001 -0.033269 -0.00400819 -0.0481327 -3.65115e-13 2.20195e-13 -2.16869e-13 0 5.47503e-16
758 12 0.001 -0.0323386 -0.00376165 -0.0484005 -3.72032e-13 1.60707e-13 -1.58426e-13 0 3.00446e-16
759 12 0.001 -0.0315035 -0.0032949 -0.048688 -2.95233e-13 9.46392e-14 -1.02023e-13 0 1.01735e-16
1151 14 0.001 -0.0151804 -0.00378804 -0.0476508 -3.34787e-13 3.57899e-13 -3.0527e-13 0 8.86496e-16
1152 14 0.001 -0.0142364 -0.00401762 -0.0478837 -4.52025e-13 2.79058e-13 -2.44501e-13 0 7.63894e-16
1153 14 0.001 -0.013269 -0.00400819 -0.0481327 -3.58532e-13 2.31568e-13 -2.19652e-13 0 5.47503e-16
1154 14 0.001 -0.0123386 -0.00376165 -0.0484005 -3.51253e-13 1.56265e-13 -1.62456e-13 0 3.00446e-16
1155 14 0.001 -0.0115035 -0.0032949 -0.048688 -3.13051e-13 9.25971e-14 -9.77285e-14 0 1.01735e-16
1547 16 0.001 0.00481965 -0.00378804 -0.0476508 -3.80498e-13 3.53717e-13 -2.93188e-13 0 8.86496e-16
1548 16 0.001 0.00576361 -0.00401762 -0.0478837 -4.03188e-13 2.80344e-13 -2.58595e-13 0 7.63894e-16
1549 16 0.001 0.00673103 -0.00400819 -0.0481327 -3.91109e-13 2.26514e-13 -2.09723e-13 0 5.47503e-16
1550 16 0.001 0.00766137 -0.00376165 -0.0484005 -3.47516e-13 1.58244e-13 -1.64123e-13 0 3.00446e-16
1551 16 0.001 0.00849653 -0.0032949 -0.048688 -3.14345e-13 9.26289e-14 -9.77223e-14 0 1.01735e-16
1943 18 0.001 0.0248196 -0.00378804 -0.0476508 -3.94662e-13 3.4565e-13 -2.91649e-13 0 8.86496e-16
1944 18 0.001 0.0257636 -0.00401762 -0.0478837 -4.00383e-13 2.8573e-13 -2.58284e-13 0 7.63894e-16
1945 18 0.001 0.026731 -0.00400819 -0.0481327 -3.74118e-13 2.23486e-13 -2.13969e-13 0 5.47503e-16
1946 18 0.001 0.0276614 -0.00376165 -0.0484005 -3.72586e-13 1.61922e-13 -1.59133e-13 0 3.00446e-16
1947 18 0.001 0.0284965 -0.0032949 -0.048688 -2.90793e-13 9.47853e-14 -1.0291e-13 0 1.01735e-16
378 11 0.001 -0.0560423 -0.00333209 -0.0474308 -3.55756e-13 4.31967e-13 -3.32583e-13 0 8.72928e-16
754 12 0.001 -0.0360418 -0.00333269 -0.0474302 -4.10805e-13 4.03131e-13 -2.93077e-13 0 8.86252e-16
1150 14 0.001 -0.0160418 -0.00333269 -0.0474302 -4.02406e-13 4.00747e-13 -2.96291e-13 0 8.86252e-16
1546 16 0.001 0.00395825 -0.00333269 -0.0474302 -3.56322e-13 4.07933e-13 -3.07018e-13 0 8.86252e-16
1942 18 0.001 0.0239582 -0.00333269 -0.0474302 -3.3626e-13 4.1724e-13 -3.08415e-13 0 8.86252e-16
376 11 0.001 -0.0573104 -0.0018669 -0.0470075 -2.15496e-13 5.13173e-13 -2.8558e-13 0 5.71608e-16
377 11 0.001 -0.0567672 -0.00267847 -0.0472178 -3.71674e-13 4.86166e-13 -3.07239e-13 0 7.57383e-16
753 12 0.001 -0.0367667 -0.00267916 -0.0472173 -3.03721e-13 4.60975e-13 -3.01767e-13 0 7.73101e-16
752 12 0.001 -0.0373101 -0.00186765 -0.0470071 -2.18739e-13 4.90948e-13 -2.65397e-13 0 5.87347e-16
1149 14 0.001 -0.0167667 -0.00267916 -0.0472173 -2.84085e-13 4.68725e-13 -3.01319e-13 0 7.73101e-16
1148 14 0.001 -0.0173101 -0.00186765 -0.0470071 -2.74549e-13 4.81196e-13 -2.63023e-13 0 5.87347e-16
1544 16 0.001 0.00268986 -0.00186765 -0.0470071 -2.50383e-13 4.83494e-13 -2.66204e-13 0 5.87347e-16
1545 16 0.001 0.00323326 -0.00267916 -0.0472173 -3.21078e-13 4.66823e-13 -2.93203e-13 0 7.73101e-16
1941 18 0.001 0.0232333 -0.00267916 -0.0472173 -3.51299e-13 4.59946e-13 -2.90865e-13 0 7.73101e-16
1940 18 0.001 0.0226899 -0.00186765 -0.0470071 -2.25176e-13 4.87851e-13 -2.67811e-13 0 5.87347e-16
375 11 0.001 -0.0576385 -0.000947522 -0.046795 -2.19874e-13 5.37501e-13 -2.1587e-13 0 3.68405e-16
751 12 0.001 -0.0376383 -0.000948309 -0.0467947 -2.08025e-13 4.94352e-13 -2.09852e-13 0 3.82169e-16
1147 14 0.001 -0.0176383 -0.000948309 -0.0467947 -1.67846e-13 5.06777e-13 -2.09641e-13 0 3.82169e-16
1543 16 0.001 0.00236165 -0.000948309 -0.0467947 -1.94031e-13 5.02561e-13 -2.09746e-13 0 3.82169e-16
1939 18 0.001 0.0223617 -0.000948309 -0.0467947 -2.00295e-13 5.01505e-13 -2.09085e-13 0 3.82169e-16
373 11 0.001 -0.0575839 0.000983902 -0.046347 -3.2054e-14 4.85503e-13 -6.8248e-14 0 7.60699e-17
374 11 0.001 -0.0577314 2.27429e-05 -0.046576 -1.42272e-13 5.25186e-13 -1.53519e-13 0 1.94248e-16
749 12 0.001 -0.0375841 0.00098316 -0.0463468 -4.28104e-14 5.08713e-13 -5.34982e-14 0 8.26844e-17
750 12 0.001 -0.0377314 2.19602e-05 -0.0465758 -1.21134e-13 4.79571e-13 -1.47091e-13 0 2.04716e-16
1145 14 0.001 -0.0175841 0.00098316 -0.0463468 -4.76778e-14 4.93798e-13 -5.86019e-14 0 8.26844e-17
1146 14 0.001 -0.0177314 2.19602e-05 -0.0465758 -1.28715e-13 4.74271e-13 -1.47069e-13 0 2.04716e-16
1541 16 0.001 0.00241591 0.00098316 -0.0463468 -2.90046e-14 4.89739e-13 -5.75517e-14 0 8.26844e-17
1542 16 0.001 0.00226862 2.19602e-05 -0.0465758 -1.14265e-13 4.78468e-13 -1.46093e-13 0 2.04716e-16
1937 18 0.001 0.0224159 0.00098316 -0.0463468 -4.59567e-14 4.93832e-13 -5.64495e-14 0 8.26844e-17
1938 18 0.001 0.0222686 2.19602e-05 -0.0465758 -1.09256e-13 4.75082e-13 -1.47006e-13 0 2.04716e-16
372 11 0.001 -0.057206 0.00187664 -0.0461057 8.36009e-14 4.29002e-13 1.88854e-14 0 1.72824e-17
748 12 0.001 -0.0372063 0.00187598 -0.0461056 3.37496e-14 3.4881e-13 2.79156e-15 0 2.01934e-17
1144 14 0.001 -0.0172063 0.00187598 -0.0461056 3.75804e-14 3.84506e-13 1.21954e-14 0 2.01934e-17
1540 16 0.001 0.00279368 0.00187598 -0.0461056 -1.92668e-15 3.83602e-13 7.03768e-15 0 2.01934e-17
1936 18 0.001 0.0227937 0.00187598 -0.0461056 2.69769e-15 3.84121e-13 3.33486e-15 0 2.01934e-17
371 11 0.001 -0.0566218 0.00264602 -0.0458511 6.41958e-16 3.81104e-13 6.86708e-14 0 2.78765e-18
747 12 0.001 -0.0366223 0.00264547 -0.0458511 1.87517e-14 3.8164e-13 7.73686e-14 0 2.70008e-18
1143 14 0.001 -0.0166223 0.00264547 -0.0458511 5.14151e-14 3.60725e-13 8.0426e-14 0 2.70008e-18
1539 16 0.001 0.00337773 0.00264547 -0.0458511 8.40641e-14 3.63977e-13 8.63048e-14 0 2.70008e-18
1935 18 0.001 0.0233777 0.00264547 -0.0458511 1.17868e-13 3.58255e-13 9.73197e-14 0 2.70008e-18
370 11 0.001 -0.0558683 0.00324483 -0.0455835 1.83066e-13 2.70088e-13 1.44926e-13 0 9.44468e-18
369 11 0.001 -0.0549927 0.00363649 -0.0453043 1.79491e-13 1.97548e-13 1.76733e-13 0 1.70838e-17
368 11 0.001 -0.0540499 0.0037972 -0.0450157 1.62646e-13 1.08388e-13 1.65439e-13 0 1.58182e-17
367 11 0.001 -0.0530988 0.00371743 -0.0447206 1.24918e-13 -1.542e-14 1.36683e-13 0 7.52136e-18
745 12 0.001 -0.0349933 0.00363624 -0.0453043 4.89818e-14 1.75484e-13 1.4164e-13 0 1.42651e-17
746 12 0.001 -0.0358688 0.00324442 -0.0455835 2.12562e-13 2.61619e-13 1.58207e-13 0 7.4095e-18
744 12 0.001 -0.0340506 0.00379713 -0.0450156 1.93228e-13 1.01983e-13 1.8077e-13 0 1.32698e-17
743 12 0.001 -0.0330995 0.00371753 -0.0447205 1.5513e-13 -1.22691e-14 1.50385e-13 0 6.01001e-18
1142 14 0.001 -0.0158688 0.00324442 -0.0455835 1.19269e-13 2.61587e-13 1.33864e-13 0 7.40951e-18
1140 14 0.001 -0.0140506 0.00379713 -0.0450156 1.54649e-13 9.25197e-14 1.69935e-13 0 1.32698e-17
1141 14 0.001 -0.0149933 0.00363624 -0.0453043 1.49379e-13 1.78067e-13 1.69839e-13 0 1.42651e-17
1139 14 0.001 -0.0130995 0.00371753 -0.0447205 1.2755e-13 2.63578e-15 1.41677e-13 0 6.01001e-18
1538 16 0.001 0.00413117 0.00324442 -0.0455835 1.10322e-13 2.58639e-13 1.32438e-13 0 7.40951e-18
1537 16 0.001 0.00500667 0.00363624 -0.0453043 1.45273e-13 1.83817e-13 1.68682e-13 0 1.42651e-17
1536 16 0.001 0.00594944 0.00379713 -0.0450156 1.57758e-13 8.94832e-14 1.70666e-13 0 1.32698e-17
1535 16 0.001 0.00690053 0.00371753 -0.0447205 1.25537e-13 2.12702e-16 1.41318e-13 0 6.01001e-18
1933 18 0.001 0.0250067 0.00363624 -0.0453043 1.58469e-13 1.70237e-13 1.72298e-13 0 1.42651e-17
1934 18 0.001 0.0241312 0.00324442 -0.0455835 6.72894e-14 2.71558e-13 1.20329e-13 0 7.40951e-18
1932 18 0.001 0.0259494 0.00379713 -0.0450156 1.60026e-13 9.12539e-14 1.71251e-13 0 1.32698e-17
1931 18 0.001 0.0269005 0.00371753 -0.0447205 1.17783e-13 6.02462e-15 1.38747e-13 0 6.01001e-18
361 11 0.001 -0.0501497 -0.000583723 -0.042977 -2.29107e-13 -3.58311e-13 -2.30611e-13 0 1.65126e-16
737 12 0.001 -0.0301496 -0.000583053 -0.0429768 -1.46415e-13 -3.37344e-13 -2.21461e-13 0 1.68444e-16
1133 14 0.001 -0.0101496 -0.000583053 -0.0429768 -1.40951e-13 -3.38626e-13 -2.20933e-13 0 1.68444e-16
1529 16 0.001 0.00985042 -0.000583053 -0.0429768 -1.35821e-13 -3.40467e-13 -2.20277e-13 0 1.68444e-16
1925 18 0.001 0.0298504 -0.000583053 -0.0429768 -1.14204e-13 -3.38749e-13 -2.21071e-13 0 1.68444e-16
362 11 0.001 -0.0501224 0.000375877 -0.0432535 3.35167e-14 -3.61081e-13 -1.68099e-13 0 1.2632e-16
363 11 0.001 -0.0503344 0.00130993 -0.0435374 -2.04263e-14 -3.11673e-13 -1.08992e-13 0 7.88658e-17
738 12 0.001 -0.0301225 0.000376548 -0.0432533 -4.28096e-14 -3.2906e-13 -1.66992e-13 0 1.29677e-16
739 12 0.001 -0.0303346 0.00131056 -0.0435372 1.04479e-14 -3.0944e-13 -9.69124e-14 0 8.19735e-17
1134 14 0.001 -0.0101225 0.000376548 -0.0432533 -5.12483e-14 -3.331e-13 -1.66358e-13 0 1.29677e-16
1135 14 0.001 -0.0103346 0.00131056 -0.0435372 2.27194e-15 -2.94921e-13 -1.02423e-13 0 8.19735e-17
1530 16 0.001 0.00987751 0.000376548 -0.0432533 -5.90494e-14 -3.33278e-13 -1.66859e-13 0 1.29677e-16
1531 16 0.001 0.00966538 0.00131056 -0.0435372 9.78029e-15 -2.94844e-13 -1.0154e-13 0 8.19735e-17
1926 18 0.001 0.0298775 0.000376548 -0.0432533 -7.48507e-14 -3.3175e-13 -1.67916e-13 0 1.29677e-16
1927 18 0.001 0.0296654 0.00131056 -0.0435372 2.55056e-14 -2.92917e-13 -9.96706e-14 0 8.19735e-17
365 11 0.001 -0.0514066 0.00287218 -0.0441237 1.39154e-13 -2.01204e-13 5.11115e-14 0 9.75702e-18
364 11 0.001 -0.0507717 0.0021598 -0.043828 6.18676e-14 -2.48078e-13 -3.9716e-14 0 3.64584e-17
740 12 0.001 -0.0307721 0.00216034 -0.0438279 1.99061e-14 -2.13538e-13 -4.17601e-14 0 3.88933e-17
741 12 0.001 -0.0314072 0.0028726 -0.0441236 1.40998e-13 -1.88278e-13 5.47108e-14 0 1.10774e-17
1136 14 0.001 -0.0107721 0.00216034 -0.0438279 5.75137e-14 -2.37579e-13 -2.87338e-14 0 3.88933e-17
1137 14 0.001 -0.0114072 0.0028726 -0.0441236 9.30144e-14 -1.72312e-13 4.0498e-14 0 1.10774e-17
1533 16 0.001 0.00859285 0.0028726 -0.0441236 9.44856e-14 -1.73273e-13 4.09232e-14 0 1.10774e-17
1532 16 0.001 0.00922786 0.00216034 -0.0438279 5.22168e-14 -2.3672e-13 -2.98549e-14 0 3.88933e-17
1928 18 0.001 0.0292279 0.00216034 -0.0438279 2.82556e-14 -2.42125e-13 -3.33049e-14 0 3.88933e-17
1929 18 0.001 0.0285928 0.0028726 -0.0441236 1.12842e-13 -1.69354e-13 4.41098e-14 0 1.10774e-17
366 11 0.001 -0.0521989 0.00340247 -0.0444222 1.74947e-13 -9.68244e-14 1.09026e-13 0 1.91472e-18
742 12 0.001 -0.0321995 0.00340274 -0.0444221 1.16602e-13 -9.44048e-14 1.01535e-13 0 1.82161e-18
1138 14 0.001 -0.0121995 0.00340274 -0.0444221 1.63856e-13 -1.05068e-13 1.15203e-13 0 1.82162e-18
1534 16 0.001 0.00780046 0.00340274 -0.0444221 1.64968e-13 -1.02923e-13 1.15359e-13 0 1.82162e-18
1930 18 0.001 0.0278005 0.00340274 -0.0444221 1.68053e-13 -1.08138e-13 1.17035e-13 0 1.82162e-18
356 11 0.001 -0.0533359 -0.0038022 -0.0416853 -3.28078e-13 -1.4068e-13 -1.66775e-13 0 7.55702e-17
357 11 0.001 -0.0524096 -0.00352439 -0.0419361 -3.50547e-13 -1.9491e-13 -2.11999e-13 0 1.14914e-16
358 11 0.001 -0.0515812 -0.00302665 -0.0421889 -2.98471e-13 -2.53127e-13 -2.58501e-13 0 1.52892e-16
732 12 0.001 -0.0333352 -0.00380211 -0.0416851 -2.81715e-13 -1.31842e-13 -1.66337e-13 0 7.83813e-17
733 12 0.001 -0.032409 -0.00352413 -0.0419359 -2.93215e-13 -1.9266e-13 -2.13376e-13 0 1.17843e-16
734 12 0.001 -0.0315807 -0.00302624 -0.0421887 -3.05469e-13 -2.55762e-13 -2.38042e-13 0 1.55863e-16
1128 14 0.001 -0.0133352 -0.00380211 -0.0416851 -3.20048e-13 -1.26131e-13 -1.56165e-13 0 7.83813e-17
1129 14 0.001 -0.012409 -0.00352413 -0.0419359 -3.09048e-13 -1.92688e-13 -2.1017e-13 0 1.17843e-16
1130 14 0.001 -0.0115807 -0.00302624 -0.0421887 -2.86303e-13 -2.54597e-13 -2.42463e-13 0 1.55863e-16
1524 16 0.001 0.00666475 -0.00380211 -0.0416851 -3.21116e-13 -1.30792e-13 -1.55652e-13 0 7.83813e-17
1525 16 0.001 0.00759097 -0.00352413 -0.0419359 -3.10706e-13 -1.88663e-13 -2.10276e-13 0 1.17843e-16
1526 16 0.001 0.00841933 -0.00302624 -0.0421887 -2.86394e-13 -2.57742e-13 -2.4213e-13 0 1.55863e-16
1920 18 0.001 0.0266648 -0.00380211 -0.0416851 -3.06903e-13 -1.24502e-13 -1.59314e-13 0 7.83813e-17
1921 18 0.001 0.027591 -0.00352413 -0.0419359 -3.22239e-13 -1.91988e-13 -2.07445e-13 0 1.17843e-16
1922 18 0.001 0.0284193 -0.00302624 -0.0421887 -2.77625e-13 -2.55861e-13 -2.43968e-13 0 1.55863e-16
359 11 0.001 -0.0509022 -0.00234029 -0.0424457 -2.40996e-13 -3.39015e-13 -2.6417e-13 0 1.78954e-16
360 11 0.001 -0.050415 -0.00150852 -0.042708 -1.65075e-13 -3.39413e-13 -2.60923e-13 0 1.84146e-16
735 12 0.001 -0.0309018 -0.00233975 -0.0424455 -2.45472e-13 -2.96679e-13 -2.60549e-13 0 1.81989e-16
736 12 0.001 -0.0304147 -0.00150789 -0.0427077 -1.75007e-13 -3.30265e-13 -2.51157e-13 0 1.87311e-16
1131 14 0.001 -0.0109018 -0.00233975 -0.0424455 -2.431e-13 -2.96444e-13 -2.60684e-13 0 1.81989e-16
1132 14 0.001 -0.0104147 -0.00150789 -0.0427077 -1.79279e-13 -3.28221e-13 -2.51175e-13 0 1.87311e-16
1527 16 0.001 0.00909818 -0.00233975 -0.0424455 -2.39033e-13 -2.96913e-13 -2.61026e-13 0 1.81989e-16
1528 16 0.001 0.00958526 -0.00150789 -0.0427077 -1.83005e-13 -3.24789e-13 -2.51736e-13 0 1.87311e-16
1923 18 0.001 0.0290982 -0.00233975 -0.0424455 -2.43916e-13 -3.01044e-13 -2.5908e-13 0 1.81989e-16
1924 18 0.001 0.0295853 -0.00150789 -0.0427077 -1.95125e-13 -3.24305e-13 -2.51479e-13 0 1.87311e-16
353 11 0.001 -0.0561152 -0.00321654 -0.0409298 -2.20854e-13 6.46615e-14 -9.91337e-15 0 9.24094e-18
355 11 0.001 -0.0543022 -0.00384266 -0.041435 -2.85434e-13 -6.48028e-14 -1.23899e-13 0 4.30872e-17
354 11 0.001 -0.0552483 -0.00364326 -0.0411835 -3.32926e-13 3.22145e-14 -4.40765e-14 0 2.11888e-17
729 12 0.001 -0.0361146 -0.00321697 -0.0409296 -2.89603e-13 4.6791e-14 2.57167e-15 0 1.09206e-17
730 12 0.001 -0.0352476 -0.00364352 -0.0411833 -2.76765e-13 3.51572e-14 -3.96614e-14 0 2.33238e-17
731 12 0.001 -0.0343015 -0.00384275 -0.0414348 -3.22908e-13 -5.58847e-14 -1.02578e-13 0 4.5633e-17
1125 14 0.001 -0.0161146 -0.00321697 -0.0409296 -2.18372e-13 6.8577e-14 -8.24247e-15 0 1.09206e-17
1126 14 0.001 -0.0152476 -0.00364352 -0.0411833 -3.23616e-13 2.17304e-14 -3.07786e-14 0 2.33238e-17
1127 14 0.001 -0.0143015 -0.00384275 -0.0414348 -2.58745e-13 -6.72253e-14 -1.189e-13 0 4.5633e-17
1521 16 0.001 0.00388538 -0.00321697 -0.0409296 -2.17333e-13 7.47933e-14 -7.16271e-15 0 1.09206e-17
1523 16 0.001 0.00569848 -0.00384275 -0.0414348 -2.65226e-13 -6.35816e-14 -1.17481e-13 0 4.5633e-17
1522 16 0.001 0.00475238 -0.00364352 -0.0411833 -3.10705e-13 1.78086e-14 -3.4201e-14 0 2.33238e-17
1917 18 0.001 0.0238854 -0.00321697 -0.0409296 -2.16485e-13 6.60617e-14 -9.42461e-15 0 1.09206e-17
1918 18 0.001 0.0247524 -0.00364352 -0.0411833 -3.29441e-13 2.46588e-14 -2.91715e-14 0 2.33238e-17
1919 18 0.001 0.0256985 -0.00384275 -0.0414348 -2.64167e-13 -6.92007e-14 -1.17692e-13 0 4.5633e-17
351 11 0.001 -0.0574044 -0.00180057 -0.040413 8.20678e-15 1.37743e-13 2.66148e-14 0 3.13918e-18
352 11 0.001 -0.0568491 -0.00258925 -0.0406731 -2.44656e-13 1.62519e-13 3.37748e-14 0 4.20128e-18
727 12 0.001 -0.0374041 -0.00180125 -0.0404128 -1.90755e-13 1.67077e-13 5.33376e-14 0 4.49837e-18
728 12 0.001 -0.0368486 -0.00258981 -0.0406729 -6.51171e-14 1.23482e-13 2.06358e-14 0 5.55759e-18
1123 14 0.001 -0.0174041 -0.00180125 -0.0404128 -9.53162e-14 1.68265e-13 4.47392e-14 0 4.49837e-18
1124 14 0.001 -0.0168486 -0.00258981 -0.0406729 -1.59111e-13 1.15444e-13 3.41328e-14 0 5.55759e-18
1519 16 0.001 0.00259589 -0.00180125 -0.0404128 -9.75424e-14 1.77779e-13 4.66515e-14 0 4.49837e-18
1520 16 0.001 0.00315137 -0.00258981 -0.0406729 -1.68839e-13 1.07258e-13 3.42737e-14 0 5.55759e-18
1915 18 0.001 0.0225959 -0.00180125 -0.0404128 -1.27036e-13 1.67929e-13 4.81443e-14 0 4.49837e-18
1916 18 0.001 0.0231514 -0.00258981 -0.0406729 -1.37831e-13 1.15369e-13 3.1275e-14 0 5.55759e-18
350 11 0.001 -0.0577468 -0.000899733 -0.0401498 -1.3328e-13 2.31171e-13 4.59952e-14 0 5.05066e-18
726 12 0.001 -0.0377467 -0.000900475 -0.0401496 4.7375e-14 1.95856e-13 4.61344e-14 0 6.88187e-18
1122 14 0.001 -0.0177467 -0.000900475 -0.0401496 -4.74206e-14 2.00645e-13 5.20539e-14 0 6.88187e-18
1518 16 0.001 0.00225335 -0.000900475 -0.0401496 -3.42912e-14 1.95043e-13 5.02242e-14 0 6.88187e-18
1914 18 0.001 0.0222533 -0.000900475 -0.0401496 -2.20602e-14 2.00833e-13 5.06242e-14 0 6.88187e-18
348 11 0.001 -0.0577227 0.00101034 -0.0396158 8.95121e-14 2.45261e-13 -1.33544e-14 0 2.41155e-17
349 11 0.001 -0.0578551 5.71105e-05 -0.0398838 9.39302e-14 2.21989e-13 2.20245e-14 0 1.12153e-17
724 12 0.001 -0.0377229 0.0010096 -0.0396156 6.27497e-14 1.72634e-13 -2.38028e-14 0 2.83295e-17
725 12 0.001 -0.0378551 5.63459e-05 -0.0398836 3.72229e-14 1.94964e-13 2.30638e-14 0 1.40262e-17
1120 14 0.001 -0.0177229 0.0010096 -0.0396156 1.29126e-13 1.71086e-13 -1.77339e-14 0 2.83295e-17
1121 14 0.001 -0.0178551 5.63459e-05 -0.0398836 5.98288e-14 1.97132e-13 2.05684e-14 0 1.40262e-17
1516 16 0.001 0.00227707 0.0010096 -0.0396156 1.20755e-13 1.75811e-13 -1.77953e-14 0 2.83295e-17
1517 16 0.001 0.00214488 5.63459e-05 -0.0398836 5.09714e-14 1.95192e-13 2.02837e-14 0 1.40262e-17
1912 18 0.001 0.0222771 0.0010096 -0.0396156 1.30188e-13 1.71265e-13 -1.81962e-14 0 2.83295e-17
1913 18 0.001 0.0221449 5.63459e-05 -0.0398836 4.28812e-14 1.96899e-13 2.047e-14 0 1.40262e-17
347 11 0.001 -0.057358 0.00190057 -0.0393465 2.58565e-13 1.81434e-13 -6.0051e-14 0 4.5598e-17
346 11 0.001 -0.0567838 0.0026723 -0.0390768 2.8737e-13 1.87203e-13 -9.2008e-14 0 7.52378e-17
722 12 0.001 -0.0367844 0.00267174 -0.0390766 2.56379e-13 1.54146e-13 -9.85075e-14 0 8.27354e-17
723 12 0.001 -0.0373584 0.0018999 -0.0393463 2.54456e-13 2.21338e-13 -3.59827e-14 0 5.14528e-17
1118 14 0.001 -0.0167844 0.00267174 -0.0390766 2.86867e-13 1.54015e-13 -9.37616e-14 0 8.27354e-17
1119 14 0.001 -0.0173584 0.0018999 -0.0393463 1.83324e-13 2.20041e-13 -4.43644e-14 0 5.14528e-17
1515 16 0.001 0.00264159 0.0018999 -0.0393463 2.10239e-13 2.18227e-13 -4.04056e-14 0 5.14528e-17
1514 16 0.001 0.00321565 0.00267174 -0.0390766 2.53308e-13 1.50181e-13 -1.01829e-13 0 8.27354e-17
1910 18 0.001 0.0232156 0.00267174 -0.0390766 2.49778e-13 1.52332e-13 -1.01201e-13 0 8.27354e-17
1911 18 0.001 0.0226416 0.0018999 -0.0393463 2.07641e-13 2.23539e-13 -3.96218e-14 0 5.14528e-17
345 11 0.001 -0.0560359 0.00327737 -0.0388074 2.5996e-13 1.2791e-13 -1.5973e-13 0 1.09698e-16
344 11 0.001 -0.055161 0.00367797 -0.0385389 4.28102e-13 4.43031e-14 -1.61277e-13 0 1.43381e-16
721 12 0.001 -0.0360366 0.00327695 -0.0388072 3.14886e-13 1.08292e-13 -1.35578e-13 0 1.18617e-16
720 12 0.001 -0.0351618 0.00367773 -0.0385387 2.94656e-13 5.51844e-14 -1.82423e-13 0 1.53336e-16
1117 14 0.001 -0.0160366 0.00327695 -0.0388072 2.98242e-13 1.04432e-13 -1.40231e-13 0 1.18617e-16
1116 14 0.001 -0.0151618 0.00367773 -0.0385387 3.2591e-13 5.9226e-14 -1.7342e-13 0 1.53336e-16
1513 16 0.001 0.00396341 0.00327695 -0.0388072 3.13813e-13 1.10398e-13 -1.34178e-13 0 1.18617e-16
1512 16 0.001 0.00483822 0.00367773 -0.0385387 3.45068e-13 5.33161e-14 -1.70628e-13 0 1.53336e-16
1909 18 0.001 0.0239634 0.00327695 -0.0388072 3.24113e-13 1.00118e-13 -1.34678e-13 0 1.18617e-16
1908 18 0.001 0.0248382 0.00367773 -0.0385387 3.27445e-13 6.43731e-14 -1.72907e-13 0 1.53336e-16
338 11 0.001 -0.0504154 0.00139759 -0.0369521 1.50753e-13 -2.60958e-13 -6.26627e-14 0 1.25954e-16
714 12 0.001 -0.0304157 0.00139832 -0.0369519 1.72727e-13 -2.53517e-13 -5.90332e-14 0 1.34453e-16
1110 14 0.001 -0.0104157 0.00139832 -0.0369519 1.82792e-13 -2.54681e-13 -5.79721e-14 0 1.34453e-16
1506 16 0.001 0.00958435 0.00139832 -0.0369519 1.90274e-13 -2.53357e-13 -5.72192e-14 0 1.34453e-16
1902 18 0.001 0.0295843 0.00139832 -0.0369519 1.88567e-13 -2.54479e-13 -5.83694e-14 0 1.34453e-16
340 11 0.001 -0.05153 0.00295186 -0.0374775 3.33071e-13 -1.69684e-13 -1.43794e-13 0 1.73463e-16
339 11 0.001 -0.0508749 0.00224489 -0.0372146 2.24617e-13 -1.96131e-13 -1.26886e-13 0 1.51944e-16
716 12 0.001 -0.0315306 0.00295235 -0.0374773 2.40409e-13 -1.65662e-13 -1.54172e-13 0 1.83389e-16
715 12 0.001 -0.0308754 0.00224552 -0.0372144 2.58563e-13 -1.92696e-13 -1.07408e-13 0 1.61195e-16
1111 14 0.001 -0.0108754 0.00224552 -0.0372144 2.34802e-13 -1.90335e-13 -1.11367e-13 0 1.61195e-16
1112 14 0.001 -0.0115306 0.00295235 -0.0374773 2.94303e-13 -1.71931e-13 -1.42441e-13 0 1.83389e-16
1508 16 0.001 0.00846942 0.00295235 -0.0374773 2.96929e-13 -1.66246e-13 -1.4329e-13 0 1.83389e-16
1507 16 0.001 0.00912464 0.00224552 -0.0372144 2.22803e-13 -1.95545e-13 -1.12058e-13 0 1.61195e-16
1904 18 0.001 0.0284694 0.00295235 -0.0374773 2.8591e-13 -1.64972e-13 -1.45582e-13 0 1.83389e-16
1903 18 0.001 0.0291246 0.00224552 -0.0372144 2.38073e-13 -1.93765e-13 -1.09601e-13 0 1.61195e-16
343 11 0.001 -0.0542138 0.00384901 -0.0382716 3.31384e-13 -2.17067e-15 -2.02332e-13 0 1.70072e-16
342 11 0.001 -0.0532533 0.00377972 -0.0380057 3.8972e-13 -5.06218e-14 -1.89389e-13 0 1.84873e-16
341 11 0.001 -0.0523396 0.00347433 -0.037741 3.43035e-13 -1.48112e-13 -1.77078e-13 0 1.85649e-16
719 12 0.001 -0.0342145 0.00384896 -0.0382714 4.17234e-13 -9.27651e-15 -1.68761e-13 0 1.80607e-16
718 12 0.001 -0.0332541 0.00377987 -0.0380055 3.03589e-13 -6.23971e-14 -1.98656e-13 0 1.95543e-16
717 12 0.001 -0.0323404 0.00347466 -0.0377408 3.82985e-13 -1.13902e-13 -1.60087e-13 0 1.96082e-16
1115 14 0.001 -0.0142145 0.00384896 -0.0382714 3.67353e-13 -1.18756e-14 -1.82081e-13 0 1.80607e-16
1113 14 0.001 -0.0123404 0.00347466 -0.0377408 3.13676e-13 -1.1369e-13 -1.75933e-13 0 1.96082e-16
1114 14 0.001 -0.0132541 0.00377987 -0.0380055 3.64899e-13 -5.82029e-14 -1.83765e-13 0 1.95543e-16
1511 16 0.001 0.00578545 0.00384896 -0.0382714 3.48332e-13 1.90016e-15 -1.86031e-13 0 1.80607e-16
1510 16 0.001 0.00674594 0.00377987 -0.0380055 3.51346e-13 -7.18034e-14 -1.87366e-13 0 1.95543e-16
1509 16 0.001 0.00765964 0.00347466 -0.0377408 3.3058e-13 -1.12464e-13 -1.71239e-13 0 1.96082e-16
1907 18 0.001 0.0257855 0.00384896 -0.0382714 3.49367e-13 -8.04327e-15 -1.86602e-13 0 1.80607e-16
1906 18 0.001 0.0267459 0.00377987 -0.0380055 3.57662e-13 -6.11494e-14 -1.86094e-13 0 1.95543e-16
1905 18 0.001 0.0276596 0.00347466 -0.0377408 3.36271e-13 -1.21949e-13 -1.6894e-13 0 1.96082e-16
333 11 0.001 -0.0515522 -0.0029779 -0.0356328 -1.41185e-13 -1.11188e-13 8.78804e-15 0 4.42724e-17
334 11 0.001 -0.050892 -0.00227666 -0.0358981 -8.61015e-14 -1.70442e-13 2.48177e-14 0 4.99484e-17
709 12 0.001 -0.0315516 -0.00297741 -0.0356325 -1.43275e-13 -1.30336e-13 2.87825e-14 0 5.03286e-17
710 12 0.001 -0.0308915 -0.00227603 -0.0358978 -1.44549e-13 -1.40029e-13 2.96151e-14 0 5.61063e-17
1105 14 0.001 -0.0115516 -0.00297741 -0.0356325 -1.37165e-13 -1.07512e-13 2.34873e-14 0 5.03286e-17
1106 14 0.001 -0.0108915 -0.00227603 -0.0358978 -1.16952e-13 -1.53851e-13 2.98832e-14 0 5.61063e-17
1501 16 0.001 0.00844841 -0.00297741 -0.0356325 -1.28584e-13 -1.06587e-13 2.1377e-14 0 5.03286e-17
1502 16 0.001 0.00910848 -0.00227603 -0.0358978 -1.16684e-13 -1.56123e-13 3.00846e-14 0 5.61063e-17
1897 18 0.001 0.0284484 -0.00297741 -0.0356325 -1.10238e-13 -1.15878e-13 1.96467e-14 0 5.03286e-17
1898 18 0.001 0.0291085 -0.00227603 -0.0358978 -1.26238e-13 -1.50023e-13 3.10965e-14 0 5.61063e-17
335 11 0.001 -0.0504262 -0.00143344 -0.0361626 -4.95459e-14 -2.36977e-13 1.9704e-14 0 6.10425e-17
336 11 0.001 -0.0501838 -0.000500859 -0.0364263 -6.92514e-15 -2.32713e-13 2.6854e-15 0 7.79137e-17
711 12 0.001 -0.0304258 -0.00143271 -0.0361624 4.63069e-14 -2.13435e-13 1.4797e-14 0 6.75536e-17
712 12 0.001 -0.0301837 -0.00050008 -0.0364261 7.3753e-15 -1.98453e-13 3.55593e-16 0 8.49758e-17
1107 14 0.001 -0.0104258 -0.00143271 -0.0361624 -7.16277e-15 -2.06861e-13 1.78116e-14 0 6.75536e-17
1108 14 0.001 -0.0101837 -0.00050008 -0.0364261 4.1164e-14 -2.11012e-13 1.86516e-15 0 8.49758e-17
1503 16 0.001 0.00957415 -0.00143271 -0.0361624 -4.92156e-15 -2.05023e-13 1.77232e-14 0 6.75536e-17
1504 16 0.001 0.00981632 -0.00050008 -0.0364261 3.48234e-14 -2.09708e-13 1.5202e-15 0 8.49758e-17
1899 18 0.001 0.0295742 -0.00143271 -0.0361624 -2.12899e-14 -2.10836e-13 2.0106e-14 0 6.75536e-17
1900 18 0.001 0.0298163 -0.00050008 -0.0364261 6.09717e-14 -2.03012e-13 -1.2041e-15 0 8.49758e-17
337 11 0.001 -0.0501801 0.000462877 -0.0366894 1.84276e-13 -2.35395e-13 -4.35042e-14 0 1.00145e-16
713 12 0.001 -0.0301802 0.000463656 -0.0366892 1.05406e-13 -2.16328e-13 -3.47839e-14 0 1.07892e-16
1109 14 0.001 -0.0101802 0.000463656 -0.0366892 9.2316e-14 -2.08026e-13 -3.71341e-14 0 1.07892e-16
1505 16 0.001 0.0098198 0.000463656 -0.0366892 9.46114e-14 -2.09411e-13 -3.69027e-14 0 1.07892e-16
1901 18 0.001 0.0298198 0.000463656 -0.0366892 7.53198e-14 -2.11609e-13 -3.62563e-14 0 1.07892e-16
328 11 0.001 -0.0560602 -0.00326522 -0.034301 -2.36579e-13 2.05847e-13 -1.15378e-13 0 7.97724e-17
329 11 0.001 -0.0551881 -0.00367331 -0.0345673 -2.15981e-13 1.30971e-13 -1.04054e-13 0 6.58703e-17
330 11 0.001 -0.0542421 -0.00385232 -0.0348338 -2.42635e-13 6.95076e-14 -5.96057e-14 0 5.46703e-17
331 11 0.001 -0.0532812 -0.00379108 -0.0351004 -2.57489e-13 1.00995e-15 -2.34844e-14 0 4.70363e-17
332 11 0.001 -0.0523656 -0.00349342 -0.0353668 -1.76496e-13 -6.18e-14 -6.73668e-15 0 4.34524e-17
704 12 0.001 -0.0360595 -0.00326572 -0.0343007 -2.09465e-13 1.99314e-13 -1.14736e-13 0 8.90185e-17
705 12 0.001 -0.0351873 -0.00367361 -0.034567 -2.26997e-13 1.11838e-13 -9.29067e-14 0 7.41548e-17
706 12 0.001 -0.0342412 -0.00385241 -0.0348335 -1.94703e-13 8.04019e-14 -6.49525e-14 0 6.20761e-17
707 12 0.001 -0.0332804 -0.00379096 -0.0351002 -2.45088e-13 -3.661e-15 -1.32965e-14 0 5.37363e-17
708 12 0.001 -0.0323648 -0.00349311 -0.0353666 -1.63306e-13 -4.61798e-14 -8.8211e-15 0 4.96897e-17
1100 14 0.001 -0.0160595 -0.00326572 -0.0343007 -1.97482e-13 1.8711e-13 -1.18823e-13 0 8.90185e-17
1101 14 0.001 -0.0151873 -0.00367361 -0.034567 -2.2021e-13 1.30889e-13 -9.26489e-14 0 7.41548e-17
1102 14 0.001 -0.0142412 -0.00385241 -0.0348335 -2.25925e-13 7.12595e-14 -5.75514e-14 0 6.20761e-17
1104 14 0.001 -0.0123648 -0.00349311 -0.0353666 -1.68113e-13 -5.99463e-14 -6.76821e-15 0 4.96897e-17
1103 14 0.001 -0.0132804 -0.00379096 -0.0351002 -2.22294e-13 2.216e-15 -1.92787e-14 0 5.37363e-17
1496 16 0.001 0.00394052 -0.00326572 -0.0343007 -1.87997e-13 1.90562e-13 -1.20367e-13 0 8.90185e-17
1497 16 0.001 0.00481273 -0.00367361 -0.034567 -2.3506e-13 1.27219e-13 -8.97309e-14 0 7.41548e-17
1498 16 0.001 0.00575878 -0.00385241 -0.0348335 -2.04368e-13 6.8648e-14 -6.26625e-14 0 6.20761e-17
1499 16 0.001 0.00671959 -0.00379096 -0.0351002 -2.28909e-13 5.54972e-15 -1.76769e-14 0 5.37363e-17
1500 16 0.001 0.00763519 -0.00349311 -0.0353666 -1.80639e-13 -6.0445e-14 -3.80859e-15 0 4.96897e-17
1892 18 0.001 0.0239405 -0.00326572 -0.0343007 -2.0898e-13 1.82466e-13 -1.1653e-13 0 8.90185e-17
1893 18 0.001 0.0248127 -0.00367361 -0.034567 -2.20089e-13 1.34949e-13 -9.26173e-14 0 7.41548e-17
1894 18 0.001 0.0257588 -0.00385241 -0.0348335 -2.08548e-13 6.72741e-14 -6.21367e-14 0 6.20761e-17
1895 18 0.001 0.0267196 -0.00379096 -0.0351002 -2.25784e-13 1.42764e-15 -1.79715e-14 0 5.37363e-17
1896 18 0.001 0.0276352 -0.00349311 -0.0353666 -1.88328e-13 -5.25525e-14 -3.6489e-15 0 4.96897e-17
327 11 0.001 -0.056804 -0.00265352 -0.0340352 -2.06198e-13 2.33509e-13 -1.4562e-13 0 9.50365e-17
703 12 0.001 -0.0368034 -0.00265418 -0.034035 -1.30203e-13 2.24636e-13 -1.48356e-13 0 1.05234e-16
1099 14 0.001 -0.0168034 -0.00265418 -0.034035 -1.6271e-13 2.29452e-13 -1.40824e-13 0 1.05234e-16