ITEM: TIMESTEP
5300000
ITEM: NUMBER OF ATOMS
1970
ITEM: BOX BOUNDS ff ff ff
-6.0000000000000005e-02 6.0000000000000005e-02
-6.0000000000000001e-03 6.0000000000000001e-03
-5.5000000000000000e-02 5.5000000000000000e-02
ITEM: ATOMS id type radius x y z fx fy fz c_bendingE c_stretchingE
384 11 0.001 -0.050833 -0.00263153 -0.0489904 -7.48315e-13 4.37583e-14 -4.81789e-13 0 5.65876e-17
385 11 0.001 -0.0503295 -0.00183159 -0.0493138 -5.34212e-13 -2.30953e-14 -3.10008e-13 0 8.28332e-15
760 12 0.001 -0.030833 -0.00263153 -0.0489904 -6.95522e-13 7.42557e-14 -4.75983e-13 0 5.74879e-17
761 12 0.001 -0.0303295 -0.00183158 -0.0493138 -5.39024e-13 -2.42538e-14 -2.92185e-13 0 8.26812e-15
1156 14 0.001 -0.010833 -0.00263153 -0.0489904 -7.30588e-13 6.37406e-14 -4.68168e-13 0 5.74879e-17
1157 14 0.001 -0.0103295 -0.00183158 -0.0493138 -5.02915e-13 -2.83734e-14 -2.94235e-13 0 8.26812e-15
1552 16 0.001 0.00916704 -0.00263153 -0.0489904 -7.21286e-13 6.2083e-14 -4.69012e-13 0 5.74879e-17
1553 16 0.001 0.00967054 -0.00183158 -0.0493138 -5.06162e-13 -2.44857e-14 -2.9521e-13 0 8.26812e-15
1948 18 0.001 0.029167 -0.00263153 -0.0489904 -7.26407e-13 7.45734e-14 -4.72368e-13 0 5.74879e-17
1949 18 0.001 0.0296705 -0.00183158 -0.0493138 -5.11102e-13 -2.7033e-14 -2.94104e-13 0 8.26812e-15
2 2 0.001 -0.05 -4.31175e-17 -0.05 -3.62884e-06 4.17402e-06 2.07468e-06 0 6.83946e-15
386 11 0.001 -0.0500461 -0.000935297 -0.049652 -2.42171e-13 -2.7722e-14 -1.50434e-13 0 1.50693e-14
762 12 0.001 -0.0300461 -0.000935294 -0.049652 -2.43716e-13 -4.55369e-14 -1.35253e-13 0 1.50363e-14
4 4 0.001 -0.03 -4.31175e-17 -0.05 -3.63297e-06 4.18622e-06 2.07086e-06 0 6.82274e-15
6 6 0.001 -0.01 -4.31175e-17 -0.05 -3.63297e-06 4.18622e-06 2.07086e-06 0 6.82274e-15
1158 14 0.001 -0.0100461 -0.000935294 -0.049652 -2.5605e-13 -3.22159e-14 -1.39585e-13 0 1.50363e-14
8 8 0.001 0.01 -4.31175e-17 -0.05 -3.63297e-06 4.18622e-06 2.07086e-06 0 6.82274e-15
1554 16 0.001 0.00995394 -0.000935294 -0.049652 -2.57267e-13 -3.42482e-14 -1.38757e-13 0 1.50363e-14
10 10 0.001 0.03 -4.31175e-17 -0.05 -3.63297e-06 4.18622e-06 2.07086e-06 0 6.82274e-15
1950 18 0.001 0.0299539 -0.000935294 -0.049652 -2.50649e-13 -3.81935e-14 -1.37306e-13 0 1.50363e-14
379 11 0.001 -0.0552091 -0.00375614 -0.0476621 -1.1442e-12 9.22322e-13 -1.01996e-12 0 1.42829e-15
380 11 0.001 -0.0542656 -0.00399099 -0.0478915 -1.14464e-12 7.51017e-13 -1.01261e-12 0 1.20226e-15
381 11 0.001 -0.0532971 -0.00398696 -0.0481366 -1.14856e-12 5.17257e-13 -9.29388e-13 0 8.22724e-16
382 11 0.001 -0.0523644 -0.00374564 -0.0484007 -1.05128e-12 3.52617e-13 -8.17266e-13 0 4.07637e-16
383 11 0.001 -0.0515256 -0.00328366 -0.0486854 -9.3906e-13 1.84054e-13 -6.57762e-13 0 1.07859e-16
755 12 0.001 -0.0352091 -0.00375616 -0.0476621 -1.05025e-12 9.19445e-13 -1.01162e-12 0 1.42912e-15
756 12 0.001 -0.0342656 -0.00399101 -0.0478915 -1.19393e-12 7.21861e-13 -9.66135e-13 0 1.20187e-15
757 12 0.001 -0.0332971 -0.00398697 -0.0481366 -1.05776e-12 5.25098e-13 -9.23237e-13 0 8.21338e-16
758 12 0.001 -0.0323643 -0.00374564 -0.0484007 -1.09321e-12 3.28864e-13 -7.70852e-13 0 4.05892e-16
759 12 0.001 -0.0315256 -0.00328366 -0.0486853 -8.89328e-13 1.84035e-13 -6.4161e-13 0 1.068e-16
1151 14 0.001 -0.0152091 -0.00375616 -0.0476621 -1.09257e-12 9.08759e-13 -1.00283e-12 0 1.42912e-15
1152 14 0.001 -0.0142656 -0.00399101 -0.0478915 -1.12731e-12 7.20728e-13 -9.81588e-13 0 1.20187e-15
1153 14 0.001 -0.0132971 -0.00398697 -0.0481366 -1.13821e-12 5.34019e-13 -9.05003e-13 0 8.21338e-16
1154 14 0.001 -0.0123643 -0.00374564 -0.0484007 -1.03729e-12 3.23461e-13 -7.827e-13 0 4.05892e-16
1155 14 0.001 -0.0115256 -0.00328366 -0.0486853 -9.03333e-13 1.90263e-13 -6.39925e-13 0 1.068e-16
1547 16 0.001 0.00479091 -0.00375616 -0.0476621 -1.09894e-12 9.22631e-13 -1.00072e-12 0 1.42912e-15
1548 16 0.001 0.00573444 -0.00399101 -0.0478915 -1.14494e-12 7.13869e-13 -9.77813e-13 0 1.20187e-15
1549 16 0.001 0.0067029 -0.00398697 -0.0481366 -1.11843e-12 5.32608e-13 -9.0894e-13 0 8.21338e-16
1550 16 0.001 0.00763565 -0.00374564 -0.0484007 -1.04138e-12 3.26642e-13 -7.82325e-13 0 4.05892e-16
1551 16 0.001 0.00847444 -0.00328366 -0.0486853 -9.09352e-13 1.9041e-13 -6.39036e-13 0 1.068e-16
1943 18 0.001 0.0247909 -0.00375616 -0.0476621 -1.08703e-12 9.09718e-13 -1.00652e-12 0 1.42912e-15
1944 18 0.001 0.0257344 -0.00399101 -0.0478915 -1.15489e-12 7.20504e-13 -9.74583e-13 0 1.20187e-15
1945 18 0.001 0.0267029 -0.00398697 -0.0481366 -1.10572e-12 5.2519e-13 -9.11362e-13 0 8.21338e-16
1946 18 0.001 0.0276357 -0.00374564 -0.0484007 -1.05593e-12 3.4002e-13 -7.8221e-13 0 4.05892e-16
1947 18 0.001 0.0284744 -0.00328366 -0.0486853 -8.97861e-13 1.72013e-13 -6.35703e-13 0 1.068e-16
378 11 0.001 -0.0560687 -0.00329601 -0.0474442 -9.83793e-13 1.11055e-12 -9.92067e-13 0 1.44804e-15
754 12 0.001 -0.0360686 -0.00329604 -0.0474442 -1.04135e-12 1.07969e-12 -9.56661e-13 0 1.44995e-15
1150 14 0.001 -0.0160686 -0.00329604 -0.0474442 -9.95588e-13 1.08716e-12 -9.66446e-13 0 1.44995e-15
1546 16 0.001 0.00393137 -0.00329604 -0.0474442 -9.79994e-13 1.07736e-12 -9.69973e-13 0 1.44995e-15
1942 18 0.001 0.0239314 -0.00329604 -0.0474442 -9.83529e-13 1.09741e-12 -9.64122e-13 0 1.44995e-15
376 11 0.001 -0.0573297 -0.00182434 -0.047022 -6.72445e-13 1.33399e-12 -7.40505e-13 0 9.90015e-16
377 11 0.001 -0.0567905 -0.00263857 -0.0472326 -8.604e-13 1.25032e-12 -8.84528e-13 0 1.27911e-15
753 12 0.001 -0.0367905 -0.0026386 -0.0472326 -8.09231e-13 1.22777e-12 -8.74274e-13 0 1.28173e-15
752 12 0.001 -0.0373296 -0.00182438 -0.047022 -6.42294e-13 1.30529e-12 -7.26775e-13 0 9.92908e-16
1149 14 0.001 -0.0167905 -0.0026386 -0.0472326 -8.11694e-13 1.22352e-12 -8.70144e-13 0 1.28173e-15
1148 14 0.001 -0.0173296 -0.00182438 -0.047022 -6.80804e-13 1.30685e-12 -7.26215e-13 0 9.92908e-16
1544 16 0.001 0.00267035 -0.00182438 -0.047022 -6.43564e-13 1.3137e-12 -7.27205e-13 0 9.92908e-16
1545 16 0.001 0.00320955 -0.0026386 -0.0472326 -8.33676e-13 1.22141e-12 -8.68403e-13 0 1.28173e-15
1941 18 0.001 0.0232095 -0.0026386 -0.0472326 -8.36679e-13 1.2126e-12 -8.70942e-13 0 1.28173e-15
1940 18 0.001 0.0226704 -0.00182438 -0.047022 -6.56815e-13 1.31454e-12 -7.25471e-13 0 9.92908e-16
375 11 0.001 -0.057653 -0.000903748 -0.0468076 -4.09619e-13 1.37402e-12 -5.54063e-13 0 6.67554e-16
751 12 0.001 -0.037653 -0.000903787 -0.0468076 -3.95374e-13 1.33878e-12 -5.42689e-13 0 6.70298e-16
1147 14 0.001 -0.017653 -0.000903787 -0.0468076 -3.82743e-13 1.34093e-12 -5.42509e-13 0 6.70298e-16
1543 16 0.001 0.00234704 -0.000903787 -0.0468076 -4.22984e-13 1.33746e-12 -5.4238e-13 0 6.70298e-16
1939 18 0.001 0.022347 -0.000903787 -0.0468076 -4.0089e-13 1.33582e-12 -5.44172e-13 0 6.70298e-16
373 11 0.001 -0.0575885 0.00102544 -0.0463513 -1.86253e-14 1.25387e-12 -1.52316e-13 0 1.83536e-16
374 11 0.001 -0.0577408 6.6183e-05 -0.046585 -1.70388e-13 1.33858e-12 -3.43373e-13 0 3.85165e-16
749 12 0.001 -0.0375885 0.0010254 -0.0463513 9.79949e-14 1.22883e-12 -1.27785e-13 0 1.8519e-16
750 12 0.001 -0.0377408 6.61434e-05 -0.046585 -2.47023e-13 1.3156e-12 -3.42618e-13 0 3.87446e-16
1145 14 0.001 -0.0175885 0.0010254 -0.0463513 3.50044e-14 1.22506e-12 -1.37113e-13 0 1.8519e-16
1146 14 0.001 -0.0177408 6.61434e-05 -0.046585 -2.15897e-13 1.31869e-12 -3.39553e-13 0 3.87446e-16
1541 16 0.001 0.00241152 0.0010254 -0.0463513 4.04544e-14 1.23564e-12 -1.3337e-13 0 1.8519e-16
1542 16 0.001 0.00225918 6.61434e-05 -0.046585 -1.93837e-13 1.31354e-12 -3.40559e-13 0 3.87446e-16
1937 18 0.001 0.0224115 0.0010254 -0.0463513 2.66999e-14 1.22819e-12 -1.36602e-13 0 1.8519e-16
1938 18 0.001 0.0222592 6.61434e-05 -0.046585 -1.97172e-13 1.31665e-12 -3.38742e-13 0 3.87446e-16
372 11 0.001 -0.0572061 0.00191483 -0.0461046 3.0979e-13 1.10694e-12 5.59677e-14 0 6.75842e-17
748 12 0.001 -0.0372062 0.00191479 -0.0461046 1.46502e-13 1.06012e-12 2.37951e-14 0 6.85984e-17
1144 14 0.001 -0.0172062 0.00191479 -0.0461046 2.27483e-13 1.06954e-12 4.02633e-14 0 6.85984e-17
1540 16 0.001 0.00279384 0.00191479 -0.0461046 2.16912e-13 1.06136e-12 3.72187e-14 0 6.85984e-17
1936 18 0.001 0.0227938 0.00191479 -0.0461046 2.29774e-13 1.06558e-12 3.87823e-14 0 6.85984e-17
371 11 0.001 -0.0566183 0.0026796 -0.0458447 4.18498e-13 9.1659e-13 1.82076e-13 0 1.68642e-17
747 12 0.001 -0.0366183 0.00267957 -0.0458446 4.87126e-13 8.9116e-13 2.01772e-13 0 1.73509e-17
1143 14 0.001 -0.0166183 0.00267957 -0.0458446 4.36101e-13 8.82444e-13 1.90055e-13 0 1.73509e-17
1539 16 0.001 0.00338166 0.00267957 -0.0458446 4.24813e-13 8.90907e-13 1.88196e-13 0 1.73509e-17
1935 18 0.001 0.0233817 0.00267957 -0.0458446 4.17997e-13 8.92299e-13 1.88934e-13 0 1.73509e-17
370 11 0.001 -0.0558621 0.00327283 -0.0455722 5.80484e-13 6.68176e-13 2.74731e-13 0 2.11515e-18
369 11 0.001 -0.0549849 0.00365823 -0.0452893 6.31667e-13 4.06344e-13 2.90386e-13 0 4.10724e-20
368 11 0.001 -0.0540416 0.00381231 -0.0449986 8.02773e-13 1.30427e-13 2.91917e-13 0 9.32632e-19
367 11 0.001 -0.0530912 0.00372583 -0.0447033 6.84151e-13 -1.45114e-13 1.72686e-13 0 7.76637e-18
745 12 0.001 -0.0349849 0.00365822 -0.0452893 6.56844e-13 4.00198e-13 3.04325e-13 0 6.688e-20
746 12 0.001 -0.0358621 0.00327281 -0.0455722 5.48955e-13 6.72465e-13 2.78878e-13 0 2.26557e-18
744 12 0.001 -0.0340417 0.0038123 -0.0449986 7.01711e-13 1.24415e-13 2.7345e-13 0 1.01171e-18
743 12 0.001 -0.0330912 0.00372584 -0.0447033 7.07229e-13 -1.30844e-13 1.86028e-13 0 8.0054e-18
1142 14 0.001 -0.0158621 0.00327281 -0.0455722 5.55719e-13 6.80015e-13 2.80878e-13 0 2.26557e-18
1140 14 0.001 -0.0140417 0.0038123 -0.0449986 7.07453e-13 1.33092e-13 2.75755e-13 0 1.01171e-18
1141 14 0.001 -0.0149849 0.00365822 -0.0452893 6.48849e-13 3.88189e-13 3.00601e-13 0 6.68801e-20
1139 14 0.001 -0.0130912 0.00372584 -0.0447033 7.07627e-13 -1.38319e-13 1.87187e-13 0 8.0054e-18
1538 16 0.001 0.00413788 0.00327281 -0.0455722 5.77061e-13 6.68254e-13 2.84733e-13 0 2.26557e-18
1537 16 0.001 0.00501506 0.00365822 -0.0452893 6.39676e-13 3.96937e-13 2.99788e-13 0 6.68801e-20
1536 16 0.001 0.00595833 0.0038123 -0.0449986 7.14979e-13 1.29701e-13 2.76577e-13 0 1.01171e-18
1535 16 0.001 0.00690877 0.00372584 -0.0447033 6.90737e-13 -1.37186e-13 1.83269e-13 0 8.0054e-18
1933 18 0.001 0.0250151 0.00365822 -0.0452893 6.63213e-13 4.02527e-13 3.07561e-13 0 6.68801e-20
1934 18 0.001 0.0241379 0.00327281 -0.0455722 5.74302e-13 6.61627e-13 2.8147e-13 0 2.26557e-18
1932 18 0.001 0.0259583 0.0038123 -0.0449986 6.85966e-13 1.29012e-13 2.68764e-13 0 1.01171e-18
1931 18 0.001 0.0269088 0.00372584 -0.0447033 6.87101e-13 -1.29793e-13 1.80212e-13 0 8.0054e-18
361 11 0.001 -0.050164 -0.000601143 -0.0429864 -2.29464e-13 -1.05378e-12 -5.76787e-13 0 2.75303e-16
737 12 0.001 -0.030164 -0.000601104 -0.0429864 -2.05503e-13 -1.03273e-12 -5.6119e-13 0 2.75748e-16
1133 14 0.001 -0.010164 -0.000601104 -0.0429864 -2.14864e-13 -1.03704e-12 -5.60078e-13 0 2.75748e-16
1529 16 0.001 0.00983601 -0.000601104 -0.0429864 -1.70548e-13 -1.03935e-12 -5.60529e-13 0 2.75748e-16
1925 18 0.001 0.029836 -0.000601104 -0.0429864 -1.93989e-13 -1.0373e-12 -5.60413e-13 0 2.75748e-16
362 11 0.001 -0.0501318 0.00035984 -0.0432575 5.43012e-14 -1.05546e-12 -5.02575e-13 0 2.47172e-16
363 11 0.001 -0.0503391 0.0012967 -0.0435357 2.21212e-13 -9.67939e-13 -4.00909e-13 0 1.94031e-16
738 12 0.001 -0.0301318 0.000359879 -0.0432575 2.88994e-16 -1.0081e-12 -5.08618e-13 0 2.47694e-16
739 12 0.001 -0.0303391 0.00129674 -0.0435357 2.26328e-13 -9.54715e-13 -3.88983e-13 0 1.94623e-16
1134 14 0.001 -0.0101318 0.000359879 -0.0432575 1.23685e-14 -1.00862e-12 -5.08108e-13 0 2.47694e-16
1135 14 0.001 -0.0103391 0.00129674 -0.0435357 2.24214e-13 -9.50847e-13 -3.89105e-13 0 1.94623e-16
1530 16 0.001 0.00986815 0.000359879 -0.0432575 -1.81532e-14 -1.01034e-12 -5.08481e-13 0 2.47694e-16
1531 16 0.001 0.00966091 0.00129674 -0.0435357 2.40669e-13 -9.46339e-13 -3.88778e-13 0 1.94623e-16
1926 18 0.001 0.0298682 0.000359879 -0.0432575 -1.10825e-14 -1.01467e-12 -5.06245e-13 0 2.47694e-16
1927 18 0.001 0.0296609 0.00129674 -0.0435357 2.40646e-13 -9.36321e-13 -3.93332e-13 0 1.94623e-16
365 11 0.001 -0.0514035 0.00286817 -0.0441116 5.56385e-13 -6.47261e-13 -1.02168e-13 0 7.08491e-17
364 11 0.001 -0.0507722 0.00215065 -0.0438207 4.04766e-13 -8.25944e-13 -2.58581e-13 0 1.29798e-16
740 12 0.001 -0.0307722 0.00215068 -0.0438207 4.24463e-13 -8.26292e-13 -2.4013e-13 0 1.30415e-16
741 12 0.001 -0.0314035 0.0028682 -0.0441116 5.25937e-13 -6.0352e-13 -1.06347e-13 0 7.14094e-17
1136 14 0.001 -0.0107722 0.00215068 -0.0438207 4.22759e-13 -8.23588e-13 -2.42371e-13 0 1.30415e-16
1137 14 0.001 -0.0114035 0.0028682 -0.0441116 5.13633e-13 -6.08593e-13 -1.06303e-13 0 7.14094e-17
1533 16 0.001 0.00859651 0.0028682 -0.0441116 5.18283e-13 -6.12597e-13 -1.05167e-13 0 7.14094e-17
1532 16 0.001 0.00922782 0.00215068 -0.0438207 4.09911e-13 -8.23354e-13 -2.44318e-13 0 1.30415e-16
1928 18 0.001 0.0292278 0.00215068 -0.0438207 4.10017e-13 -8.38301e-13 -2.3835e-13 0 1.30415e-16
1929 18 0.001 0.0285965 0.0028682 -0.0441116 5.03573e-13 -5.92797e-13 -1.14996e-13 0 7.14094e-17
366 11 0.001 -0.052193 0.00340441 -0.0444066 7.2322e-13 -4.00003e-13 6.78415e-14 0 2.91773e-17
742 12 0.001 -0.0321931 0.00340442 -0.0444066 6.63053e-13 -4.09927e-13 6.80812e-14 0 2.95997e-17
1138 14 0.001 -0.0121931 0.00340442 -0.0444066 6.77542e-13 -4.04023e-13 6.94019e-14 0 2.95997e-17
1534 16 0.001 0.00780693 0.00340442 -0.0444066 6.89424e-13 -4.02471e-13 7.22903e-14 0 2.95997e-17
1930 18 0.001 0.0278069 0.00340442 -0.0444066 7.18554e-13 -4.22053e-13 8.4752e-14 0 2.95997e-17
355 11 0.001 -0.0543306 -0.00384358 -0.0414475 -8.50201e-13 -5.59393e-14 -1.6441e-13 0 6.90092e-17
356 11 0.001 -0.053365 -0.00380754 -0.0417011 -8.56199e-13 -2.73676e-13 -2.68172e-13 0 1.00795e-16
357 11 0.001 -0.052438 -0.00353393 -0.0419538 -8.07142e-13 -4.92179e-13 -3.87904e-13 0 1.4472e-16
358 11 0.001 -0.0516075 -0.00303981 -0.0422071 -7.17737e-13 -7.15839e-13 -4.82625e-13 0 1.95329e-16
731 12 0.001 -0.0343305 -0.00384359 -0.0414474 -7.90841e-13 -2.98173e-14 -1.60205e-13 0 6.95339e-17
732 12 0.001 -0.0333649 -0.00380753 -0.041701 -8.3883e-13 -2.88139e-13 -2.62311e-13 0 1.01297e-16
733 12 0.001 -0.032438 -0.00353391 -0.0419538 -7.71878e-13 -4.82372e-13 -3.79126e-13 0 1.45186e-16
734 12 0.001 -0.0316075 -0.00303979 -0.0422071 -7.0271e-13 -6.99366e-13 -4.75633e-13 0 1.95753e-16
1127 14 0.001 -0.0143305 -0.00384359 -0.0414474 -8.01827e-13 -3.43399e-14 -1.57654e-13 0 6.95339e-17
1128 14 0.001 -0.0133649 -0.00380753 -0.041701 -8.19229e-13 -2.81999e-13 -2.67258e-13 0 1.01297e-16
1129 14 0.001 -0.012438 -0.00353391 -0.0419538 -7.9923e-13 -4.84864e-13 -3.72415e-13 0 1.45186e-16
1130 14 0.001 -0.0116075 -0.00303979 -0.0422071 -6.9128e-13 -7.06421e-13 -4.77413e-13 0 1.95753e-16
1523 16 0.001 0.00566947 -0.00384359 -0.0414474 -8.10727e-13 -3.73995e-14 -1.5567e-13 0 6.95339e-17
1524 16 0.001 0.00663508 -0.00380753 -0.041701 -8.27792e-13 -2.76641e-13 -2.65812e-13 0 1.01297e-16
1525 16 0.001 0.00756205 -0.00353391 -0.0419538 -7.80285e-13 -4.93307e-13 -3.75414e-13 0 1.45186e-16
1526 16 0.001 0.00839253 -0.00303979 -0.0422071 -7.13721e-13 -6.97739e-13 -4.75111e-13 0 1.95753e-16
1919 18 0.001 0.0256695 -0.00384359 -0.0414474 -7.76694e-13 -3.23634e-14 -1.65252e-13 0 6.95339e-17
1920 18 0.001 0.0266351 -0.00380753 -0.041701 -8.45773e-13 -2.79642e-13 -2.59529e-13 0 1.01297e-16
1921 18 0.001 0.027562 -0.00353391 -0.0419538 -7.93603e-13 -5.00228e-13 -3.73147e-13 0 1.45186e-16
1922 18 0.001 0.0283925 -0.00303979 -0.0422071 -6.96003e-13 -6.88989e-13 -4.78161e-13 0 1.95753e-16
359 11 0.001 -0.0509253 -0.00235614 -0.0424625 -5.84665e-13 -8.77107e-13 -5.57081e-13 0 2.4221e-16
360 11 0.001 -0.050434 -0.00152585 -0.0427218 -4.02287e-13 -9.94444e-13 -5.87069e-13 0 2.72443e-16
735 12 0.001 -0.0309253 -0.00235611 -0.0424625 -5.84841e-13 -8.44267e-13 -5.47962e-13 0 2.42604e-16
736 12 0.001 -0.030434 -0.00152582 -0.0427218 -3.76291e-13 -9.82229e-13 -5.82448e-13 0 2.72841e-16
1131 14 0.001 -0.0109253 -0.00235611 -0.0424625 -5.90346e-13 -8.43707e-13 -5.46425e-13 0 2.42604e-16
1132 14 0.001 -0.010434 -0.00152582 -0.0427218 -3.69052e-13 -9.75106e-13 -5.85211e-13 0 2.72841e-16
1527 16 0.001 0.0090747 -0.00235611 -0.0424625 -5.55581e-13 -8.47762e-13 -5.49867e-13 0 2.42604e-16
1528 16 0.001 0.00956602 -0.00152582 -0.0427218 -4.15483e-13 -9.73891e-13 -5.81928e-13 0 2.72841e-16
1923 18 0.001 0.0290747 -0.00235611 -0.0424625 -5.83219e-13 -8.51987e-13 -5.46375e-13 0 2.42604e-16
1924 18 0.001 0.029566 -0.00152582 -0.0427218 -3.81024e-13 -9.72688e-13 -5.84752e-13 0 2.72841e-16
353 11 0.001 -0.0561384 -0.00320936 -0.0409339 -6.08491e-13 4.245e-13 -3.99039e-14 0 4.30955e-17
354 11 0.001 -0.0552746 -0.00363991 -0.041192 -7.3978e-13 1.81394e-13 -8.70938e-14 0 5.02386e-17
729 12 0.001 -0.0361383 -0.00320939 -0.0409339 -5.79307e-13 3.67233e-13 -3.34339e-14 0 4.36983e-17
730 12 0.001 -0.0352746 -0.00363993 -0.0411919 -7.5985e-13 1.64172e-13 -7.32928e-14 0 5.07881e-17
1125 14 0.001 -0.0161383 -0.00320939 -0.0409339 -5.64248e-13 3.6765e-13 -3.59579e-14 0 4.36982e-17
1126 14 0.001 -0.0152746 -0.00363993 -0.0411919 -7.57157e-13 1.68874e-13 -7.36899e-14 0 5.07881e-17
1521 16 0.001 0.00386166 -0.00320939 -0.0409339 -5.97388e-13 3.60942e-13 -3.01665e-14 0 4.36982e-17
1522 16 0.001 0.00472541 -0.00363993 -0.0411919 -7.29032e-13 1.72109e-13 -7.96667e-14 0 5.07881e-17
1917 18 0.001 0.0238617 -0.00320939 -0.0409339 -5.99896e-13 3.68255e-13 -2.88608e-14 0 4.36982e-17
1918 18 0.001 0.0247254 -0.00363993 -0.0411919 -7.41571e-13 1.68185e-13 -7.66146e-14 0 5.07881e-17
351 11 0.001 -0.0574185 -0.00178791 -0.0404097 -2.29181e-13 7.38597e-13 -5.9257e-14 0 6.10525e-17
352 11 0.001 -0.0568681 -0.0025789 -0.0406731 -5.20082e-13 5.41639e-13 -1.2097e-14 0 4.65017e-17
727 12 0.001 -0.0374185 -0.00178795 -0.0404097 -2.82067e-13 6.75375e-13 -4.15302e-14 0 6.19494e-17
728 12 0.001 -0.0368681 -0.00257894 -0.0406731 -4.53555e-13 5.71438e-13 -1.12066e-14 0 4.72146e-17
1123 14 0.001 -0.0174185 -0.00178795 -0.0404097 -2.76744e-13 6.78406e-13 -4.28256e-14 0 6.19494e-17
1124 14 0.001 -0.0168681 -0.00257894 -0.0406731 -4.73966e-13 5.62499e-13 -9.74838e-15 0 4.72146e-17
1519 16 0.001 0.00258148 -0.00178795 -0.0404097 -2.57117e-13 6.70334e-13 -4.5838e-14 0 6.19494e-17
1520 16 0.001 0.00313191 -0.00257894 -0.0406731 -4.61361e-13 5.7368e-13 -1.02104e-14 0 4.72146e-17
1915 18 0.001 0.0225815 -0.00178795 -0.0404097 -2.62119e-13 6.7965e-13 -4.35716e-14 0 6.19494e-17
1916 18 0.001 0.0231319 -0.00257894 -0.0406731 -4.52373e-13 5.6188e-13 -1.36744e-14 0 4.72146e-17
350 11 0.001 -0.0577555 -0.00088572 -0.0401441 -8.52937e-14 7.92882e-13 -1.07539e-13 0 8.85791e-17
726 12 0.001 -0.0377555 -0.000885769 -0.0401441 -3.87421e-14 7.97172e-13 -9.80972e-14 0 8.97312e-17
1122 14 0.001 -0.0177555 -0.000885769 -0.0401441 -2.07074e-14 8.01933e-13 -9.69626e-14 0 8.97312e-17
1518 16 0.001 0.0022445 -0.000885769 -0.0401441 -5.56389e-14 8.03632e-13 -9.45124e-14 0 8.97312e-17
1914 18 0.001 0.0222445 -0.000885769 -0.0401441 -5.53552e-14 7.99539e-13 -9.53841e-14 0 8.97312e-17
348 11 0.001 -0.0577202 0.00102392 -0.0396092 3.35369e-13 8.65535e-13 -2.78876e-13 0 1.85023e-16
349 11 0.001 -0.0578582 7.14372e-05 -0.0398771 2.26909e-13 8.55768e-13 -1.90426e-13 0 1.30349e-16
724 12 0.001 -0.0377202 0.00102387 -0.0396092 4.29995e-13 8.25007e-13 -2.64166e-13 0 1.8679e-16
725 12 0.001 -0.0378582 7.13867e-05 -0.039877 1.55842e-13 8.16574e-13 -1.85484e-13 0 1.31804e-16
1120 14 0.001 -0.0177202 0.00102387 -0.0396092 3.70735e-13 8.25785e-13 -2.68686e-13 0 1.8679e-16
1121 14 0.001 -0.0178582 7.13867e-05 -0.039877 1.64137e-13 8.13585e-13 -1.84481e-13 0 1.31804e-16
1516 16 0.001 0.00227982 0.00102387 -0.0396092 3.90578e-13 8.21684e-13 -2.67649e-13 0 1.8679e-16
1517 16 0.001 0.00214184 7.13867e-05 -0.039877 1.74768e-13 8.15124e-13 -1.85358e-13 0 1.31804e-16
1912 18 0.001 0.0222798 0.00102387 -0.0396092 3.77756e-13 8.11583e-13 -2.72961e-13 0 1.8679e-16
1913 18 0.001 0.0221418 7.13867e-05 -0.039877 1.79912e-13 8.21264e-13 -1.82592e-13 0 1.31804e-16
347 11 0.001 -0.0573502 0.00191235 -0.0393412 6.43011e-13 7.65937e-13 -3.64336e-13 0 2.4755e-16
346 11 0.001 -0.0567712 0.0026813 -0.0390737 7.85929e-13 6.74083e-13 -4.25326e-13 0 3.09673e-16
722 12 0.001 -0.0367713 0.00268126 -0.0390736 7.49723e-13 6.45353e-13 -4.22705e-13 0 3.1194e-16
723 12 0.001 -0.0373502 0.0019123 -0.0393412 5.58847e-13 7.49027e-13 -3.597e-13 0 2.49599e-16
1118 14 0.001 -0.0167713 0.00268126 -0.0390736 7.89243e-13 6.5865e-13 -4.10679e-13 0 3.1194e-16
1119 14 0.001 -0.0173502 0.0019123 -0.0393412 5.93752e-13 7.41355e-13 -3.59792e-13 0 2.49599e-16
1515 16 0.001 0.00264981 0.0019123 -0.0393412 5.86428e-13 7.53881e-13 -3.56986e-13 0 2.49599e-16
1514 16 0.001 0.00322872 0.00268126 -0.0390736 7.62428e-13 6.44082e-13 -4.19097e-13 0 3.1194e-16
1910 18 0.001 0.0232287 0.00268126 -0.0390736 7.77417e-13 6.5869e-13 -4.14153e-13 0 3.1194e-16
1911 18 0.001 0.0226498 0.0019123 -0.0393412 5.84674e-13 7.49078e-13 -3.57317e-13 0 2.49599e-16
345 11 0.001 -0.0560195 0.00328275 -0.038807 8.95796e-13 5.17476e-13 -4.70727e-13 0 3.61913e-16
344 11 0.001 -0.0551418 0.0036791 -0.0385413 1.02176e-12 3.23258e-13 -4.61453e-13 0 3.96225e-16
721 12 0.001 -0.0360195 0.00328272 -0.038807 9.22437e-13 5.00518e-13 -4.48711e-13 0 3.64317e-16
720 12 0.001 -0.0351418 0.00367909 -0.0385413 9.70448e-13 3.19848e-13 -4.58291e-13 0 3.98685e-16
1117 14 0.001 -0.0160195 0.00328272 -0.038807 8.72402e-13 4.92411e-13 -4.6062e-13 0 3.64317e-16
1116 14 0.001 -0.0151418 0.00367909 -0.0385413 9.67466e-13 3.26261e-13 -4.59202e-13 0 3.98684e-16
1513 16 0.001 0.00398048 0.00328272 -0.038807 8.88741e-13 4.98088e-13 -4.56834e-13 0 3.64317e-16
1512 16 0.001 0.00485816 0.00367909 -0.0385413 9.76497e-13 3.1753e-13 -4.57036e-13 0 3.98684e-16
1909 18 0.001 0.0239805 0.00328272 -0.038807 8.81774e-13 4.94733e-13 -4.58776e-13 0 3.64317e-16
1908 18 0.001 0.0248582 0.00367909 -0.0385413 9.81863e-13 3.15436e-13 -4.55882e-13 0 3.98684e-16
338 11 0.001 -0.0504051 0.00137656 -0.0369595 4.01025e-13 -6.08969e-13 -7.18751e-14 0 2.5357e-16
714 12 0.001 -0.0304051 0.00137661 -0.0369594 4.20117e-13 -6.42879e-13 -5.47e-14 0 2.55588e-16
1110 14 0.001 -0.0104051 0.00137661 -0.0369594 3.7683e-13 -6.49218e-13 -5.57715e-14 0 2.55588e-16
1506 16 0.001 0.00959489 0.00137661 -0.0369594 4.07405e-13 -6.48792e-13 -5.39412e-14 0 2.55588e-16
1902 18 0.001 0.0295949 0.00137661 -0.0369594 3.90825e-13 -6.4997e-13 -5.39506e-14 0 2.55588e-16
340 11 0.001 -0.0515123 0.00293555 -0.0374864 8.02431e-13 -4.23524e-13 -2.0525e-13 0 3.32732e-16
339 11 0.001 -0.0508606 0.00222568 -0.0372232 5.84869e-13 -5.66843e-13 -1.34088e-13 0 2.9157e-16
716 12 0.001 -0.0315124 0.00293559 -0.0374864 7.75027e-13 -4.01062e-13 -2.00399e-13 0 3.34924e-16
715 12 0.001 -0.0308606 0.00222573 -0.0372231 5.39641e-13 -5.25475e-13 -1.31814e-13 0 2.93666e-16
1111 14 0.001 -0.0108606 0.00222573 -0.0372231 5.80183e-13 -5.03577e-13 -1.32108e-13 0 2.93666e-16
1112 14 0.001 -0.0115124 0.00293559 -0.0374864 7.33175e-13 -4.11382e-13 -2.05255e-13 0 3.34924e-16
1508 16 0.001 0.00848762 0.00293559 -0.0374864 7.62454e-13 -4.16762e-13 -1.99198e-13 0 3.34924e-16
1507 16 0.001 0.0091394 0.00222573 -0.0372231 5.48089e-13 -5.04943e-13 -1.35696e-13 0 2.93666e-16
1904 18 0.001 0.0284876 0.00293559 -0.0374864 7.27532e-13 -4.11207e-13 -2.06817e-13 0 3.34924e-16
1903 18 0.001 0.0291394 0.00222573 -0.0372231 5.74375e-13 -5.06513e-13 -1.31796e-13 0 2.93666e-16
343 11 0.001 -0.054193 0.00384553 -0.0382766 1.01563e-12 1.21425e-13 -4.40718e-13 0 4.08245e-16
342 11 0.001 -0.0532323 0.00377157 -0.0380128 1.00989e-12 -6.01243e-14 -3.73363e-13 0 3.98277e-16
341 11 0.001 -0.0523197 0.0034618 -0.0377495 8.6271e-13 -2.80532e-13 -3.07452e-13 0 3.70784e-16
719 12 0.001 -0.034193 0.00384552 -0.0382766 9.65829e-13 1.26185e-13 -4.36354e-13 0 4.1069e-16
718 12 0.001 -0.0332323 0.00377158 -0.0380128 9.72933e-13 -7.23408e-14 -3.67315e-13 0 4.0066e-16
717 12 0.001 -0.0323198 0.00346182 -0.0377495 8.6203e-13 -2.56252e-13 -2.92871e-13 0 3.73076e-16
1115 14 0.001 -0.014193 0.00384552 -0.0382766 1.00334e-12 1.15396e-13 -4.26603e-13 0 4.1069e-16
1113 14 0.001 -0.0123198 0.00346182 -0.0377495 8.88587e-13 -2.62023e-13 -2.87057e-13 0 3.73076e-16
1114 14 0.001 -0.0132323 0.00377158 -0.0380128 9.46978e-13 -6.09499e-14 -3.74385e-13 0 4.0066e-16
1511 16 0.001 0.00580699 0.00384552 -0.0382766 9.9748e-13 1.29908e-13 -4.27744e-13 0 4.1069e-16
1510 16 0.001 0.00676769 0.00377158 -0.0380128 9.46476e-13 -7.02836e-14 -3.74342e-13 0 4.0066e-16
1509 16 0.001 0.00768024 0.00346182 -0.0377495 8.76157e-13 -2.54414e-13 -2.90425e-13 0 3.73076e-16
1907 18 0.001 0.025807 0.00384552 -0.0382766 9.92227e-13 1.27381e-13 -4.28693e-13 0 4.1069e-16
1906 18 0.001 0.0267677 0.00377158 -0.0380128 9.66232e-13 -6.9922e-14 -3.69043e-13 0 4.0066e-16
1905 18 0.001 0.0276802 0.00346182 -0.0377495 8.72376e-13 -2.51096e-13 -2.92549e-13 0 3.73076e-16
333 11 0.001 -0.0515627 -0.00299099 -0.0356317 -6.43039e-13 -3.83532e-13 -1.4894e-13 0 1.99791e-16
334 11 0.001 -0.0508992 -0.00229334 -0.0358982 -4.09461e-13 -5.69791e-13 -8.14285e-14 0 1.90989e-16
709 12 0.001 -0.0315627 -0.00299095 -0.0356317 -5.46887e-13 -3.81547e-13 -1.50095e-13 0 2.0197e-16
710 12 0.001 -0.0308992 -0.00229329 -0.0358982 -4.34735e-13 -4.96417e-13 -8.62825e-14 0 1.93048e-16
1105 14 0.001 -0.0115627 -0.00299095 -0.0356317 -5.81488e-13 -3.73193e-13 -1.42697e-13 0 2.0197e-16
1106 14 0.001 -0.0108992 -0.00229329 -0.0358982 -4.23763e-13 -5.0043e-13 -8.85625e-14 0 1.93048e-16
1501 16 0.001 0.00843732 -0.00299095 -0.0356317 -5.93154e-13 -3.78355e-13 -1.40436e-13 0 2.0197e-16
1502 16 0.001 0.00910085 -0.00229329 -0.0358982 -4.18166e-13 -5.00736e-13 -8.86251e-14 0 1.93048e-16
1897 18 0.001 0.0284373 -0.00299095 -0.0356317 -6.15294e-13 -3.7222e-13 -1.37868e-13 0 2.0197e-16
1898 18 0.001 0.0291008 -0.00229329 -0.0358982 -3.79038e-13 -5.04672e-13 -9.34733e-14 0 1.93048e-16
335 11 0.001 -0.0504294 -0.00145285 -0.0361644 -3.66192e-13 -5.98009e-13 -4.55988e-14 0 1.9148e-16
336 11 0.001 -0.0501826 -0.000521975 -0.0364301 8.68391e-14 -6.7402e-13 -1.82013e-14 0 2.02064e-16
711 12 0.001 -0.0304293 -0.0014528 -0.0361644 -2.65985e-13 -5.92546e-13 -2.16403e-14 0 1.93462e-16
712 12 0.001 -0.0301826 -0.000521915 -0.0364301 -1.62182e-15 -6.62504e-13 -2.39952e-14 0 2.04017e-16
1107 14 0.001 -0.0104293 -0.0014528 -0.0361644 -2.59615e-13 -5.93086e-13 -2.12781e-14 0 1.93462e-16
1108 14 0.001 -0.0101826 -0.000521915 -0.0364301 -2.90192e-14 -6.63914e-13 -2.31692e-14 0 2.04017e-16
1503 16 0.001 0.00957066 -0.0014528 -0.0361644 -2.59718e-13 -5.91339e-13 -2.17857e-14 0 1.93462e-16
1504 16 0.001 0.00981742 -0.000521915 -0.0364301 -2.63639e-14 -6.6385e-13 -2.31744e-14 0 2.04017e-16
1899 18 0.001 0.0295707 -0.0014528 -0.0361644 -2.94674e-13 -5.89961e-13 -1.83641e-14 0 1.93462e-16
1900 18 0.001 0.0298174 -0.000521915 -0.0364301 -1.82764e-14 -6.65277e-13 -2.37029e-14 0 2.04017e-16
337 11 0.001 -0.0501743 0.000441203 -0.0366951 9.66255e-14 -7.07586e-13 -3.20526e-14 0 2.22992e-16
713 12 0.001 -0.0301743 0.000441262 -0.0366951 1.24386e-13 -6.22251e-13 -2.08814e-14 0 2.24959e-16
1109 14 0.001 -0.0101743 0.000441262 -0.0366951 1.66558e-13 -6.25809e-13 -1.91712e-14 0 2.24959e-16
1505 16 0.001 0.00982569 0.000441262 -0.0366951 1.47837e-13 -6.24833e-13 -1.98433e-14 0 2.24959e-16
1901 18 0.001 0.0298257 0.000441262 -0.0366951 1.62972e-13 -6.27045e-13 -1.93048e-14 0 2.24959e-16
328 11 0.001 -0.0560728 -0.00325543 -0.0343022 -7.4612e-13 4.95345e-13 -3.79198e-13 0 3.21493e-16
329 11 0.001 -0.0552024 -0.00366789 -0.0345672 -8.06155e-13 3.1949e-13 -3.79416e-13 0 2.94954e-16
330 11 0.001 -0.054257 -0.00385164 -0.0348327 -8.28287e-13 1.28119e-13 -3.45486e-13 0 2.66762e-16
331 11 0.001 -0.0532957 -0.00379525 -0.0350988 -8.18709e-13 -4.41912e-14 -2.8862e-13 0 2.39735e-16
332 11 0.001 -0.0523785 -0.00350226 -0.0353652 -7.04351e-13 -2.34677e-13 -2.31032e-13 0 2.16632e-16
704 12 0.001 -0.0360728 -0.00325547 -0.0343022 -6.74425e-13 4.57662e-13 -3.84112e-13 0 3.24578e-16
705 12 0.001 -0.0352023 -0.00366792 -0.0345672 -8.08474e-13 3.11526e-13 -3.5825e-13 0 2.9786e-16
706 12 0.001 -0.0342569 -0.00385165 -0.0348327 -8.23672e-13 1.38149e-13 -3.2783e-13 0 2.69475e-16
707 12 0.001 -0.0332957 -0.00379524 -0.0350987 -6.96618e-13 -4.98036e-14 -3.02679e-13 0 2.42254e-16
708 12 0.001 -0.0323785 -0.00350224 -0.0353652 -7.88952e-13 -2.23703e-13 -1.91825e-13 0 2.18968e-16
1100 14 0.001 -0.0160728 -0.00325547 -0.0343022 -7.10423e-13 4.73369e-13 -3.73318e-13 0 3.24578e-16
1101 14 0.001 -0.0152023 -0.00366792 -0.0345672 -7.73142e-13 3.04468e-13 -3.68259e-13 0 2.9786e-16
1102 14 0.001 -0.0142569 -0.00385165 -0.0348327 -7.99975e-13 1.32026e-13 -3.33951e-13 0 2.69475e-16
1104 14 0.001 -0.0123785 -0.00350224 -0.0353652 -7.19915e-13 -2.24781e-13 -2.09282e-13 0 2.18968e-16
1103 14 0.001 -0.0132957 -0.00379524 -0.0350987 -7.70318e-13 -4.81835e-14 -2.83388e-13 0 2.42254e-16
1496 16 0.001 0.00392723 -0.00325547 -0.0343022 -7.01313e-13 4.62262e-13 -3.77337e-13 0 3.24578e-16
1497 16 0.001 0.00479769 -0.00366792 -0.0345672 -7.75429e-13 3.06148e-13 -3.67494e-13 0 2.9786e-16
1498 16 0.001 0.00574307 -0.00385165 -0.0348327 -8.07436e-13 1.29629e-13 -3.316e-13 0 2.69475e-16
1499 16 0.001 0.00670435 -0.00379524 -0.0350987 -7.72908e-13 -4.34391e-14 -2.83131e-13 0 2.42254e-16
1500 16 0.001 0.00762152 -0.00350224 -0.0353652 -7.0683e-13 -2.2127e-13 -2.12377e-13 0 2.18968e-16
1892 18 0.001 0.0239272 -0.00325547 -0.0343022 -7.55169e-13 4.80469e-13 -3.602e-13 0 3.24578e-16
1893 18 0.001 0.0247977 -0.00366792 -0.0345672 -7.35687e-13 3.07982e-13 -3.78997e-13 0 2.9786e-16
1894 18 0.001 0.0257431 -0.00385165 -0.0348327 -8.16515e-13 1.25427e-13 -3.28732e-13 0 2.69475e-16
1895 18 0.001 0.0267043 -0.00379524 -0.0350987 -7.66673e-13 -4.89211e-14 -2.85445e-13 0 2.42254e-16
1896 18 0.001 0.0276215 -0.00350224 -0.0353652 -7.05191e-13 -2.20857e-13 -2.11488e-13 0 2.18968e-16
327 11 0.001 -0.056814 -0.00263998 -0.0340378 -6.14577e-13 6.20279e-13 -3.69995e-13 0 3.43974e-16
703 12 0.001 -0.0368139 -0.00264003 -0.0340378 -5.82756e-13 5.98229e-13 -3.57846e-13 0 3.47218e-16
1099 14 0.001 -0.0168139 -0.00264003 -0.0340378 -5.89038e-13 5.89956e-13 -3.59166e-13 0 3.47218e-16