ITEM: TIMESTEP
0
ITEM: NUMBER OF ATOMS
1970
ITEM: BOX BOUNDS ff ff ff
-6.0000000000000005e-02 6.0000000000000005e-02
-6.0000000000000001e-03 6.0000000000000001e-03
-5.5000000000000000e-02 5.5000000000000000e-02
ITEM: ATOMS id type radius x y z fx fy fz c_bendingE c_stretchingE
384 11 0.001 -0.0510732 -0.0027265 -0.0492042 -0.0223898 0.0208575 -2.0525e-08 0 2.0976e-06
385 11 0.001 -0.0504896 -0.00191766 -0.0494695 -0.0268538 0.0146699 -2.05252e-08 0 2.0976e-06
760 12 0.001 -0.0310732 -0.0027265 -0.0492042 -0.0223898 0.0208575 -2.0525e-08 0 2.0976e-06
761 12 0.001 -0.0304896 -0.00191766 -0.0494695 -0.0268538 0.0146699 -2.05252e-08 0 2.0976e-06
1156 14 0.001 -0.0110732 -0.0027265 -0.0492042 -0.0223898 0.0208575 -2.0525e-08 0 2.0976e-06
1157 14 0.001 -0.0104896 -0.00191766 -0.0494695 -0.0268538 0.0146699 -2.05252e-08 0 2.0976e-06
1552 16 0.001 0.0089268 -0.0027265 -0.0492042 -0.0223898 0.0208575 -2.0525e-08 0 2.0976e-06
1553 16 0.001 0.00951035 -0.00191766 -0.0494695 -0.0268538 0.0146699 -2.05252e-08 0 2.0976e-06
1948 18 0.001 0.0289268 -0.0027265 -0.0492042 -0.0223898 0.0208575 -2.0525e-08 0 2.0976e-06
1949 18 0.001 0.0295104 -0.00191766 -0.0494695 -0.0268538 0.0146699 -2.05252e-08 0 2.0976e-06
2 2 0.001 -0.05 -4.31175e-17 -0.05 -0.0152998 -0.121763 0.0326376 0 1.0488e-06
386 11 0.001 -0.0501243 -0.000989593 -0.0497347 -0.0296484 0.00757029 -2.0525e-08 0 2.0976e-06
762 12 0.001 -0.0301243 -0.000989593 -0.0497347 -0.0296484 0.00757029 -2.0525e-08 0 2.0976e-06
4 4 0.001 -0.03 -4.31175e-17 -0.05 -0.0152998 -0.121763 0.0326376 0 1.0488e-06
6 6 0.001 -0.01 -4.31175e-17 -0.05 -0.0152998 -0.121763 0.0326376 0 1.0488e-06
1158 14 0.001 -0.0101243 -0.000989593 -0.0497347 -0.0296484 0.00757029 -2.0525e-08 0 2.0976e-06
8 8 0.001 0.01 -4.31175e-17 -0.05 -0.0152998 -0.121763 0.0326376 0 1.0488e-06
1554 16 0.001 0.00987566 -0.000989593 -0.0497347 -0.0296484 0.00757029 -2.0525e-08 0 2.0976e-06
10 10 0.001 0.03 -4.31175e-17 -0.05 -0.0152998 -0.121763 0.0326376 0 1.0488e-06
1950 18 0.001 0.0298757 -0.000989593 -0.0497347 -0.0296484 0.00757029 -2.0525e-08 0 2.0976e-06
378 11 0.001 -0.0565125 -0.00311243 -0.0476127 0.0192206 0.0238097 -2.05251e-08 0 2.0976e-06
379 11 0.001 -0.0556644 -0.00363727 -0.047878 0.0127326 0.0278247 -2.05251e-08 0 2.0976e-06
380 11 0.001 -0.0547128 -0.00393597 -0.0481432 0.00545302 0.0301098 -2.05251e-08 0 2.0976e-06
381 11 0.001 -0.0537169 -0.00398997 -0.0484085 -0.00216561 0.0305229 -2.05251e-08 0 2.0976e-06
382 11 0.001 -0.0527386 -0.0037959 -0.0486737 -0.00964959 0.0290383 -2.05251e-08 0 2.0976e-06
383 11 0.001 -0.0518387 -0.00336583 -0.048939 -0.0165336 0.0257483 -2.05251e-08 0 2.0976e-06
754 12 0.001 -0.0365125 -0.00311243 -0.0476127 0.0192206 0.0238097 -2.05251e-08 0 2.0976e-06
755 12 0.001 -0.0356644 -0.00363727 -0.047878 0.0127326 0.0278247 -2.05251e-08 0 2.0976e-06
756 12 0.001 -0.0347128 -0.00393597 -0.0481432 0.00545302 0.0301098 -2.05251e-08 0 2.0976e-06
757 12 0.001 -0.0337169 -0.00398997 -0.0484085 -0.00216561 0.0305229 -2.05251e-08 0 2.0976e-06
758 12 0.001 -0.0327386 -0.0037959 -0.0486737 -0.00964959 0.0290383 -2.05251e-08 0 2.0976e-06
759 12 0.001 -0.0318387 -0.00336583 -0.048939 -0.0165336 0.0257483 -2.05251e-08 0 2.0976e-06
1150 14 0.001 -0.0165125 -0.00311243 -0.0476127 0.0192206 0.0238097 -2.05251e-08 0 2.0976e-06
1151 14 0.001 -0.0156644 -0.00363727 -0.047878 0.0127326 0.0278247 -2.05251e-08 0 2.0976e-06
1152 14 0.001 -0.0147128 -0.00393597 -0.0481432 0.00545302 0.0301098 -2.05251e-08 0 2.0976e-06
1153 14 0.001 -0.0137169 -0.00398997 -0.0484085 -0.00216561 0.0305229 -2.05251e-08 0 2.0976e-06
1154 14 0.001 -0.0127386 -0.0037959 -0.0486737 -0.00964959 0.0290383 -2.05251e-08 0 2.0976e-06
1155 14 0.001 -0.0118387 -0.00336583 -0.048939 -0.0165336 0.0257483 -2.05251e-08 0 2.0976e-06
1546 16 0.001 0.00348747 -0.00311243 -0.0476127 0.0192206 0.0238097 -2.05251e-08 0 2.0976e-06
1547 16 0.001 0.00433558 -0.00363727 -0.047878 0.0127326 0.0278247 -2.05251e-08 0 2.0976e-06
1548 16 0.001 0.00528718 -0.00393597 -0.0481432 0.00545302 0.0301098 -2.05251e-08 0 2.0976e-06
1549 16 0.001 0.00628309 -0.00398997 -0.0484085 -0.00216561 0.0305229 -2.05251e-08 0 2.0976e-06
1550 16 0.001 0.0072614 -0.0037959 -0.0486737 -0.00964959 0.0290383 -2.05251e-08 0 2.0976e-06
1551 16 0.001 0.00816129 -0.00336583 -0.048939 -0.0165336 0.0257483 -2.05251e-08 0 2.0976e-06
1942 18 0.001 0.0234875 -0.00311243 -0.0476127 0.0192206 0.0238097 -2.05251e-08 0 2.0976e-06
1943 18 0.001 0.0243356 -0.00363727 -0.047878 0.0127326 0.0278247 -2.05251e-08 0 2.0976e-06
1944 18 0.001 0.0252872 -0.00393597 -0.0481432 0.00545302 0.0301098 -2.05251e-08 0 2.0976e-06
1945 18 0.001 0.0262831 -0.00398997 -0.0484085 -0.00216561 0.0305229 -2.05251e-08 0 2.0976e-06
1946 18 0.001 0.0272614 -0.0037959 -0.0486737 -0.00964959 0.0290383 -2.05251e-08 0 2.0976e-06
1947 18 0.001 0.0281613 -0.00336583 -0.048939 -0.0165336 0.0257483 -2.05251e-08 0 2.0976e-06
376 11 0.001 -0.0576971 -0.00152688 -0.0470822 0.0282825 0.0116805 -2.05251e-08 0 2.0976e-06
377 11 0.001 -0.0572044 -0.00239408 -0.0473475 0.0245136 0.0183145 -2.05251e-08 0 2.0976e-06
752 12 0.001 -0.0376971 -0.00152688 -0.0470822 0.0282825 0.0116805 -2.05251e-08 0 2.0976e-06
753 12 0.001 -0.0372044 -0.00239408 -0.0473475 0.0245136 0.0183145 -2.05251e-08 0 2.0976e-06
1148 14 0.001 -0.0176971 -0.00152688 -0.0470822 0.0282825 0.0116805 -2.05251e-08 0 2.0976e-06
1149 14 0.001 -0.0172044 -0.00239408 -0.0473475 0.0245136 0.0183145 -2.05251e-08 0 2.0976e-06
1544 16 0.001 0.00230289 -0.00152688 -0.0470822 0.0282825 0.0116805 -2.05251e-08 0 2.0976e-06
1545 16 0.001 0.00279557 -0.00239408 -0.0473475 0.0245136 0.0183145 -2.05251e-08 0 2.0976e-06
1940 18 0.001 0.0223029 -0.00152688 -0.0470822 0.0282825 0.0116805 -2.05251e-08 0 2.0976e-06
1941 18 0.001 0.0227956 -0.00239408 -0.0473475 0.0245136 0.0183145 -2.05251e-08 0 2.0976e-06
375 11 0.001 -0.0579599 -0.00056476 -0.046817 0.0302931 0.00432036 -2.05251e-08 0 2.0976e-06
751 12 0.001 -0.0379599 -0.00056476 -0.046817 0.0302931 0.00432036 -2.05251e-08 0 2.0976e-06
1147 14 0.001 -0.0179599 -0.00056476 -0.046817 0.0302931 0.00432036 -2.05251e-08 0 2.0976e-06
1543 16 0.001 0.00204007 -0.00056476 -0.046817 0.0302931 0.00432036 -2.05251e-08 0 2.0976e-06
1939 18 0.001 0.0220401 -0.00056476 -0.046817 0.0302931 0.00432036 -2.05251e-08 0 2.0976e-06
373 11 0.001 -0.0577459 0.00140282 -0.0462865 0.0286561 -0.0107315 -2.0525e-08 0 2.0976e-06
374 11 0.001 -0.0579766 0.000432476 -0.0465517 0.0304202 -0.0033084 -2.05251e-08 0 2.0976e-06
749 12 0.001 -0.0377459 0.00140282 -0.0462865 0.0286561 -0.0107315 -2.0525e-08 0 2.0976e-06
750 12 0.001 -0.0379766 0.000432476 -0.0465517 0.0304202 -0.0033084 -2.05251e-08 0 2.0976e-06
1145 14 0.001 -0.0177459 0.00140282 -0.0462865 0.0286561 -0.0107315 -2.0525e-08 0 2.0976e-06
1146 14 0.001 -0.0179766 0.000432476 -0.0465517 0.0304202 -0.0033084 -2.05251e-08 0 2.0976e-06
1541 16 0.001 0.00225406 0.00140282 -0.0462865 0.0286561 -0.0107315 -2.0525e-08 0 2.0976e-06
1542 16 0.001 0.00202345 0.000432476 -0.0465517 0.0304202 -0.0033084 -2.05251e-08 0 2.0976e-06
1937 18 0.001 0.0222541 0.00140282 -0.0462865 0.0286561 -0.0107315 -2.0525e-08 0 2.0976e-06
1938 18 0.001 0.0220234 0.000432476 -0.0465517 0.0304202 -0.0033084 -2.05251e-08 0 2.0976e-06
372 11 0.001 -0.0572824 0.00228596 -0.0460212 0.0251103 -0.0174873 -2.05251e-08 0 2.0976e-06
748 12 0.001 -0.0372824 0.00228596 -0.0460212 0.0251103 -0.0174873 -2.05251e-08 0 2.0976e-06
1144 14 0.001 -0.0172824 0.00228596 -0.0460212 0.0251103 -0.0174873 -2.05251e-08 0 2.0976e-06
1540 16 0.001 0.00271756 0.00228596 -0.0460212 0.0251103 -0.0174873 -2.05251e-08 0 2.0976e-06
1936 18 0.001 0.0227176 0.00228596 -0.0460212 0.0251103 -0.0174873 -2.05251e-08 0 2.0976e-06
370 11 0.001 -0.0557847 0.00357978 -0.0454907 0.0136528 -0.0273849 -2.05251e-08 0 2.0976e-06
371 11 0.001 -0.0566149 0.00302696 -0.045756 0.0200034 -0.023156 -2.05251e-08 0 2.0976e-06
369 11 0.001 -0.0548436 0.00391003 -0.0452255 0.00645344 -0.0299113 -2.05251e-08 0 2.0976e-06
367 11 0.001 -0.0528658 0.00383583 -0.044695 -0.00867649 -0.0293437 -2.05252e-08 0 2.0976e-06
368 11 0.001 -0.05385 0.00399719 -0.0449602 -0.00114719 -0.0305781 -2.0525e-08 0 2.0976e-06
747 12 0.001 -0.0366149 0.00302696 -0.045756 0.0200034 -0.023156 -2.05251e-08 0 2.0976e-06
745 12 0.001 -0.0348436 0.00391003 -0.0452255 0.00645344 -0.0299113 -2.05251e-08 0 2.0976e-06
746 12 0.001 -0.0357847 0.00357978 -0.0454907 0.0136528 -0.0273849 -2.05251e-08 0 2.0976e-06
744 12 0.001 -0.03385 0.00399719 -0.0449602 -0.00114719 -0.0305781 -2.0525e-08 0 2.0976e-06
743 12 0.001 -0.0328658 0.00383583 -0.044695 -0.00867649 -0.0293437 -2.05252e-08 0 2.0976e-06
1143 14 0.001 -0.0166149 0.00302696 -0.045756 0.0200034 -0.023156 -2.05251e-08 0 2.0976e-06
1142 14 0.001 -0.0157847 0.00357978 -0.0454907 0.0136528 -0.0273849 -2.05251e-08 0 2.0976e-06
1140 14 0.001 -0.01385 0.00399719 -0.0449602 -0.00114719 -0.0305781 -2.0525e-08 0 2.0976e-06
1141 14 0.001 -0.0148436 0.00391003 -0.0452255 0.00645344 -0.0299113 -2.05251e-08 0 2.0976e-06
1139 14 0.001 -0.0128658 0.00383583 -0.044695 -0.00867649 -0.0293437 -2.05252e-08 0 2.0976e-06
1538 16 0.001 0.00421529 0.00357978 -0.0454907 0.0136528 -0.0273849 -2.05251e-08 0 2.0976e-06
1539 16 0.001 0.00338514 0.00302696 -0.045756 0.0200034 -0.023156 -2.05251e-08 0 2.0976e-06
1537 16 0.001 0.0051564 0.00391003 -0.0452255 0.00645344 -0.0299113 -2.05251e-08 0 2.0976e-06
1535 16 0.001 0.0071342 0.00383583 -0.044695 -0.00867649 -0.0293437 -2.05252e-08 0 2.0976e-06
1536 16 0.001 0.00614996 0.00399719 -0.0449602 -0.00114719 -0.0305781 -2.0525e-08 0 2.0976e-06
1935 18 0.001 0.0233851 0.00302696 -0.045756 0.0200034 -0.023156 -2.05251e-08 0 2.0976e-06
1933 18 0.001 0.0251564 0.00391003 -0.0452255 0.00645344 -0.0299113 -2.05251e-08 0 2.0976e-06
1934 18 0.001 0.0242153 0.00357978 -0.0454907 0.0136528 -0.0273849 -2.05251e-08 0 2.0976e-06
1932 18 0.001 0.02615 0.00399719 -0.0449602 -0.00114719 -0.0305781 -2.0525e-08 0 2.0976e-06
1931 18 0.001 0.0271342 0.00383583 -0.044695 -0.00867649 -0.0293437 -2.05252e-08 0 2.0976e-06
361 11 0.001 -0.0500935 -0.000859882 -0.0431034 -0.0298842 0.00657801 -2.0525e-08 0 2.0976e-06
737 12 0.001 -0.0300935 -0.000859882 -0.0431034 -0.0298842 0.00657801 -2.0525e-08 0 2.0976e-06
1133 14 0.001 -0.0100935 -0.000859882 -0.0431034 -0.0298842 0.00657801 -2.0525e-08 0 2.0976e-06
1529 16 0.001 0.00990648 -0.000859882 -0.0431034 -0.0298842 0.00657801 -2.0525e-08 0 2.0976e-06
1925 18 0.001 0.0299065 -0.000859882 -0.0431034 -0.0298842 0.00657801 -2.0525e-08 0 2.0976e-06
362 11 0.001 -0.0500022 0.000133306 -0.0433687 -0.0305826 -0.00101977 -2.05252e-08 0 2.0976e-06
363 11 0.001 -0.0501595 0.0011182 -0.043634 -0.0293796 -0.00855416 -2.0525e-08 0 2.0976e-06
738 12 0.001 -0.0300022 0.000133306 -0.0433687 -0.0305826 -0.00101977 -2.05252e-08 0 2.0976e-06
739 12 0.001 -0.0301595 0.0011182 -0.043634 -0.0293796 -0.00855416 -2.0525e-08 0 2.0976e-06
1134 14 0.001 -0.0100022 0.000133306 -0.0433687 -0.0305826 -0.00101977 -2.05252e-08 0 2.0976e-06
1135 14 0.001 -0.0101595 0.0011182 -0.043634 -0.0293796 -0.00855416 -2.0525e-08 0 2.0976e-06
1530 16 0.001 0.00999778 0.000133306 -0.0433687 -0.0305826 -0.00101977 -2.05252e-08 0 2.0976e-06
1531 16 0.001 0.00984052 0.0011182 -0.043634 -0.0293796 -0.00855416 -2.0525e-08 0 2.0976e-06
1926 18 0.001 0.0299978 0.000133306 -0.0433687 -0.0305826 -0.00101977 -2.05252e-08 0 2.0976e-06
1927 18 0.001 0.0298405 0.0011182 -0.043634 -0.0293796 -0.00855416 -2.0525e-08 0 2.0976e-06
365 11 0.001 -0.0511657 0.00282253 -0.0441645 -0.0216822 -0.0215921 -2.05251e-08 0 2.0976e-06
364 11 0.001 -0.0505555 0.00203358 -0.0438992 -0.02635 -0.0155567 -2.05251e-08 0 2.0976e-06
740 12 0.001 -0.0305555 0.00203358 -0.0438992 -0.02635 -0.0155567 -2.05251e-08 0 2.0976e-06
741 12 0.001 -0.0311657 0.00282253 -0.0441645 -0.0216822 -0.0215921 -2.05251e-08 0 2.0976e-06
1136 14 0.001 -0.0105555 0.00203358 -0.0438992 -0.02635 -0.0155567 -2.05251e-08 0 2.0976e-06
1137 14 0.001 -0.0111657 0.00282253 -0.0441645 -0.0216822 -0.0215921 -2.05251e-08 0 2.0976e-06
1533 16 0.001 0.00883431 0.00282253 -0.0441645 -0.0216822 -0.0215921 -2.05251e-08 0 2.0976e-06
1532 16 0.001 0.00944449 0.00203358 -0.0438992 -0.02635 -0.0155567 -2.05251e-08 0 2.0976e-06
1928 18 0.001 0.0294445 0.00203358 -0.0438992 -0.02635 -0.0155567 -2.05251e-08 0 2.0976e-06
1929 18 0.001 0.0288343 0.00282253 -0.0441645 -0.0216822 -0.0215921 -2.05251e-08 0 2.0976e-06
366 11 0.001 -0.0519521 0.00343599 -0.0444297 -0.0156664 -0.026285 -2.0525e-08 0 2.0976e-06
742 12 0.001 -0.0319521 0.00343599 -0.0444297 -0.0156664 -0.026285 -2.0525e-08 0 2.0976e-06
1138 14 0.001 -0.0119521 0.00343599 -0.0444297 -0.0156664 -0.026285 -2.0525e-08 0 2.0976e-06
1534 16 0.001 0.00804792 0.00343599 -0.0444297 -0.0156664 -0.026285 -2.0525e-08 0 2.0976e-06
1930 18 0.001 0.0280479 0.00343599 -0.0444297 -0.0156664 -0.026285 -2.0525e-08 0 2.0976e-06
355 11 0.001 -0.0545813 -0.00395754 -0.0415119 0.00444654 0.0302748 -2.05251e-08 0 2.0976e-06
356 11 0.001 -0.0535841 -0.00397832 -0.0417772 -0.00318162 0.0304337 -2.05251e-08 0 2.0976e-06
357 11 0.001 -0.0526128 -0.00375175 -0.0420424 -0.010612 0.0287005 -2.05251e-08 0 2.0976e-06
358 11 0.001 -0.0517277 -0.00329194 -0.0423077 -0.0173826 0.025183 -2.05251e-08 0 2.0976e-06
731 12 0.001 -0.0345813 -0.00395754 -0.0415119 0.00444654 0.0302748 -2.05251e-08 0 2.0976e-06
732 12 0.001 -0.0335841 -0.00397832 -0.0417772 -0.00318162 0.0304337 -2.05251e-08 0 2.0976e-06
733 12 0.001 -0.0326128 -0.00375175 -0.0420424 -0.010612 0.0287005 -2.05251e-08 0 2.0976e-06
734 12 0.001 -0.0317277 -0.00329194 -0.0423077 -0.0173826 0.025183 -2.05251e-08 0 2.0976e-06
1127 14 0.001 -0.0145813 -0.00395754 -0.0415119 0.00444654 0.0302748 -2.05251e-08 0 2.0976e-06
1128 14 0.001 -0.0135841 -0.00397832 -0.0417772 -0.00318162 0.0304337 -2.05251e-08 0 2.0976e-06
1129 14 0.001 -0.0126128 -0.00375175 -0.0420424 -0.010612 0.0287005 -2.05251e-08 0 2.0976e-06
1130 14 0.001 -0.0117277 -0.00329194 -0.0423077 -0.0173826 0.025183 -2.05251e-08 0 2.0976e-06
1523 16 0.001 0.00541875 -0.00395754 -0.0415119 0.00444654 0.0302748 -2.05251e-08 0 2.0976e-06
1524 16 0.001 0.0064159 -0.00397832 -0.0417772 -0.00318162 0.0304337 -2.05251e-08 0 2.0976e-06
1525 16 0.001 0.0073872 -0.00375175 -0.0420424 -0.010612 0.0287005 -2.05251e-08 0 2.0976e-06
1526 16 0.001 0.00827226 -0.00329194 -0.0423077 -0.0173826 0.025183 -2.05251e-08 0 2.0976e-06
1919 18 0.001 0.0254187 -0.00395754 -0.0415119 0.00444654 0.0302748 -2.05251e-08 0 2.0976e-06
1920 18 0.001 0.0264159 -0.00397832 -0.0417772 -0.00318162 0.0304337 -2.05251e-08 0 2.0976e-06
1921 18 0.001 0.0273872 -0.00375175 -0.0420424 -0.010612 0.0287005 -2.05251e-08 0 2.0976e-06
1922 18 0.001 0.0282723 -0.00329194 -0.0423077 -0.0173826 0.025183 -2.05251e-08 0 2.0976e-06
359 11 0.001 -0.050984 -0.00262745 -0.0425729 -0.0230724 0.0200997 -2.05251e-08 0 2.0976e-06
360 11 0.001 -0.0504277 -0.00179961 -0.0428382 -0.0273278 0.0137668 -2.05251e-08 0 2.0976e-06
735 12 0.001 -0.030984 -0.00262745 -0.0425729 -0.0230724 0.0200997 -2.05251e-08 0 2.0976e-06
736 12 0.001 -0.0304277 -0.00179961 -0.0428382 -0.0273278 0.0137668 -2.05251e-08 0 2.0976e-06
1131 14 0.001 -0.010984 -0.00262745 -0.0425729 -0.0230724 0.0200997 -2.05251e-08 0 2.0976e-06
1132 14 0.001 -0.0104277 -0.00179961 -0.0428382 -0.0273278 0.0137668 -2.05251e-08 0 2.0976e-06
1527 16 0.001 0.00901604 -0.00262745 -0.0425729 -0.0230724 0.0200997 -2.05251e-08 0 2.0976e-06
1528 16 0.001 0.00957231 -0.00179961 -0.0428382 -0.0273278 0.0137668 -2.05251e-08 0 2.0976e-06
1923 18 0.001 0.029016 -0.00262745 -0.0425729 -0.0230724 0.0200997 -2.05251e-08 0 2.0976e-06
1924 18 0.001 0.0295723 -0.00179961 -0.0428382 -0.0273278 0.0137668 -2.05251e-08 0 2.0976e-06
353 11 0.001 -0.0564074 -0.00319443 -0.0409814 0.0184164 0.0244371 -2.05251e-08 0 2.0976e-06
354 11 0.001 -0.0555423 -0.00369072 -0.0412467 0.0117982 0.0282336 -2.05251e-08 0 2.0976e-06
729 12 0.001 -0.0364074 -0.00319443 -0.0409814 0.0184164 0.0244371 -2.05251e-08 0 2.0976e-06
730 12 0.001 -0.0355423 -0.00369072 -0.0412467 0.0117982 0.0282336 -2.05251e-08 0 2.0976e-06
1125 14 0.001 -0.0164074 -0.00319443 -0.0409814 0.0184164 0.0244371 -2.05251e-08 0 2.0976e-06
1126 14 0.001 -0.0155423 -0.00369072 -0.0412467 0.0117982 0.0282336 -2.05251e-08 0 2.0976e-06
1521 16 0.001 0.00359259 -0.00319443 -0.0409814 0.0184164 0.0244371 -2.05251e-08 0 2.0976e-06
1522 16 0.001 0.00445773 -0.00369072 -0.0412467 0.0117982 0.0282336 -2.05251e-08 0 2.0976e-06
1917 18 0.001 0.0235926 -0.00319443 -0.0409814 0.0184164 0.0244371 -2.05251e-08 0 2.0976e-06
1918 18 0.001 0.0244577 -0.00369072 -0.0412467 0.0117982 0.0282336 -2.05251e-08 0 2.0976e-06
351 11 0.001 -0.0576442 -0.00164925 -0.0404509 0.0278775 0.0126166 -2.05251e-08 0 2.0976e-06
352 11 0.001 -0.0571229 -0.00249954 -0.0407162 0.0238896 0.0191212 -2.05251e-08 0 2.0976e-06
727 12 0.001 -0.0376442 -0.00164925 -0.0404509 0.0278775 0.0126166 -2.05251e-08 0 2.0976e-06
728 12 0.001 -0.0371229 -0.00249954 -0.0407162 0.0238896 0.0191212 -2.05251e-08 0 2.0976e-06
1123 14 0.001 -0.0176442 -0.00164925 -0.0404509 0.0278775 0.0126166 -2.05251e-08 0 2.0976e-06
1124 14 0.001 -0.0171229 -0.00249954 -0.0407162 0.0238896 0.0191212 -2.05251e-08 0 2.0976e-06
1519 16 0.001 0.00235583 -0.00164925 -0.0404509 0.0278775 0.0126166 -2.05251e-08 0 2.0976e-06
1520 16 0.001 0.00287713 -0.00249954 -0.0407162 0.0238896 0.0191212 -2.05251e-08 0 2.0976e-06
1915 18 0.001 0.0223558 -0.00164925 -0.0404509 0.0278775 0.0126166 -2.05251e-08 0 2.0976e-06
1916 18 0.001 0.0228771 -0.00249954 -0.0407162 0.0238896 0.0191212 -2.05251e-08 0 2.0976e-06
350 11 0.001 -0.0579389 -0.000696416 -0.0401857 0.0301323 0.00532752 -2.0525e-08 0 2.0976e-06
726 12 0.001 -0.0379389 -0.000696416 -0.0401857 0.0301323 0.00532752 -2.0525e-08 0 2.0976e-06
1122 14 0.001 -0.0179389 -0.000696416 -0.0401857 0.0301323 0.00532752 -2.0525e-08 0 2.0976e-06
1518 16 0.001 0.00206109 -0.000696416 -0.0401857 0.0301323 0.00532752 -2.0525e-08 0 2.0976e-06
1914 18 0.001 0.0220611 -0.000696416 -0.0401857 0.0301323 0.00532752 -2.0525e-08 0 2.0976e-06
348 11 0.001 -0.0577906 0.00127721 -0.0396552 0.0289978 -0.0097705 -2.05251e-08 0 2.0976e-06
349 11 0.001 -0.0579888 0.000299712 -0.0399204 0.0305136 -0.00229277 -2.05251e-08 0 2.0976e-06
724 12 0.001 -0.0377906 0.00127721 -0.0396552 0.0289978 -0.0097705 -2.05251e-08 0 2.0976e-06
725 12 0.001 -0.0379888 0.000299712 -0.0399204 0.0305136 -0.00229277 -2.05251e-08 0 2.0976e-06
1120 14 0.001 -0.0177906 0.00127721 -0.0396552 0.0289978 -0.0097705 -2.05251e-08 0 2.0976e-06
1121 14 0.001 -0.0179888 0.000299712 -0.0399204 0.0305136 -0.00229277 -2.05251e-08 0 2.0976e-06
1516 16 0.001 0.00220939 0.00127721 -0.0396552 0.0289978 -0.0097705 -2.05251e-08 0 2.0976e-06
1517 16 0.001 0.00201124 0.000299712 -0.0399204 0.0305136 -0.00229277 -2.05251e-08 0 2.0976e-06
1912 18 0.001 0.0222094 0.00127721 -0.0396552 0.0289978 -0.0097705 -2.05251e-08 0 2.0976e-06
1913 18 0.001 0.0220112 0.000299712 -0.0399204 0.0305136 -0.00229277 -2.05251e-08 0 2.0976e-06
347 11 0.001 -0.0573568 0.00217529 -0.0393899 0.0256792 -0.0166408 -2.05251e-08 0 2.0976e-06
346 11 0.001 -0.0567143 0.00293814 -0.0391247 0.020764 -0.0224765 -2.05251e-08 0 2.0976e-06
722 12 0.001 -0.0367143 0.00293814 -0.0391247 0.020764 -0.0224765 -2.05251e-08 0 2.0976e-06
723 12 0.001 -0.0373568 0.00217529 -0.0393899 0.0256792 -0.0166408 -2.05251e-08 0 2.0976e-06
1118 14 0.001 -0.0167143 0.00293814 -0.0391247 0.020764 -0.0224765 -2.05251e-08 0 2.0976e-06
1119 14 0.001 -0.0173568 0.00217529 -0.0393899 0.0256792 -0.0166408 -2.05251e-08 0 2.0976e-06
1515 16 0.001 0.0026432 0.00217529 -0.0393899 0.0256792 -0.0166408 -2.05251e-08 0 2.0976e-06
1514 16 0.001 0.00328572 0.00293814 -0.0391247 0.020764 -0.0224765 -2.05251e-08 0 2.0976e-06
1910 18 0.001 0.0232857 0.00293814 -0.0391247 0.020764 -0.0224765 -2.05251e-08 0 2.0976e-06
1911 18 0.001 0.0226432 0.00217529 -0.0393899 0.0256792 -0.0166408 -2.05251e-08 0 2.0976e-06
345 11 0.001 -0.055903 0.00351831 -0.0388594 0.0145579 -0.0269147 -2.0525e-08 0 2.0976e-06
344 11 0.001 -0.0549734 0.00387975 -0.0385942 0.00744669 -0.0296797 -2.05252e-08 0 2.0976e-06
720 12 0.001 -0.0349734 0.00387975 -0.0385942 0.00744669 -0.0296797 -2.05252e-08 0 2.0976e-06
721 12 0.001 -0.035903 0.00351831 -0.0388594 0.0145579 -0.0269147 -2.0525e-08 0 2.0976e-06
1117 14 0.001 -0.015903 0.00351831 -0.0388594 0.0145579 -0.0269147 -2.0525e-08 0 2.0976e-06
1116 14 0.001 -0.0149734 0.00387975 -0.0385942 0.00744669 -0.0296797 -2.05252e-08 0 2.0976e-06
1513 16 0.001 0.00409698 0.00351831 -0.0388594 0.0145579 -0.0269147 -2.0525e-08 0 2.0976e-06
1512 16 0.001 0.00502656 0.00387975 -0.0385942 0.00744669 -0.0296797 -2.05252e-08 0 2.0976e-06
1908 18 0.001 0.0250266 0.00387975 -0.0385942 0.00744669 -0.0296797 -2.05252e-08 0 2.0976e-06
1909 18 0.001 0.024097 0.00351831 -0.0388594 0.0145579 -0.0269147 -2.0525e-08 0 2.0976e-06
338 11 0.001 -0.0501989 0.00124557 -0.0370027 -0.0290782 -0.00952852 -2.0525e-08 0 2.0976e-06
714 12 0.001 -0.0301989 0.00124557 -0.0370027 -0.0290782 -0.00952852 -2.0525e-08 0 2.0976e-06
1110 14 0.001 -0.0101989 0.00124557 -0.0370027 -0.0290782 -0.00952852 -2.0525e-08 0 2.0976e-06
1506 16 0.001 0.00980112 0.00124557 -0.0370027 -0.0290782 -0.00952852 -2.0525e-08 0 2.0976e-06
1902 18 0.001 0.0298011 0.00124557 -0.0370027 -0.0290782 -0.00952852 -2.0525e-08 0 2.0976e-06
340 11 0.001 -0.0512613 0.00291542 -0.0375332 -0.0209506 -0.0223027 -2.0525e-08 0 2.0976e-06
339 11 0.001 -0.0506252 0.00214725 -0.0372679 -0.025817 -0.0164262 -2.05252e-08 0 2.0976e-06
715 12 0.001 -0.0306252 0.00214725 -0.0372679 -0.025817 -0.0164262 -2.05252e-08 0 2.0976e-06
716 12 0.001 -0.0312613 0.00291542 -0.0375332 -0.0209506 -0.0223027 -2.0525e-08 0 2.0976e-06
1111 14 0.001 -0.0106252 0.00214725 -0.0372679 -0.025817 -0.0164262 -2.05252e-08 0 2.0976e-06
1112 14 0.001 -0.0112613 0.00291542 -0.0375332 -0.0209506 -0.0223027 -2.0525e-08 0 2.0976e-06
1508 16 0.001 0.00873867 0.00291542 -0.0375332 -0.0209506 -0.0223027 -2.0525e-08 0 2.0976e-06
1507 16 0.001 0.00937481 0.00214725 -0.0372679 -0.025817 -0.0164262 -2.05252e-08 0 2.0976e-06
1903 18 0.001 0.0293748 0.00214725 -0.0372679 -0.025817 -0.0164262 -2.05252e-08 0 2.0976e-06
1904 18 0.001 0.0287387 0.00291542 -0.0375332 -0.0209506 -0.0223027 -2.0525e-08 0 2.0976e-06
342 11 0.001 -0.0529943 0.0038715 -0.0380637 -0.00769375 -0.0296166 -2.0525e-08 0 2.0976e-06
343 11 0.001 -0.0539833 0.00399997 -0.0383289 -0.000127495 -0.0305993 -2.0525e-08 0 2.0976e-06
341 11 0.001 -0.0520677 0.00350233 -0.0377984 -0.0147817 -0.0267925 -2.05252e-08 0 2.0976e-06
719 12 0.001 -0.0339833 0.00399997 -0.0383289 -0.000127495 -0.0305993 -2.0525e-08 0 2.0976e-06
717 12 0.001 -0.0320677 0.00350233 -0.0377984 -0.0147817 -0.0267925 -2.05252e-08 0 2.0976e-06
718 12 0.001 -0.0329943 0.0038715 -0.0380637 -0.00769375 -0.0296166 -2.0525e-08 0 2.0976e-06
1115 14 0.001 -0.0139833 0.00399997 -0.0383289 -0.000127495 -0.0305993 -2.0525e-08 0 2.0976e-06
1113 14 0.001 -0.0120677 0.00350233 -0.0377984 -0.0147817 -0.0267925 -2.05252e-08 0 2.0976e-06
1114 14 0.001 -0.0129943 0.0038715 -0.0380637 -0.00769375 -0.0296166 -2.0525e-08 0 2.0976e-06
1510 16 0.001 0.00700573 0.0038715 -0.0380637 -0.00769375 -0.0296166 -2.0525e-08 0 2.0976e-06
1511 16 0.001 0.00601667 0.00399997 -0.0383289 -0.000127495 -0.0305993 -2.0525e-08 0 2.0976e-06
1509 16 0.001 0.00793227 0.00350233 -0.0377984 -0.0147817 -0.0267925 -2.05252e-08 0 2.0976e-06
1907 18 0.001 0.0260167 0.00399997 -0.0383289 -0.000127495 -0.0305993 -2.0525e-08 0 2.0976e-06
1905 18 0.001 0.0279323 0.00350233 -0.0377984 -0.0147817 -0.0267925 -2.05252e-08 0 2.0976e-06
1906 18 0.001 0.0270057 0.0038715 -0.0380637 -0.00769375 -0.0296166 -2.0525e-08 0 2.0976e-06
332 11 0.001 -0.0524885 -0.00370344 -0.0354111 -0.0115626 0.0283309 -2.05251e-08 0 2.0976e-06
333 11 0.001 -0.0516193 -0.00321438 -0.0356764 -0.0182122 0.0245897 -2.05251e-08 0 2.0976e-06
708 12 0.001 -0.0324885 -0.00370344 -0.0354111 -0.0115626 0.0283309 -2.05251e-08 0 2.0976e-06
709 12 0.001 -0.0316193 -0.00321438 -0.0356764 -0.0182122 0.0245897 -2.05251e-08 0 2.0976e-06
1104 14 0.001 -0.0124885 -0.00370344 -0.0354111 -0.0115626 0.0283309 -2.05251e-08 0 2.0976e-06
1105 14 0.001 -0.0116193 -0.00321438 -0.0356764 -0.0182122 0.0245897 -2.05251e-08 0 2.0976e-06
1500 16 0.001 0.00751147 -0.00370344 -0.0354111 -0.0115626 0.0283309 -2.05251e-08 0 2.0976e-06
1501 16 0.001 0.00838071 -0.00321438 -0.0356764 -0.0182122 0.0245897 -2.05251e-08 0 2.0976e-06
1896 18 0.001 0.0275115 -0.00370344 -0.0354111 -0.0115626 0.0283309 -2.05251e-08 0 2.0976e-06
1897 18 0.001 0.0283807 -0.00321438 -0.0356764 -0.0182122 0.0245897 -2.05251e-08 0 2.0976e-06
334 11 0.001 -0.0508981 -0.00252548 -0.0359416 -0.0237295 0.0193196 -2.05251e-08 0 2.0976e-06
335 11 0.001 -0.0503697 -0.00167956 -0.0362069 -0.0277714 0.0128484 -2.05251e-08 0 2.0976e-06
710 12 0.001 -0.0308981 -0.00252548 -0.0359416 -0.0237295 0.0193196 -2.05251e-08 0 2.0976e-06
711 12 0.001 -0.0303697 -0.00167956 -0.0362069 -0.0277714 0.0128484 -2.05251e-08 0 2.0976e-06
1106 14 0.001 -0.0108981 -0.00252548 -0.0359416 -0.0237295 0.0193196 -2.05251e-08 0 2.0976e-06
1107 14 0.001 -0.0103697 -0.00167956 -0.0362069 -0.0277714 0.0128484 -2.05251e-08 0 2.0976e-06
1502 16 0.001 0.00910193 -0.00252548 -0.0359416 -0.0237295 0.0193196 -2.05251e-08 0 2.0976e-06
1503 16 0.001 0.0096303 -0.00167956 -0.0362069 -0.0277714 0.0128484 -2.05251e-08 0 2.0976e-06
1898 18 0.001 0.0291019 -0.00252548 -0.0359416 -0.0237295 0.0193196 -2.05251e-08 0 2.0976e-06
1899 18 0.001 0.0296303 -0.00167956 -0.0362069 -0.0277714 0.0128484 -2.05251e-08 0 2.0976e-06
336 11 0.001 -0.050067 -0.000729215 -0.0364721 -0.0300868 0.00557842 -2.05251e-08 0 2.0976e-06
712 12 0.001 -0.030067 -0.000729215 -0.0364721 -0.0300868 0.00557842 -2.05251e-08 0 2.0976e-06
1108 14 0.001 -0.010067 -0.000729215 -0.0364721 -0.0300868 0.00557842 -2.05251e-08 0 2.0976e-06
1504 16 0.001 0.00993297 -0.000729215 -0.0364721 -0.0300868 0.00557842 -2.05251e-08 0 2.0976e-06
1900 18 0.001 0.029933 -0.000729215 -0.0364721 -0.0300868 0.00557842 -2.05251e-08 0 2.0976e-06
337 11 0.001 -0.0500089 0.000266463 -0.0367374 -0.0305316 -0.00203841 -2.05251e-08 0 2.0976e-06
713 12 0.001 -0.0300089 0.000266463 -0.0367374 -0.0305316 -0.00203841 -2.05251e-08 0 2.0976e-06
1109 14 0.001 -0.0100089 0.000266463 -0.0367374 -0.0305316 -0.00203841 -2.05251e-08 0 2.0976e-06
1505 16 0.001 0.00999111 0.000266463 -0.0367374 -0.0305316 -0.00203841 -2.05251e-08 0 2.0976e-06
1901 18 0.001 0.0299911 0.000266463 -0.0367374 -0.0305316 -0.00203841 -2.05251e-08 0 2.0976e-06
328 11 0.001 -0.0562996 -0.00327289 -0.0343501 0.0175918 0.0250373 -2.05251e-08 0 2.0976e-06
329 11 0.001 -0.0554184 -0.00374006 -0.0346154 0.0108508 0.0286111 -2.05251e-08 0 2.0976e-06
330 11 0.001 -0.054449 -0.00397472 -0.0348806 0.00343512 0.0304062 -2.05251e-08 0 2.0976e-06
331 11 0.001 -0.0534517 -0.00396225 -0.0351459 -0.0041941 0.0303108 -2.05251e-08 0 2.0976e-06
704 12 0.001 -0.0362996 -0.00327289 -0.0343501 0.0175918 0.0250373 -2.05251e-08 0 2.0976e-06
705 12 0.001 -0.0354184 -0.00374006 -0.0346154 0.0108508 0.0286111 -2.05251e-08 0 2.0976e-06
706 12 0.001 -0.034449 -0.00397472 -0.0348806 0.00343512 0.0304062 -2.05251e-08 0 2.0976e-06
707 12 0.001 -0.0334517 -0.00396225 -0.0351459 -0.0041941 0.0303108 -2.05251e-08 0 2.0976e-06
1100 14 0.001 -0.0162996 -0.00327289 -0.0343501 0.0175918 0.0250373 -2.05251e-08 0 2.0976e-06
1101 14 0.001 -0.0154184 -0.00374006 -0.0346154 0.0108508 0.0286111 -2.05251e-08 0 2.0976e-06
1102 14 0.001 -0.014449 -0.00397472 -0.0348806 0.00343512 0.0304062 -2.05251e-08 0 2.0976e-06
1103 14 0.001 -0.0134517 -0.00396225 -0.0351459 -0.0041941 0.0303108 -2.05251e-08 0 2.0976e-06
1496 16 0.001 0.00370039 -0.00327289 -0.0343501 0.0175918 0.0250373 -2.05251e-08 0 2.0976e-06
1497 16 0.001 0.00458158 -0.00374006 -0.0346154 0.0108508 0.0286111 -2.05251e-08 0 2.0976e-06
1498 16 0.001 0.00555096 -0.00397472 -0.0348806 0.00343512 0.0304062 -2.05251e-08 0 2.0976e-06
1499 16 0.001 0.00654826 -0.00396225 -0.0351459 -0.0041941 0.0303108 -2.05251e-08 0 2.0976e-06
1892 18 0.001 0.0237004 -0.00327289 -0.0343501 0.0175918 0.0250373 -2.05251e-08 0 2.0976e-06
1893 18 0.001 0.0245816 -0.00374006 -0.0346154 0.0108508 0.0286111 -2.05251e-08 0 2.0976e-06
1894 18 0.001 0.025551 -0.00397472 -0.0348806 0.00343512 0.0304062 -2.05251e-08 0 2.0976e-06
1895 18 0.001 0.0265483 -0.00396225 -0.0351459 -0.0041941 0.0303108 -2.05251e-08 0 2.0976e-06
327 11 0.001 -0.0570378 -0.00260223 -0.0340849 0.0232391 0.0199068 -2.0525e-08 0 2.0976e-06
703 12 0.001 -0.0370378 -0.00260223 -0.0340849 0.0232391 0.0199068 -2.0525e-08 0 2.0976e-06
1099 14 0.001 -0.0170378 -0.00260223 -0.0340849 0.0232391 0.0199068 -2.0525e-08 0 2.0976e-06
1495 16 0.001 0.00296217 -0.00260223 -0.0340849 0.0232391 0.0199068 -2.0525e-08 0 2.0976e-06
1891 18 0.001 0.0229622 -0.00260223 -0.0340849 0.0232391 0.0199068 -2.0525e-08 0 2.0976e-06
326 11 0.001 -0.0575872 -0.00176978 -0.0338196 0.0274416 0.0135386 -2.05251e-08 0 2.0976e-06
702 12 0.001 -0.0375872 -0.00176978 -0.0338196 0.0274416 0.0135386 -2.05251e-08 0 2.0976e-06
1098 14 0.001 -0.0175872 -0.00176978 -0.0338196 0.0274416 0.0135386 -2.05251e-08 0 2.0976e-06
1494 16 0.001 0.00241282 -0.00176978 -0.0338196 0.0274416 0.0135386 -2.05251e-08 0 2.0976e-06
1890 18 0.001 0.0224128 -0.00176978 -0.0338196 0.0274416 0.0135386 -2.05251e-08 0 2.0976e-06
325 11 0.001 -0.0579135 -0.000827299 -0.0335544 0.029938 0.00632875 -2.05251e-08 0 2.0976e-06
701 12 0.001 -0.0379135 -0.000827299 -0.0335544 0.029938 0.00632875 -2.05251e-08 0 2.0976e-06
1097 14 0.001 -0.0179135 -0.000827299 -0.0335544 0.029938 0.00632875 -2.05251e-08 0 2.0976e-06
1493 16 0.001 0.00208649 -0.000827299 -0.0335544 0.029938 0.00632875 -2.05251e-08 0 2.0976e-06
1889 18 0.001 0.0220865 -0.000827299 -0.0335544 0.029938 0.00632875 -2.05251e-08 0 2.0976e-06
323 11 0.001 -0.0578311 0.00115017 -0.0330239 0.0293073 -0.00879868 -2.05251e-08 0 2.0976e-06
324 11 0.001 -0.0579965 0.000166615 -0.0332891 0.030573 -0.00127458 -2.05251e-08 0 2.0976e-06