ITEM: TIMESTEP
6500000
ITEM: NUMBER OF ATOMS
1970
ITEM: BOX BOUNDS ff ff ff
-6.0000000000000005e-02 6.0000000000000005e-02
-6.0000000000000001e-03 6.0000000000000001e-03
-5.5000000000000000e-02 5.5000000000000000e-02
ITEM: ATOMS id type radius x y z fx fy fz c_bendingE c_stretchingE
384 11 0.001 -0.0508229 -0.00263531 -0.048992 -4.14579e-13 5.60027e-14 -2.17183e-13 0 2.76372e-17
385 11 0.001 -0.0503225 -0.00183355 -0.0493158 -2.93503e-13 2.68245e-15 -1.19512e-13 0 9.15772e-15
760 12 0.001 -0.0308228 -0.00263529 -0.0489919 -4.16361e-13 4.34134e-14 -1.80785e-13 0 2.85525e-17
761 12 0.001 -0.0303224 -0.00183352 -0.0493156 -2.71541e-13 2.41043e-14 -1.08925e-13 0 9.09948e-15
1156 14 0.001 -0.0108228 -0.00263529 -0.0489919 -3.97282e-13 4.34738e-14 -1.82973e-13 0 2.85525e-17
1157 14 0.001 -0.0103224 -0.00183352 -0.0493156 -2.99005e-13 1.65088e-14 -1.04074e-13 0 9.09948e-15
1552 16 0.001 0.00917722 -0.00263529 -0.0489919 -4.04308e-13 4.81065e-14 -1.83508e-13 0 2.85525e-17
1553 16 0.001 0.00967757 -0.00183352 -0.0493156 -2.91793e-13 1.32804e-14 -1.03676e-13 0 9.09948e-15
1948 18 0.001 0.0291772 -0.00263529 -0.0489919 -4.26929e-13 5.2775e-14 -1.82388e-13 0 2.85525e-17
1949 18 0.001 0.0296776 -0.00183352 -0.0493156 -2.54731e-13 1.26679e-14 -1.06553e-13 0 9.09948e-15
2 2 0.001 -0.05 -4.31175e-17 -0.05 -2.98901e-06 3.27212e-06 2.04222e-06 0 7.93037e-15
386 11 0.001 -0.0500425 -0.000935985 -0.0496534 -1.65186e-13 9.65571e-15 -6.30002e-14 0 1.70715e-14
762 12 0.001 -0.0300425 -0.000935963 -0.0496533 -1.47698e-13 9.5243e-15 -5.10472e-14 0 1.69469e-14
4 4 0.001 -0.03 -4.31175e-17 -0.05 -3.00594e-06 3.31614e-06 2.02995e-06 0 7.86627e-15
6 6 0.001 -0.01 -4.31175e-17 -0.05 -3.00594e-06 3.31614e-06 2.02995e-06 0 7.86627e-15
1158 14 0.001 -0.0100425 -0.000935963 -0.0496533 -1.31917e-13 1.47131e-14 -5.37824e-14 0 1.69469e-14
8 8 0.001 0.01 -4.31175e-17 -0.05 -3.00594e-06 3.31614e-06 2.02995e-06 0 7.86627e-15
1554 16 0.001 0.00995752 -0.000935963 -0.0496533 -1.35266e-13 1.55561e-14 -5.38802e-14 0 1.69469e-14
10 10 0.001 0.03 -4.31175e-17 -0.05 -3.00594e-06 3.31614e-06 2.02995e-06 0 7.86627e-15
1950 18 0.001 0.0299575 -0.000935963 -0.0496533 -1.60961e-13 1.52405e-14 -5.2555e-14 0 1.69469e-14
379 11 0.001 -0.0551927 -0.00377387 -0.0476548 -6.96131e-13 5.84058e-13 -5.57089e-13 0 1.10278e-15
380 11 0.001 -0.0542489 -0.00400575 -0.047886 -6.44042e-13 4.68596e-13 -5.50514e-13 0 9.48385e-16
381 11 0.001 -0.053281 -0.00399866 -0.0481333 -6.93426e-13 3.30741e-13 -4.71858e-13 0 6.74056e-16
382 11 0.001 -0.0523496 -0.00375439 -0.0483995 -6.26013e-13 2.29347e-13 -3.95492e-13 0 3.61517e-16
383 11 0.001 -0.0515129 -0.00328974 -0.0486859 -5.68143e-13 1.42298e-13 -3.0257e-13 0 1.15174e-16
755 12 0.001 -0.0351925 -0.00377404 -0.0476545 -6.58458e-13 5.54773e-13 -5.25647e-13 0 1.107e-15
756 12 0.001 -0.0342487 -0.00400587 -0.0478858 -6.12492e-13 4.43061e-13 -5.11229e-13 0 9.48696e-16
757 12 0.001 -0.0332808 -0.00399874 -0.0481331 -6.55809e-13 3.2382e-13 -4.34402e-13 0 6.708e-16
758 12 0.001 -0.0323494 -0.00375443 -0.0483993 -5.99387e-13 2.29306e-13 -3.60888e-13 0 3.56388e-16
759 12 0.001 -0.0315127 -0.00328974 -0.0486857 -5.10235e-13 1.34932e-13 -2.73455e-13 0 1.11168e-16
1151 14 0.001 -0.0151925 -0.00377404 -0.0476545 -6.38252e-13 5.46827e-13 -5.32249e-13 0 1.107e-15
1152 14 0.001 -0.0142487 -0.00400587 -0.0478858 -6.53581e-13 4.39528e-13 -4.99814e-13 0 9.48696e-16
1153 14 0.001 -0.0132808 -0.00399874 -0.0481331 -6.40183e-13 3.3169e-13 -4.40681e-13 0 6.708e-16
1154 14 0.001 -0.0123494 -0.00375443 -0.0483993 -5.86339e-13 2.23022e-13 -3.61376e-13 0 3.56388e-16
1155 14 0.001 -0.0115127 -0.00328974 -0.0486857 -5.25412e-13 1.40314e-13 -2.72342e-13 0 1.11168e-16
1547 16 0.001 0.00480752 -0.00377404 -0.0476545 -6.29864e-13 5.51849e-13 -5.32749e-13 0 1.107e-15
1548 16 0.001 0.00575134 -0.00400587 -0.0478858 -6.55699e-13 4.42787e-13 -4.99988e-13 0 9.48696e-16
1549 16 0.001 0.00671923 -0.00399874 -0.0481331 -6.34441e-13 3.24922e-13 -4.41065e-13 0 6.708e-16
1550 16 0.001 0.00765061 -0.00375443 -0.0483993 -5.9292e-13 2.30706e-13 -3.61322e-13 0 3.56388e-16
1551 16 0.001 0.0084873 -0.00328974 -0.0486857 -5.2066e-13 1.34189e-13 -2.71781e-13 0 1.11168e-16
1943 18 0.001 0.0248075 -0.00377404 -0.0476545 -6.15737e-13 5.49097e-13 -5.36923e-13 0 1.107e-15
1944 18 0.001 0.0257513 -0.00400587 -0.0478858 -6.69529e-13 4.42103e-13 -4.96127e-13 0 9.48696e-16
1945 18 0.001 0.0267192 -0.00399874 -0.0481331 -6.49786e-13 3.26975e-13 -4.37819e-13 0 6.708e-16
1946 18 0.001 0.0276506 -0.00375443 -0.0483993 -5.63817e-13 2.35155e-13 -3.68739e-13 0 3.56388e-16
1947 18 0.001 0.0284873 -0.00328974 -0.0486857 -5.29989e-13 1.26759e-13 -2.67632e-13 0 1.11168e-16
378 11 0.001 -0.0560533 -0.00331644 -0.0474355 -6.49843e-13 6.62308e-13 -5.62333e-13 0 1.10129e-15
754 12 0.001 -0.0360531 -0.00331664 -0.0474353 -6.01747e-13 6.47072e-13 -5.2961e-13 0 1.10873e-15
1150 14 0.001 -0.0160531 -0.00331664 -0.0474353 -5.73291e-13 6.61697e-13 -5.32238e-13 0 1.10873e-15
1546 16 0.001 0.00394686 -0.00331664 -0.0474353 -5.93638e-13 6.47351e-13 -5.31165e-13 0 1.10873e-15
1942 18 0.001 0.0239469 -0.00331664 -0.0474353 -5.77182e-13 6.49575e-13 -5.32476e-13 0 1.10873e-15
376 11 0.001 -0.0573186 -0.00184849 -0.0470132 -5.07848e-13 7.90716e-13 -4.48326e-13 0 7.27383e-16
377 11 0.001 -0.056777 -0.0026612 -0.0472233 -4.42444e-13 7.86959e-13 -5.27715e-13 0 9.58645e-16
753 12 0.001 -0.0367768 -0.00266144 -0.0472232 -4.80879e-13 7.19181e-13 -5.02745e-13 0 9.67975e-16
752 12 0.001 -0.0373185 -0.00184875 -0.0470131 -3.94349e-13 7.7889e-13 -4.26328e-13 0 7.37109e-16
1149 14 0.001 -0.0167768 -0.00266144 -0.0472232 -5.24277e-13 7.0887e-13 -4.97929e-13 0 9.67975e-16
1148 14 0.001 -0.0173185 -0.00184875 -0.0470131 -3.66341e-13 7.87575e-13 -4.26942e-13 0 7.37109e-16
1544 16 0.001 0.0026815 -0.00184875 -0.0470131 -3.97848e-13 7.8058e-13 -4.26099e-13 0 7.37109e-16
1545 16 0.001 0.00322317 -0.00266144 -0.0472232 -4.92944e-13 7.23275e-13 -4.99038e-13 0 9.67975e-16
1941 18 0.001 0.0232232 -0.00266144 -0.0472232 -5.34594e-13 7.23823e-13 -4.94223e-13 0 9.67975e-16
1940 18 0.001 0.0226815 -0.00184875 -0.0470131 -3.60717e-13 7.78837e-13 -4.29775e-13 0 7.37109e-16
375 11 0.001 -0.0576447 -0.000928579 -0.0468001 -2.01425e-13 8.56069e-13 -3.42929e-13 0 4.74455e-16
751 12 0.001 -0.0376447 -0.000928852 -0.0468 -2.74224e-13 7.8858e-13 -3.34166e-13 0 4.83251e-16
1147 14 0.001 -0.0176447 -0.000928852 -0.0468 -2.87838e-13 7.88201e-13 -3.34096e-13 0 4.83251e-16
1543 16 0.001 0.00235531 -0.000928852 -0.0468 -2.80136e-13 7.87258e-13 -3.34924e-13 0 4.83251e-16
1939 18 0.001 0.0223553 -0.000928852 -0.0468 -2.87091e-13 7.88281e-13 -3.33484e-13 0 4.83251e-16
373 11 0.001 -0.0575861 0.00100197 -0.0463488 -7.53433e-14 7.45999e-13 -1.08531e-13 0 1.07897e-16
374 11 0.001 -0.0577356 4.15769e-05 -0.0465797 -1.80117e-13 8.27389e-13 -2.24445e-13 0 2.57271e-16
749 12 0.001 -0.0375862 0.00100171 -0.0463487 -8.72535e-14 7.44492e-13 -1.01565e-13 0 1.12517e-16
750 12 0.001 -0.0377356 4.13047e-05 -0.0465796 -1.41306e-13 7.77485e-13 -2.11004e-13 0 2.64202e-16
1145 14 0.001 -0.0175862 0.00100171 -0.0463487 2.86762e-15 7.39986e-13 -9.12959e-14 0 1.12517e-16
1146 14 0.001 -0.0177356 4.13047e-05 -0.0465796 -1.70406e-13 7.72625e-13 -2.15106e-13 0 2.64202e-16
1541 16 0.001 0.00241381 0.00100171 -0.0463487 -3.25321e-14 7.40306e-13 -9.43178e-14 0 1.12517e-16
1542 16 0.001 0.00226442 4.13047e-05 -0.0465796 -1.44717e-13 7.76349e-13 -2.12755e-13 0 2.64202e-16
1937 18 0.001 0.0224138 0.00100171 -0.0463487 -8.72047e-15 7.42429e-13 -9.16513e-14 0 1.12517e-16
1938 18 0.001 0.0222644 4.13047e-05 -0.0465796 -1.66211e-13 7.74465e-13 -2.14939e-13 0 2.64202e-16
372 11 0.001 -0.0572064 0.00189334 -0.0461052 1.72728e-13 6.92271e-13 3.0777e-14 0 2.9481e-17
748 12 0.001 -0.0372066 0.00189311 -0.0461052 1.64577e-13 6.19197e-13 3.89683e-14 0 3.18201e-17
1144 14 0.001 -0.0172066 0.00189311 -0.0461052 6.86269e-14 6.40975e-13 2.81055e-14 0 3.18201e-17
1540 16 0.001 0.00279345 0.00189311 -0.0461052 7.89642e-14 6.38949e-13 2.74787e-14 0 3.18201e-17
1936 18 0.001 0.0227934 0.00189311 -0.0461052 8.52029e-14 6.38856e-13 2.95666e-14 0 3.18201e-17
371 11 0.001 -0.0566208 0.00266082 -0.0458483 1.40756e-13 5.67321e-13 1.13264e-13 0 3.638e-18
747 12 0.001 -0.036621 0.00266063 -0.0458483 1.09661e-13 5.7385e-13 1.10381e-13 0 4.11963e-18
1143 14 0.001 -0.016621 0.00266063 -0.0458483 1.67066e-13 5.44037e-13 1.16024e-13 0 4.11963e-18
1539 16 0.001 0.00337905 0.00266063 -0.0458483 1.9364e-13 5.42575e-13 1.24284e-13 0 4.11963e-18
1935 18 0.001 0.023379 0.00266063 -0.0458483 1.55119e-13 5.46459e-13 1.15781e-13 0 4.11963e-18
370 11 0.001 -0.0558662 0.00325733 -0.0455786 3.07016e-13 4.20968e-13 1.9434e-13 0 3.73441e-18
369 11 0.001 -0.05499 0.0036464 -0.0452976 3.69279e-13 2.94509e-13 2.3683e-13 0 7.78777e-18
368 11 0.001 -0.0540471 0.00380436 -0.0450079 3.39842e-13 9.94385e-14 2.12216e-13 0 6.11822e-18
367 11 0.001 -0.0530963 0.00372182 -0.0447125 3.38639e-13 -4.12332e-14 1.66512e-13 0 1.81623e-18
745 12 0.001 -0.0349902 0.00364632 -0.0452976 3.34024e-13 2.83912e-13 2.35943e-13 0 6.64034e-18
746 12 0.001 -0.0358664 0.00325719 -0.0455785 2.83439e-13 3.73931e-13 1.96785e-13 0 3.02858e-18
744 12 0.001 -0.0340473 0.00380434 -0.0450079 2.97935e-13 9.88235e-14 2.10461e-13 0 5.18573e-18
743 12 0.001 -0.0330965 0.00372186 -0.0447125 3.18797e-13 -3.93777e-14 1.71153e-13 0 1.54173e-18
1142 14 0.001 -0.0158664 0.00325719 -0.0455785 2.77454e-13 3.98161e-13 2.00463e-13 0 3.02858e-18
1140 14 0.001 -0.0140473 0.00380434 -0.0450079 3.34993e-13 9.9765e-14 2.21461e-13 0 5.18573e-18
1141 14 0.001 -0.0149902 0.00364632 -0.0452976 2.93048e-13 2.7107e-13 2.21766e-13 0 6.64034e-18
1139 14 0.001 -0.0130965 0.00372186 -0.0447125 3.1249e-13 -4.13142e-14 1.69615e-13 0 1.54173e-18
1538 16 0.001 0.00413361 0.00325719 -0.0455785 2.37633e-13 4.06488e-13 1.88814e-13 0 3.02858e-18
1537 16 0.001 0.00500976 0.00364632 -0.0452976 3.16711e-13 2.58006e-13 2.29091e-13 0 6.64034e-18
1536 16 0.001 0.00595269 0.00380434 -0.0450079 3.27264e-13 1.07317e-13 2.19041e-13 0 5.18573e-18
1535 16 0.001 0.00690346 0.00372186 -0.0447125 3.14723e-13 -3.94497e-14 1.69964e-13 0 1.54173e-18
1933 18 0.001 0.0250098 0.00364632 -0.0452976 2.87515e-13 2.68544e-13 2.2186e-13 0 6.64034e-18
1934 18 0.001 0.0241336 0.00325719 -0.0455785 2.82673e-13 3.9595e-13 1.99072e-13 0 3.02858e-18
1932 18 0.001 0.0259527 0.00380434 -0.0450079 3.36579e-13 1.01405e-13 2.21339e-13 0 5.18573e-18
1931 18 0.001 0.0269035 0.00372186 -0.0447125 3.13545e-13 -4.38104e-14 1.70437e-13 0 1.54173e-18
361 11 0.001 -0.0501563 -0.000590274 -0.0429805 -2.0458e-13 -6.16077e-13 -3.57945e-13 0 2.10157e-16
737 12 0.001 -0.0301562 -0.000590031 -0.0429804 -1.21624e-13 -5.82474e-13 -3.46909e-13 0 2.12034e-16
1133 14 0.001 -0.0101562 -0.000590031 -0.0429804 -1.63108e-13 -5.7736e-13 -3.4758e-13 0 2.12034e-16
1529 16 0.001 0.00984376 -0.000590031 -0.0429804 -1.41581e-13 -5.77892e-13 -3.47725e-13 0 2.12034e-16
1925 18 0.001 0.0298438 -0.000590031 -0.0429804 -1.63967e-13 -5.7822e-13 -3.47526e-13 0 2.12034e-16
362 11 0.001 -0.050127 0.000369977 -0.0432545 -3.64544e-14 -6.00789e-13 -2.97036e-13 0 1.73242e-16
363 11 0.001 -0.050337 0.00130526 -0.0435358 1.4368e-13 -5.47004e-13 -2.01717e-13 0 1.20543e-16
738 12 0.001 -0.030127 0.000370222 -0.0432544 -6.83658e-14 -5.60428e-13 -2.90426e-13 0 1.75257e-16
739 12 0.001 -0.0303371 0.00130549 -0.0435357 6.78775e-14 -5.26498e-13 -1.98722e-13 0 1.2258e-16
1134 14 0.001 -0.010127 0.000370222 -0.0432544 -4.23922e-14 -5.61688e-13 -2.89334e-13 0 1.75257e-16
1135 14 0.001 -0.0103371 0.00130549 -0.0435357 6.43838e-14 -5.25146e-13 -1.98939e-13 0 1.2258e-16
1530 16 0.001 0.00987297 0.000370222 -0.0432544 -5.71262e-14 -5.62815e-13 -2.89533e-13 0 1.75257e-16
1531 16 0.001 0.00966289 0.00130549 -0.0435357 6.85074e-14 -5.19842e-13 -1.99915e-13 0 1.2258e-16
1926 18 0.001 0.029873 0.000370222 -0.0432544 -4.15698e-14 -5.63842e-13 -2.88865e-13 0 1.75257e-16
1927 18 0.001 0.0296629 0.00130549 -0.0435357 7.05404e-14 -5.20418e-13 -1.99129e-13 0 1.2258e-16
365 11 0.001 -0.051406 0.00287141 -0.0441176 2.45627e-13 -3.31926e-13 -1.02365e-14 0 2.61378e-17
364 11 0.001 -0.0507726 0.00215686 -0.043824 1.34571e-13 -4.77257e-13 -1.09373e-13 0 6.68992e-17
740 12 0.001 -0.0307728 0.00215706 -0.0438239 1.9339e-13 -4.38346e-13 -8.89786e-14 0 6.8719e-17
741 12 0.001 -0.0314062 0.00287156 -0.0441176 2.0433e-13 -3.154e-13 -1.00787e-14 0 2.74476e-17
1136 14 0.001 -0.0107728 0.00215706 -0.0438239 1.77238e-13 -4.39043e-13 -9.17094e-14 0 6.8719e-17
1137 14 0.001 -0.0114062 0.00287156 -0.0441176 2.28227e-13 -3.19473e-13 -4.42908e-15 0 2.74476e-17
1533 16 0.001 0.00859379 0.00287156 -0.0441176 2.30164e-13 -3.08514e-13 -5.81696e-15 0 2.74476e-17
1532 16 0.001 0.00922724 0.00215706 -0.0438239 1.76854e-13 -4.50014e-13 -8.96906e-14 0 6.8719e-17
1928 18 0.001 0.0292272 0.00215706 -0.0438239 1.60941e-13 -4.41824e-13 -9.42119e-14 0 6.8719e-17
1929 18 0.001 0.0285938 0.00287156 -0.0441176 2.37329e-13 -3.167e-13 -3.37067e-15 0 2.74476e-17
366 11 0.001 -0.0521972 0.00340417 -0.0444147 3.86968e-13 -2.12152e-13 1.1489e-13 0 5.26255e-18
742 12 0.001 -0.0321974 0.00340428 -0.0444147 3.33304e-13 -2.04381e-13 1.1806e-13 0 5.81886e-18
1138 14 0.001 -0.0121974 0.00340428 -0.0444147 3.18832e-13 -1.99243e-13 1.13898e-13 0 5.81885e-18
1534 16 0.001 0.00780261 0.00340428 -0.0444147 3.17399e-13 -2.06039e-13 1.1439e-13 0 5.81885e-18
1930 18 0.001 0.0278026 0.00340428 -0.0444147 3.20966e-13 -1.9904e-13 1.14794e-13 0 5.81885e-18
355 11 0.001 -0.0543146 -0.00384292 -0.0414408 -4.76908e-13 -5.65613e-14 -1.43517e-13 0 4.93517e-17
356 11 0.001 -0.0533486 -0.0038042 -0.0416925 -6.0472e-13 -1.89855e-13 -1.96248e-13 0 8.25186e-17
357 11 0.001 -0.052422 -0.00352804 -0.0419439 -4.17322e-13 -3.21541e-13 -3.10464e-13 0 1.25145e-16
358 11 0.001 -0.0515927 -0.00303172 -0.0421968 -4.92169e-13 -4.29948e-13 -3.40133e-13 0 1.69946e-16
731 12 0.001 -0.0343144 -0.00384295 -0.0414407 -4.29431e-13 -6.7076e-14 -1.37124e-13 0 5.09753e-17
732 12 0.001 -0.0333483 -0.00380417 -0.0416924 -5.75169e-13 -1.82526e-13 -1.84136e-13 0 8.42311e-17
733 12 0.001 -0.0324218 -0.00352795 -0.0419439 -4.15879e-13 -3.07275e-13 -2.9302e-13 0 1.26866e-16
734 12 0.001 -0.0315925 -0.00303157 -0.0421967 -4.31637e-13 -3.97607e-13 -3.3909e-13 0 1.71632e-16
1127 14 0.001 -0.0143144 -0.00384295 -0.0414407 -4.50832e-13 -6.46608e-14 -1.33356e-13 0 5.09753e-17
1128 14 0.001 -0.0133483 -0.00380417 -0.0416924 -4.98453e-13 -1.86902e-13 -2.0179e-13 0 8.42311e-17
1129 14 0.001 -0.0124218 -0.00352795 -0.0419439 -4.82363e-13 -3.03474e-13 -2.78443e-13 0 1.26866e-16
1130 14 0.001 -0.0115925 -0.00303157 -0.0421967 -4.29921e-13 -4.10057e-13 -3.36922e-13 0 1.71632e-16
1523 16 0.001 0.00568565 -0.00384295 -0.0414407 -4.44341e-13 -7.109e-14 -1.35382e-13 0 5.09753e-17
1524 16 0.001 0.00665165 -0.00380417 -0.0416924 -5.09523e-13 -1.84402e-13 -1.99126e-13 0 8.42311e-17
1525 16 0.001 0.00757819 -0.00352795 -0.0419439 -4.81568e-13 -3.06327e-13 -2.78373e-13 0 1.26866e-16
1526 16 0.001 0.00840745 -0.00303157 -0.0421967 -4.29017e-13 -4.07368e-13 -3.37674e-13 0 1.71632e-16
1919 18 0.001 0.0256856 -0.00384295 -0.0414407 -4.71135e-13 -6.97508e-14 -1.26787e-13 0 5.09753e-17
1920 18 0.001 0.0266517 -0.00380417 -0.0416924 -4.95382e-13 -1.77684e-13 -2.04062e-13 0 8.42311e-17
1921 18 0.001 0.0275782 -0.00352795 -0.0419439 -4.72139e-13 -3.10836e-13 -2.79556e-13 0 1.26866e-16
1922 18 0.001 0.0284075 -0.00303157 -0.0421967 -4.43459e-13 -4.06292e-13 -3.34755e-13 0 1.71632e-16
359 11 0.001 -0.0509124 -0.00234638 -0.0424528 -4.08759e-13 -5.32288e-13 -3.79005e-13 0 2.05814e-16
360 11 0.001 -0.0504235 -0.00151512 -0.0427135 -2.29639e-13 -5.7489e-13 -3.94166e-13 0 2.21466e-16
735 12 0.001 -0.0309123 -0.00234618 -0.0424527 -3.60667e-13 -5.06055e-13 -3.70622e-13 0 2.07489e-16
736 12 0.001 -0.0304234 -0.0015149 -0.0427135 -2.94021e-13 -5.4993e-13 -3.7499e-13 0 2.23205e-16
1131 14 0.001 -0.0109123 -0.00234618 -0.0424527 -3.57424e-13 -4.94749e-13 -3.75291e-13 0 2.07489e-16
1132 14 0.001 -0.0104234 -0.0015149 -0.0427135 -2.62257e-13 -5.55488e-13 -3.74789e-13 0 2.23205e-16
1527 16 0.001 0.0090877 -0.00234618 -0.0424527 -3.48255e-13 -4.97804e-13 -3.75462e-13 0 2.07489e-16
1528 16 0.001 0.00957657 -0.0015149 -0.0427135 -2.81528e-13 -5.52848e-13 -3.74128e-13 0 2.23205e-16
1923 18 0.001 0.0290877 -0.00234618 -0.0424527 -3.48604e-13 -4.95671e-13 -3.7648e-13 0 2.07489e-16
1924 18 0.001 0.0295766 -0.0015149 -0.0427135 -2.67543e-13 -5.55384e-13 -3.74157e-13 0 2.23205e-16
353 11 0.001 -0.0561254 -0.00321361 -0.0409318 -4.0787e-13 2.10812e-13 -2.34619e-15 0 1.66079e-17
354 11 0.001 -0.0552598 -0.00364183 -0.0411875 -4.45104e-13 4.90493e-14 -7.32789e-14 0 2.78956e-17
729 12 0.001 -0.0361252 -0.00321378 -0.0409317 -3.12481e-13 1.59047e-13 -1.03788e-14 0 1.79654e-17
730 12 0.001 -0.0352596 -0.00364194 -0.0411874 -4.58893e-13 5.51575e-14 -5.04174e-14 0 2.93735e-17
1125 14 0.001 -0.0161252 -0.00321378 -0.0409317 -3.51819e-13 1.35531e-13 -8.58885e-15 0 1.79654e-17
1126 14 0.001 -0.0152596 -0.00364194 -0.0411874 -4.55327e-13 6.53629e-14 -4.78255e-14 0 2.93735e-17
1521 16 0.001 0.00387478 -0.00321378 -0.0409317 -3.31345e-13 1.37857e-13 -1.12507e-14 0 1.79654e-17
1522 16 0.001 0.00474041 -0.00364194 -0.0411874 -4.56453e-13 7.13691e-14 -4.75781e-14 0 2.93735e-17
1917 18 0.001 0.0238748 -0.00321378 -0.0409317 -3.59507e-13 1.46037e-13 -3.63654e-15 0 1.79654e-17
1918 18 0.001 0.0247404 -0.00364194 -0.0411874 -4.27622e-13 6.17445e-14 -5.6813e-14 0 2.93735e-17
351 11 0.001 -0.0574109 -0.00179553 -0.0404114 -1.78331e-13 3.78781e-13 2.91894e-14 0 1.46412e-17
352 11 0.001 -0.0568576 -0.00258509 -0.0406731 -2.71728e-13 2.60662e-13 1.11278e-14 0 1.27238e-17
727 12 0.001 -0.0374108 -0.00179579 -0.0404114 -1.3403e-13 3.35572e-13 3.52707e-14 0 1.62785e-17
728 12 0.001 -0.0368574 -0.0025853 -0.0406731 -3.17902e-13 2.54975e-13 3.20606e-14 0 1.41004e-17
1123 14 0.001 -0.0174108 -0.00179579 -0.0404114 -1.93899e-13 3.27886e-13 4.19053e-14 0 1.62785e-17
1124 14 0.001 -0.0168574 -0.0025853 -0.0406731 -2.37863e-13 2.73915e-13 2.36872e-14 0 1.41004e-17
1519 16 0.001 0.00258923 -0.00179579 -0.0404114 -1.49383e-13 3.31545e-13 3.8168e-14 0 1.62785e-17
1520 16 0.001 0.00314257 -0.0025853 -0.0406731 -2.77841e-13 2.66984e-13 2.80127e-14 0 1.41004e-17
1915 18 0.001 0.0225892 -0.00179579 -0.0404114 -1.70509e-13 3.29572e-13 3.9604e-14 0 1.62785e-17
1916 18 0.001 0.0231426 -0.0025853 -0.0406731 -2.53654e-13 2.64359e-13 2.35188e-14 0 1.41004e-17
350 11 0.001 -0.057751 -0.000894209 -0.040147 -4.42942e-14 4.00329e-13 -5.55582e-15 0 2.29529e-17
726 12 0.001 -0.037751 -0.000894492 -0.0401469 5.66169e-15 3.9016e-13 8.55017e-15 0 2.51431e-17
1122 14 0.001 -0.017751 -0.000894492 -0.0401469 4.12706e-15 3.92305e-13 7.45271e-15 0 2.51431e-17
1518 16 0.001 0.00224904 -0.000894492 -0.0401469 -3.57785e-14 3.92063e-13 9.54152e-15 0 2.51431e-17
1914 18 0.001 0.022249 -0.000894492 -0.0401469 -9.86077e-15 3.93749e-13 9.02227e-15 0 2.51431e-17
348 11 0.001 -0.0577222 0.00101557 -0.0396121 2.43588e-13 4.59455e-13 -9.02302e-14 0 6.70572e-17
349 11 0.001 -0.0578569 6.27006e-05 -0.0398803 1.09238e-13 4.37086e-13 -4.00557e-14 0 3.97978e-17
724 12 0.001 -0.0377223 0.00101529 -0.039612 2.50391e-13 3.85254e-13 -9.37319e-14 0 7.10641e-17
725 12 0.001 -0.037857 6.2409e-05 -0.0398802 4.11883e-14 4.02923e-13 -2.75998e-14 0 4.2809e-17
1120 14 0.001 -0.0177223 0.00101529 -0.039612 2.17158e-13 3.85473e-13 -9.62396e-14 0 7.10641e-17
1121 14 0.001 -0.017857 6.2409e-05 -0.0398802 7.17382e-14 4.04921e-13 -2.66471e-14 0 4.2809e-17
1516 16 0.001 0.00227767 0.00101529 -0.039612 2.0933e-13 3.89697e-13 -9.48557e-14 0 7.10641e-17
1517 16 0.001 0.00214303 6.2409e-05 -0.0398802 9.80677e-14 4.01546e-13 -2.78459e-14 0 4.2809e-17
1912 18 0.001 0.0222777 0.00101529 -0.039612 2.22979e-13 3.85205e-13 -9.54029e-14 0 7.10641e-17
1913 18 0.001 0.022143 6.2409e-05 -0.0398802 7.22183e-14 4.04489e-13 -2.70787e-14 0 4.2809e-17
347 11 0.001 -0.0573553 0.00190502 -0.0393433 3.34687e-13 3.97797e-13 -1.63367e-13 0 1.04433e-16
346 11 0.001 -0.0567791 0.00267558 -0.0390745 4.528e-13 3.30517e-13 -2.22778e-13 0 1.48421e-16
722 12 0.001 -0.0367794 0.00267537 -0.0390744 4.27565e-13 3.01504e-13 -2.14364e-13 0 1.54391e-16
723 12 0.001 -0.0373555 0.00190477 -0.0393432 3.24724e-13 3.95406e-13 -1.41358e-13 0 1.09474e-16
1118 14 0.001 -0.0167794 0.00267537 -0.0390744 4.2575e-13 3.15204e-13 -2.10484e-13 0 1.54391e-16
1119 14 0.001 -0.0173555 0.00190477 -0.0393432 3.52953e-13 3.867e-13 -1.39786e-13 0 1.09474e-16
1515 16 0.001 0.00264451 0.00190477 -0.0393432 3.5094e-13 3.90981e-13 -1.39801e-13 0 1.09474e-16
1514 16 0.001 0.00322064 0.00267537 -0.0390744 4.29232e-13 3.07986e-13 -2.10612e-13 0 1.54391e-16
1910 18 0.001 0.0232206 0.00267537 -0.0390744 4.34639e-13 3.14093e-13 -2.07635e-13 0 1.54391e-16
1911 18 0.001 0.0226445 0.00190477 -0.0393432 3.42699e-13 3.85835e-13 -1.42382e-13 0 1.09474e-16
345 11 0.001 -0.0560296 0.00327914 -0.0388063 5.45928e-13 2.57609e-13 -2.60152e-13 0 1.92703e-16
344 11 0.001 -0.0551535 0.00367798 -0.0385391 6.43637e-13 1.51411e-13 -2.78858e-13 0 2.2982e-16
721 12 0.001 -0.0360299 0.00327899 -0.0388062 5.46941e-13 2.3241e-13 -2.42609e-13 0 1.99387e-16
720 12 0.001 -0.0351538 0.00367789 -0.038539 5.12027e-13 1.50671e-13 -2.90972e-13 0 2.36944e-16
1117 14 0.001 -0.0160299 0.00327899 -0.0388062 5.16342e-13 2.30658e-13 -2.51734e-13 0 1.99387e-16
1116 14 0.001 -0.0151538 0.00367789 -0.038539 5.6036e-13 1.40694e-13 -2.78627e-13 0 2.36944e-16
1513 16 0.001 0.00397013 0.00327899 -0.0388062 5.12553e-13 2.31162e-13 -2.5287e-13 0 1.99387e-16
1512 16 0.001 0.0048462 0.00367789 -0.038539 5.65442e-13 1.47511e-13 -2.76263e-13 0 2.36944e-16
1909 18 0.001 0.0239701 0.00327899 -0.0388062 5.08588e-13 2.39409e-13 -2.53505e-13 0 1.99387e-16
1908 18 0.001 0.0248462 0.00367789 -0.038539 5.73417e-13 1.32125e-13 -2.75687e-13 0 2.36944e-16
338 11 0.001 -0.0504112 0.00138842 -0.0369555 2.99546e-13 -3.9334e-13 -7.0696e-14 0 1.64536e-16
714 12 0.001 -0.0304113 0.00138871 -0.0369554 2.27307e-13 -3.20435e-13 -7.46558e-14 0 1.70296e-16
1110 14 0.001 -0.0104113 0.00138871 -0.0369554 2.6343e-13 -3.18236e-13 -7.30949e-14 0 1.70296e-16
1506 16 0.001 0.00958873 0.00138871 -0.0369554 2.66378e-13 -3.16194e-13 -7.19535e-14 0 1.70296e-16
1902 18 0.001 0.0295887 0.00138871 -0.0369554 2.36294e-13 -3.14452e-13 -7.66779e-14 0 1.70296e-16
340 11 0.001 -0.0515228 0.00294464 -0.0374813 5.05436e-13 -2.64399e-13 -1.83201e-13 0 2.26993e-16
339 11 0.001 -0.0508691 0.00223647 -0.0372185 3.54514e-13 -3.47051e-13 -1.29905e-13 0 1.96577e-16
716 12 0.001 -0.0315231 0.00294484 -0.0374812 4.08099e-13 -2.38357e-13 -1.87169e-13 0 2.33582e-16
715 12 0.001 -0.0308692 0.00223673 -0.0372184 3.93987e-13 -3.26825e-13 -1.12866e-13 0 2.02752e-16
1111 14 0.001 -0.0108692 0.00223673 -0.0372184 3.46985e-13 -3.17535e-13 -1.21001e-13 0 2.02752e-16
1112 14 0.001 -0.0115231 0.00294484 -0.0374812 4.60807e-13 -2.46106e-13 -1.76391e-13 0 2.33582e-16
1508 16 0.001 0.00847692 0.00294484 -0.0374812 4.68922e-13 -2.41397e-13 -1.74413e-13 0 2.33582e-16
1507 16 0.001 0.00913075 0.00223673 -0.0372184 3.39816e-13 -3.24422e-13 -1.21416e-13 0 2.02752e-16
1904 18 0.001 0.0284769 0.00294484 -0.0374812 4.60621e-13 -2.43146e-13 -1.76325e-13 0 2.33582e-16
1903 18 0.001 0.0291308 0.00223673 -0.0372184 3.68588e-13 -3.20684e-13 -1.17529e-13 0 2.02752e-16
343 11 0.001 -0.0542055 0.00384711 -0.0382731 5.83408e-13 5.62202e-14 -2.99594e-13 0 2.53396e-16
342 11 0.001 -0.0532449 0.00377589 -0.0380083 6.09165e-13 -8.49302e-14 -2.74606e-13 0 2.60007e-16
341 11 0.001 -0.0523316 0.00346869 -0.0377445 5.44582e-13 -1.70264e-13 -2.39066e-13 0 2.49991e-16
719 12 0.001 -0.0342058 0.0038471 -0.038273 6.20322e-13 3.72556e-14 -2.73918e-13 0 2.60681e-16
718 12 0.001 -0.0332452 0.00377595 -0.0380082 5.57698e-13 -7.92022e-14 -2.64408e-13 0 2.67214e-16
717 12 0.001 -0.0323319 0.00346882 -0.0377444 5.58192e-13 -1.54794e-13 -2.22447e-13 0 2.56944e-16
1115 14 0.001 -0.0142058 0.0038471 -0.038273 6.03174e-13 4.138e-14 -2.77473e-13 0 2.60681e-16
1113 14 0.001 -0.0123319 0.00346882 -0.0377444 5.34742e-13 -1.61852e-13 -2.25586e-13 0 2.56944e-16
1114 14 0.001 -0.0132452 0.00377595 -0.0380082 5.44322e-13 -6.78274e-14 -2.7035e-13 0 2.67214e-16
1511 16 0.001 0.00579416 0.0038471 -0.038273 5.81267e-13 3.6118e-14 -2.85055e-13 0 2.60681e-16
1510 16 0.001 0.00675481 0.00377595 -0.0380082 5.77932e-13 -6.93125e-14 -2.593e-13 0 2.67214e-16
1509 16 0.001 0.00766809 0.00346882 -0.0377444 5.15924e-13 -1.62133e-13 -2.32157e-13 0 2.56944e-16
1907 18 0.001 0.0257942 0.0038471 -0.038273 5.8421e-13 4.6497e-14 -2.82394e-13 0 2.60681e-16
1906 18 0.001 0.0267548 0.00377595 -0.0380082 5.6775e-13 -7.00001e-14 -2.64302e-13 0 2.67214e-16
1905 18 0.001 0.0276681 0.00346882 -0.0377444 5.16306e-13 -1.63342e-13 -2.29841e-13 0 2.56944e-16
333 11 0.001 -0.0515564 -0.00298368 -0.0356321 -3.11376e-13 -2.18039e-13 -2.73248e-14 0 8.64328e-17
334 11 0.001 -0.0508948 -0.00228396 -0.0358981 -2.21953e-13 -2.76066e-13 -3.50943e-15 0 8.80971e-17
709 12 0.001 -0.0315561 -0.00298349 -0.035632 -2.86818e-13 -2.03809e-13 -1.9295e-14 0 9.14693e-17
710 12 0.001 -0.0308946 -0.0022837 -0.035898 -2.30319e-13 -2.56679e-13 1.31583e-14 0 9.2992e-17
1105 14 0.001 -0.0115561 -0.00298349 -0.035632 -2.81174e-13 -1.94758e-13 -2.41911e-14 0 9.14693e-17
1106 14 0.001 -0.0108946 -0.0022837 -0.035898 -2.01147e-13 -2.69822e-13 1.36614e-14 0 9.2992e-17
1501 16 0.001 0.00844389 -0.00298349 -0.035632 -2.82432e-13 -1.89679e-13 -2.49338e-14 0 9.14693e-17
1502 16 0.001 0.00910538 -0.0022837 -0.035898 -1.9736e-13 -2.72828e-13 1.36767e-14 0 9.2992e-17
1897 18 0.001 0.0284439 -0.00298349 -0.035632 -3.03199e-13 -1.90727e-13 -2.06229e-14 0 9.14693e-17
1898 18 0.001 0.0291054 -0.0022837 -0.035898 -1.71893e-13 -2.72422e-13 9.33428e-15 0 9.2992e-17
335 11 0.001 -0.0504274 -0.00144189 -0.0361635 -9.42897e-14 -3.81076e-13 1.79563e-14 0 9.66427e-17
336 11 0.001 -0.0501832 -0.00051004 -0.0364282 -4.78942e-15 -3.87623e-13 -5.9368e-15 0 1.12492e-16
711 12 0.001 -0.0304272 -0.0014416 -0.0361634 -2.65002e-14 -3.34446e-13 1.08758e-14 0 1.01563e-16
712 12 0.001 -0.0301832 -0.000509728 -0.0364281 -3.83969e-14 -3.32281e-13 7.0469e-15 0 1.17586e-16
1107 14 0.001 -0.0104272 -0.0014416 -0.0361634 -1.02073e-13 -3.27304e-13 1.623e-14 0 1.01563e-16
1108 14 0.001 -0.0101832 -0.000509728 -0.0364281 3.05816e-14 -3.33064e-13 2.46498e-15 0 1.17586e-16
1503 16 0.001 0.00957275 -0.0014416 -0.0361634 -1.02481e-13 -3.28113e-13 1.63141e-14 0 1.01563e-16
1504 16 0.001 0.00981681 -0.000509728 -0.0364281 2.81165e-14 -3.33138e-13 3.6495e-15 0 1.17586e-16
1899 18 0.001 0.0295728 -0.0014416 -0.0361634 -1.18948e-13 -3.21186e-13 1.65837e-14 0 1.01563e-16
1900 18 0.001 0.0298168 -0.000509728 -0.0364281 3.93795e-14 -3.34656e-13 2.13395e-15 0 1.17586e-16
337 11 0.001 -0.0501777 0.000453449 -0.0366922 1.41102e-13 -3.73947e-13 -3.39317e-14 0 1.35537e-16
713 12 0.001 -0.0301777 0.000453761 -0.0366921 1.71545e-13 -4.07851e-13 -1.45506e-14 0 1.40923e-16
1109 14 0.001 -0.0101777 0.000453761 -0.0366921 1.31119e-13 -4.174e-13 -1.10856e-14 0 1.40923e-16
1505 16 0.001 0.00982227 0.000453761 -0.0366921 1.3188e-13 -4.13987e-13 -1.34314e-14 0 1.40923e-16
1901 18 0.001 0.0298223 0.000453761 -0.0366921 1.4197e-13 -4.1883e-13 -9.5493e-15 0 1.40923e-16
328 11 0.001 -0.0560651 -0.00326141 -0.0343008 -3.9479e-13 2.98996e-13 -2.31398e-13 0 1.54646e-16
329 11 0.001 -0.0551937 -0.00367133 -0.0345665 -4.60196e-13 2.19635e-13 -1.92727e-13 0 1.34745e-16
330 11 0.001 -0.0542479 -0.00385233 -0.0348327 -4.12714e-13 9.07908e-14 -1.69401e-13 0 1.16371e-16
331 11 0.001 -0.053287 -0.00379312 -0.0350992 -4.86497e-13 5.4635e-15 -1.00137e-13 0 1.01361e-16
332 11 0.001 -0.0523707 -0.00349742 -0.0353657 -3.52882e-13 -1.23212e-13 -7.47429e-14 0 9.10757e-17
704 12 0.001 -0.0360648 -0.00326162 -0.0343007 -3.68136e-13 2.66811e-13 -2.22342e-13 0 1.62196e-16
705 12 0.001 -0.0351933 -0.00367146 -0.0345664 -4.22282e-13 2.05541e-13 -1.83747e-13 0 1.41694e-16
706 12 0.001 -0.0342476 -0.00385237 -0.0348326 -4.29037e-13 9.48933e-14 -1.47542e-13 0 1.22717e-16
707 12 0.001 -0.0332866 -0.00379308 -0.0350991 -3.97405e-13 1.01958e-14 -1.02224e-13 0 1.07155e-16
708 12 0.001 -0.0323704 -0.0034973 -0.0353656 -3.41195e-13 -1.04587e-13 -6.27444e-14 0 9.64194e-17
1100 14 0.001 -0.0160648 -0.00326162 -0.0343007 -3.62984e-13 2.86927e-13 -2.18353e-13 0 1.62196e-16
1101 14 0.001 -0.0151933 -0.00367146 -0.0345664 -4.02743e-13 2.01805e-13 -1.89455e-13 0 1.41694e-16
1102 14 0.001 -0.0142476 -0.00385237 -0.0348326 -4.23063e-13 1.01111e-13 -1.49247e-13 0 1.22717e-16
1104 14 0.001 -0.0123704 -0.0034973 -0.0353656 -3.49206e-13 -9.56665e-14 -5.90908e-14 0 9.64194e-17
1103 14 0.001 -0.0132866 -0.00379308 -0.0350991 -3.97351e-13 -7.65207e-15 -1.03072e-13 0 1.07155e-16
1496 16 0.001 0.0039352 -0.00326162 -0.0343007 -3.61593e-13 2.89275e-13 -2.19589e-13 0 1.62196e-16
1497 16 0.001 0.00480666 -0.00367146 -0.0345664 -4.10357e-13 1.95817e-13 -1.87228e-13 0 1.41694e-16
1498 16 0.001 0.00575241 -0.00385237 -0.0348326 -4.30697e-13 1.04395e-13 -1.47266e-13 0 1.22717e-16
1499 16 0.001 0.00671339 -0.00379308 -0.0350991 -3.94313e-13 -1.81027e-15 -1.03748e-13 0 1.07155e-16
1500 16 0.001 0.00762962 -0.0034973 -0.0353656 -3.46712e-13 -1.01341e-13 -5.94169e-14 0 9.64194e-17
1892 18 0.001 0.0239352 -0.00326162 -0.0343007 -3.67467e-13 2.91924e-13 -2.16584e-13 0 1.62196e-16
1893 18 0.001 0.0248067 -0.00367146 -0.0345664 -3.80369e-13 1.97505e-13 -1.95059e-13 0 1.41694e-16
1894 18 0.001 0.0257524 -0.00385237 -0.0348326 -4.58909e-13 1.06225e-13 -1.40252e-13 0 1.22717e-16
1895 18 0.001 0.0267134 -0.00379308 -0.0350991 -3.72787e-13 -7.35282e-15 -1.0935e-13 0 1.07155e-16
1896 18 0.001 0.0276296 -0.0034973 -0.0353656 -3.53566e-13 -1.04052e-13 -5.67738e-14 0 9.64194e-17
327 11 0.001 -0.0568078 -0.00264811 -0.0340357 -3.04723e-13 3.99884e-13 -2.40141e-13 0 1.73956e-16
703 12 0.001 -0.0368075 -0.00264839 -0.0340356 -2.56361e-13 3.9183e-13 -2.31703e-13 0 1.82059e-16
1099 14 0.001 -0.0168075 -0.00264839 -0.0340356 -3.35409e-13 3.66575e-13 -2.24122e-13 0 1.82059e-16