ITEM: TIMESTEP
5800000
ITEM: NUMBER OF ATOMS
1970
ITEM: BOX BOUNDS ff ff ff
-6.0000000000000005e-02 6.0000000000000005e-02
-6.0000000000000001e-03 6.0000000000000001e-03
-5.5000000000000000e-02 5.5000000000000000e-02
ITEM: ATOMS id type radius x y z fx fy fz c_bendingE c_stretchingE
384 11 0.001 -0.0508283 -0.00263315 -0.0489908 -6.09507e-13 4.59421e-14 -3.4174e-13 0 3.92128e-17
385 11 0.001 -0.0503262 -0.00183241 -0.0493144 -4.0174e-13 9.22788e-15 -2.25048e-13 0 8.70061e-15
760 12 0.001 -0.0308283 -0.00263315 -0.0489907 -5.59919e-13 5.18638e-14 -3.22877e-13 0 4.03167e-17
761 12 0.001 -0.0303262 -0.00183239 -0.0493144 -3.99848e-13 5.03275e-15 -2.00109e-13 0 8.66981e-15
1156 14 0.001 -0.0108283 -0.00263315 -0.0489907 -5.83373e-13 5.63722e-14 -3.21622e-13 0 4.03167e-17
1157 14 0.001 -0.0103262 -0.00183239 -0.0493144 -3.7195e-13 1.14592e-15 -2.01373e-13 0 8.66981e-15
1552 16 0.001 0.00917174 -0.00263315 -0.0489907 -5.66254e-13 6.15517e-14 -3.25661e-13 0 4.03167e-17
1553 16 0.001 0.00967379 -0.00183239 -0.0493144 -3.84209e-13 -1.29786e-15 -1.99715e-13 0 8.66981e-15
1948 18 0.001 0.0291717 -0.00263315 -0.0489907 -5.76107e-13 6.22963e-14 -3.2399e-13 0 4.03167e-17
1949 18 0.001 0.0296738 -0.00183239 -0.0493144 -3.87855e-13 -5.78164e-15 -1.98188e-13 0 8.66981e-15
2 2 0.001 -0.05 -4.31175e-17 -0.05 -3.33492e-06 3.74452e-06 2.07105e-06 0 7.3552e-15
386 11 0.001 -0.0500444 -0.000935564 -0.0496525 -2.06764e-13 -3.81329e-14 -9.33477e-14 0 1.60234e-14
762 12 0.001 -0.0300444 -0.000935555 -0.0496525 -2.02235e-13 -1.40834e-14 -9.30438e-14 0 1.5957e-14
4 4 0.001 -0.03 -4.31175e-17 -0.05 -3.34351e-06 3.76845e-06 2.06388e-06 0 7.32136e-15
6 6 0.001 -0.01 -4.31175e-17 -0.05 -3.34351e-06 3.76845e-06 2.06388e-06 0 7.32136e-15
1158 14 0.001 -0.0100444 -0.000935555 -0.0496525 -2.16239e-13 -1.56521e-14 -9.16221e-14 0 1.5957e-14
8 8 0.001 0.01 -4.31175e-17 -0.05 -3.34351e-06 3.76845e-06 2.06388e-06 0 7.32136e-15
1554 16 0.001 0.00995559 -0.000935555 -0.0496525 -2.06895e-13 -1.45545e-14 -9.23651e-14 0 1.5957e-14
10 10 0.001 0.03 -4.31175e-17 -0.05 -3.34351e-06 3.76845e-06 2.06388e-06 0 7.32136e-15
1950 18 0.001 0.0299556 -0.000935555 -0.0496525 -2.01295e-13 -1.44059e-14 -9.25494e-14 0 1.5957e-14
379 11 0.001 -0.0552015 -0.00376415 -0.0476584 -9.05093e-13 7.61761e-13 -7.97965e-13 0 1.27736e-15
380 11 0.001 -0.0542579 -0.00399763 -0.0478886 -9.2042e-13 5.96489e-13 -7.79964e-13 0 1.0871e-15
381 11 0.001 -0.0532897 -0.00399219 -0.0481347 -9.4806e-13 4.44196e-13 -6.97805e-13 0 7.58186e-16
382 11 0.001 -0.0523575 -0.00374952 -0.0483997 -8.26606e-13 2.83519e-13 -6.10873e-13 0 3.90795e-16
383 11 0.001 -0.0515197 -0.00328632 -0.0486852 -7.37807e-13 1.70145e-13 -4.86094e-13 0 1.13232e-16
755 12 0.001 -0.0352015 -0.00376421 -0.0476583 -8.88428e-13 7.30649e-13 -7.62166e-13 0 1.27931e-15
756 12 0.001 -0.0342578 -0.00399768 -0.0478885 -9.1612e-13 5.93886e-13 -7.38783e-13 0 1.08678e-15
757 12 0.001 -0.0332896 -0.00399222 -0.0481346 -8.62433e-13 4.25789e-13 -6.75864e-13 0 7.55893e-16
758 12 0.001 -0.0323574 -0.00374954 -0.0483997 -8.24969e-13 2.82413e-13 -5.70783e-13 0 3.87633e-16
759 12 0.001 -0.0315196 -0.00328633 -0.0486851 -7.18359e-13 1.63774e-13 -4.522e-13 0 1.11055e-16
1151 14 0.001 -0.0152015 -0.00376421 -0.0476583 -8.89749e-13 7.23129e-13 -7.62839e-13 0 1.27931e-15
1152 14 0.001 -0.0142578 -0.00399768 -0.0478885 -9.01925e-13 5.92309e-13 -7.42036e-13 0 1.08678e-15
1153 14 0.001 -0.0132896 -0.00399222 -0.0481346 -8.80111e-13 4.32614e-13 -6.72578e-13 0 7.55893e-16
1154 14 0.001 -0.0123574 -0.00374954 -0.0483997 -8.17138e-13 2.74153e-13 -5.71103e-13 0 3.87633e-16
1155 14 0.001 -0.0115196 -0.00328633 -0.0486851 -7.15063e-13 1.65726e-13 -4.52465e-13 0 1.11055e-16
1547 16 0.001 0.00479854 -0.00376421 -0.0476583 -8.6859e-13 7.37501e-13 -7.66436e-13 0 1.27931e-15
1548 16 0.001 0.00574222 -0.00399768 -0.0478885 -9.06774e-13 5.82762e-13 -7.40822e-13 0 1.08678e-15
1549 16 0.001 0.00671042 -0.00399222 -0.0481346 -8.78579e-13 4.34813e-13 -6.73044e-13 0 7.55893e-16
1550 16 0.001 0.00764255 -0.00374954 -0.0483997 -8.10815e-13 2.74782e-13 -5.72304e-13 0 3.87633e-16
1551 16 0.001 0.00848038 -0.00328633 -0.0486851 -7.32849e-13 1.62017e-13 -4.48354e-13 0 1.11055e-16
1943 18 0.001 0.0247985 -0.00376421 -0.0476583 -8.5425e-13 7.42986e-13 -7.69731e-13 0 1.27931e-15
1944 18 0.001 0.0257422 -0.00399768 -0.0478885 -9.02461e-13 5.75373e-13 -7.41974e-13 0 1.08678e-15
1945 18 0.001 0.0267104 -0.00399222 -0.0481346 -8.86158e-13 4.32574e-13 -6.70974e-13 0 7.55893e-16
1946 18 0.001 0.0276426 -0.00374954 -0.0483997 -8.14566e-13 2.80614e-13 -5.72262e-13 0 3.87633e-16
1947 18 0.001 0.0284804 -0.00328633 -0.0486851 -7.17819e-13 1.60665e-13 -4.51245e-13 0 1.11055e-16
378 11 0.001 -0.0560616 -0.00330526 -0.0474399 -8.1526e-13 8.9408e-13 -7.82405e-13 0 1.28473e-15
754 12 0.001 -0.0360615 -0.00330533 -0.0474399 -7.7549e-13 8.68954e-13 -7.5765e-13 0 1.28863e-15
1150 14 0.001 -0.0160615 -0.00330533 -0.0474399 -7.52843e-13 8.77739e-13 -7.60007e-13 0 1.28863e-15
1546 16 0.001 0.00393847 -0.00330533 -0.0474399 -7.88651e-13 8.65428e-13 -7.54859e-13 0 1.28863e-15
1942 18 0.001 0.0239385 -0.00330533 -0.0474399 -7.91639e-13 8.64432e-13 -7.53623e-13 0 1.28863e-15
376 11 0.001 -0.0573246 -0.00183529 -0.0470179 -5.50754e-13 1.08566e-12 -5.99025e-13 0 8.62373e-16
377 11 0.001 -0.0567843 -0.00264883 -0.0472282 -6.87082e-13 1.02115e-12 -7.07865e-13 0 1.12594e-15
753 12 0.001 -0.0367842 -0.00264892 -0.0472281 -6.6115e-13 9.71752e-13 -6.88281e-13 0 1.13108e-15
752 12 0.001 -0.0373246 -0.00183539 -0.0470178 -5.33442e-13 1.04888e-12 -5.80552e-13 0 8.67889e-16
1149 14 0.001 -0.0167842 -0.00264892 -0.0472281 -6.9145e-13 9.66609e-13 -6.84929e-13 0 1.13108e-15
1148 14 0.001 -0.0173246 -0.00183539 -0.0470178 -5.22765e-13 1.05565e-12 -5.79661e-13 0 8.67889e-16
1544 16 0.001 0.00267542 -0.00183539 -0.0470178 -5.2677e-13 1.04847e-12 -5.80678e-13 0 8.67889e-16
1545 16 0.001 0.00321577 -0.00264892 -0.0472281 -6.68653e-13 9.77194e-13 -6.86469e-13 0 1.13108e-15
1941 18 0.001 0.0232158 -0.00264892 -0.0472281 -6.90575e-13 9.83272e-13 -6.82557e-13 0 1.13108e-15
1940 18 0.001 0.0226754 -0.00183539 -0.0470178 -5.1381e-13 1.04433e-12 -5.83469e-13 0 8.67889e-16
375 11 0.001 -0.0576492 -0.000915003 -0.0468041 -3.73291e-13 1.11106e-12 -4.5466e-13 0 5.71715e-16
751 12 0.001 -0.0376492 -0.000915107 -0.046804 -3.34504e-13 1.07214e-12 -4.39307e-13 0 5.76832e-16
1147 14 0.001 -0.0176492 -0.000915107 -0.046804 -3.53104e-13 1.07137e-12 -4.41096e-13 0 5.76832e-16
1543 16 0.001 0.00235078 -0.000915107 -0.046804 -3.51801e-13 1.07398e-12 -4.40737e-13 0 5.76832e-16
1939 18 0.001 0.0223508 -0.000915107 -0.046804 -3.45692e-13 1.07355e-12 -4.39121e-13 0 5.76832e-16
373 11 0.001 -0.0575875 0.00101483 -0.0463501 -6.24875e-14 1.02442e-12 -1.28136e-13 0 1.43491e-16
374 11 0.001 -0.0577385 5.50397e-05 -0.0465826 -1.20168e-13 1.08007e-12 -2.87449e-13 0 3.19924e-16
749 12 0.001 -0.0375875 0.00101473 -0.0463501 2.17354e-14 9.87376e-13 -1.10397e-13 0 1.46385e-16
750 12 0.001 -0.0377385 5.49358e-05 -0.0465825 -1.99448e-13 1.05667e-12 -2.80701e-13 0 3.24074e-16
1145 14 0.001 -0.0175875 0.00101473 -0.0463501 -1.63492e-14 9.88994e-13 -1.14835e-13 0 1.46385e-16
1146 14 0.001 -0.0177385 5.49358e-05 -0.0465825 -1.6063e-13 1.05398e-12 -2.77827e-13 0 3.24074e-16
1541 16 0.001 0.00241248 0.00101473 -0.0463501 -7.74747e-15 9.77974e-13 -1.18827e-13 0 1.46385e-16
1542 16 0.001 0.00226151 5.49358e-05 -0.0465825 -1.71692e-13 1.06014e-12 -2.76077e-13 0 3.24074e-16
1937 18 0.001 0.0224125 0.00101473 -0.0463501 2.64616e-14 9.88524e-13 -1.09276e-13 0 1.46385e-16
1938 18 0.001 0.0222615 5.49358e-05 -0.0465825 -1.91627e-13 1.05424e-12 -2.81342e-13 0 3.24074e-16
372 11 0.001 -0.0572064 0.00190514 -0.0461049 2.08442e-13 8.92675e-13 3.36891e-14 0 4.6177e-17
748 12 0.001 -0.0372064 0.00190505 -0.0461049 1.14954e-13 8.47477e-13 2.10951e-14 0 4.78099e-17
1144 14 0.001 -0.0172064 0.00190505 -0.0461049 1.3208e-13 8.44454e-13 2.30517e-14 0 4.78099e-17
1540 16 0.001 0.00279355 0.00190505 -0.0461049 1.46053e-13 8.43088e-13 2.77158e-14 0 4.78099e-17
1936 18 0.001 0.0227936 0.00190505 -0.0461049 1.19825e-13 8.4712e-13 2.23705e-14 0 4.78099e-17
371 11 0.001 -0.0566196 0.00267117 -0.0458463 3.06978e-13 7.53085e-13 1.55911e-13 0 8.10542e-18
747 12 0.001 -0.0366197 0.00267109 -0.0458463 3.17704e-13 7.17136e-13 1.62541e-13 0 8.70595e-18
1143 14 0.001 -0.0166197 0.00267109 -0.0458463 3.36015e-13 7.24451e-13 1.68595e-13 0 8.70595e-18
1539 16 0.001 0.00338034 0.00267109 -0.0458463 3.12147e-13 7.3672e-13 1.6462e-13 0 8.70595e-18
1935 18 0.001 0.0233803 0.00267109 -0.0458463 3.07518e-13 7.25356e-13 1.62088e-13 0 8.70595e-18
370 11 0.001 -0.0558641 0.00326592 -0.0455751 4.47661e-13 5.53592e-13 2.38724e-13 0 9.12194e-19
369 11 0.001 -0.0549874 0.00365302 -0.045293 4.96849e-13 3.41355e-13 2.65819e-13 0 1.76726e-18
368 11 0.001 -0.0540443 0.00380889 -0.0450027 5.67188e-13 1.31976e-13 2.54574e-13 0 1.06422e-18
367 11 0.001 -0.0530938 0.00372424 -0.0447073 5.17986e-13 -1.00025e-13 1.77078e-13 0 2.11915e-18
745 12 0.001 -0.0349875 0.00365298 -0.045293 5.00742e-13 3.32979e-13 2.76482e-13 0 1.47163e-18
746 12 0.001 -0.0358642 0.00326587 -0.0455751 3.98472e-13 5.43677e-13 2.36693e-13 0 8.56046e-19
744 12 0.001 -0.0340444 0.00380889 -0.0450027 5.21551e-13 1.18393e-13 2.54735e-13 0 8.8753e-19
743 12 0.001 -0.0330939 0.00372425 -0.0447073 4.8698e-13 -7.82369e-14 1.75231e-13 0 2.28905e-18
1142 14 0.001 -0.0158642 0.00326587 -0.0455751 3.78995e-13 5.41801e-13 2.31193e-13 0 8.56047e-19
1140 14 0.001 -0.0140444 0.00380889 -0.0450027 5.15539e-13 1.23919e-13 2.51392e-13 0 8.87531e-19
1141 14 0.001 -0.0149875 0.00365298 -0.045293 4.89323e-13 3.29264e-13 2.73234e-13 0 1.47163e-18
1139 14 0.001 -0.0130939 0.00372425 -0.0447073 5.14519e-13 -9.3965e-14 1.85984e-13 0 2.28905e-18
1538 16 0.001 0.00413577 0.00326587 -0.0455751 3.98429e-13 5.29815e-13 2.34894e-13 0 8.56046e-19
1537 16 0.001 0.00501246 0.00365298 -0.045293 4.78564e-13 3.3893e-13 2.70769e-13 0 1.47163e-18
1536 16 0.001 0.00595556 0.00380889 -0.0450027 5.1879e-13 1.17697e-13 2.52158e-13 0 8.87531e-19
1535 16 0.001 0.00690614 0.00372425 -0.0447073 5.09264e-13 -9.21044e-14 1.84413e-13 0 2.28905e-18
1933 18 0.001 0.0250125 0.00365298 -0.045293 4.7875e-13 3.4341e-13 2.7151e-13 0 1.47163e-18
1934 18 0.001 0.0241358 0.00326587 -0.0455751 4.09993e-13 5.30826e-13 2.37344e-13 0 8.56046e-19
1932 18 0.001 0.0259556 0.00380889 -0.0450027 5.06031e-13 1.11037e-13 2.48571e-13 0 8.8753e-19
1931 18 0.001 0.0269061 0.00372425 -0.0447073 5.34621e-13 -8.7979e-14 1.91666e-13 0 2.28905e-18
361 11 0.001 -0.0501606 -0.00059593 -0.0429836 -2.39551e-13 -8.51718e-13 -4.69247e-13 0 2.45105e-16
737 12 0.001 -0.0301606 -0.000595833 -0.0429835 -1.59096e-13 -8.1065e-13 -4.57699e-13 0 2.46068e-16
1133 14 0.001 -0.0101606 -0.000595833 -0.0429835 -2.04861e-13 -8.12087e-13 -4.57834e-13 0 2.46068e-16
1529 16 0.001 0.00983939 -0.000595833 -0.0429835 -1.96959e-13 -8.18919e-13 -4.55806e-13 0 2.46068e-16
1925 18 0.001 0.0298394 -0.000595833 -0.0429835 -1.74324e-13 -8.20819e-13 -4.55652e-13 0 2.46068e-16
362 11 0.001 -0.0501298 0.00036474 -0.0432559 4.63319e-14 -8.28047e-13 -4.01442e-13 0 2.12104e-16
363 11 0.001 -0.0503383 0.00130089 -0.0435355 1.15733e-13 -7.5365e-13 -3.12905e-13 0 1.58117e-16
738 12 0.001 -0.0301298 0.000364837 -0.0432559 -3.48979e-14 -7.94012e-13 -3.98715e-13 0 2.13184e-16
739 12 0.001 -0.0303384 0.00130098 -0.0435355 1.55735e-13 -7.36529e-13 -2.94452e-13 0 1.59278e-16
1134 14 0.001 -0.0101298 0.000364837 -0.0432559 4.80801e-16 -7.83185e-13 -3.99749e-13 0 2.13184e-16
1135 14 0.001 -0.0103384 0.00130098 -0.0435355 1.41909e-13 -7.45736e-13 -2.93569e-13 0 1.59278e-16
1530 16 0.001 0.00987018 0.000364837 -0.0432559 2.1681e-15 -7.84166e-13 -3.99293e-13 0 2.13184e-16
1531 16 0.001 0.00966163 0.00130098 -0.0435355 1.34667e-13 -7.46476e-13 -2.94336e-13 0 1.59278e-16
1926 18 0.001 0.0298702 0.000364837 -0.0432559 -2.08793e-14 -7.86765e-13 -4.00203e-13 0 2.13184e-16
1927 18 0.001 0.0296616 0.00130098 -0.0435355 1.65204e-13 -7.40594e-13 -2.91787e-13 0 1.59278e-16
365 11 0.001 -0.0514049 0.00286993 -0.0441141 4.13176e-13 -5.27023e-13 -3.97903e-14 0 4.67716e-17
364 11 0.001 -0.0507726 0.00215377 -0.0438219 3.19841e-13 -6.41315e-13 -1.79302e-13 0 9.78368e-17
740 12 0.001 -0.0307727 0.00215385 -0.0438219 2.74337e-13 -6.37247e-13 -1.6888e-13 0 9.89644e-17
741 12 0.001 -0.0314049 0.00286999 -0.0441141 3.90484e-13 -4.58224e-13 -4.82878e-14 0 4.77037e-17
1136 14 0.001 -0.0107727 0.00215385 -0.0438219 2.77656e-13 -6.29419e-13 -1.70063e-13 0 9.89644e-17
1137 14 0.001 -0.0114049 0.00286999 -0.0441141 3.85515e-13 -4.64384e-13 -4.80129e-14 0 4.77037e-17
1533 16 0.001 0.00859506 0.00286999 -0.0441141 3.89736e-13 -4.66348e-13 -4.67044e-14 0 4.77037e-17
1532 16 0.001 0.00922735 0.00215385 -0.0438219 2.7919e-13 -6.26598e-13 -1.7061e-13 0 9.89644e-17
1928 18 0.001 0.0292273 0.00215385 -0.0438219 2.6836e-13 -6.38044e-13 -1.69136e-13 0 9.89643e-17
1929 18 0.001 0.0285951 0.00286999 -0.0441141 3.74251e-13 -4.52764e-13 -5.31427e-14 0 4.77037e-17
366 11 0.001 -0.0521952 0.00340456 -0.0444101 5.2535e-13 -2.90685e-13 8.12102e-14 0 1.47442e-17
742 12 0.001 -0.0321953 0.0034046 -0.0444101 4.91827e-13 -3.1025e-13 9.61881e-14 0 1.53299e-17
1138 14 0.001 -0.0121953 0.0034046 -0.0444101 4.85396e-13 -2.97922e-13 9.20553e-14 0 1.53299e-17
1534 16 0.001 0.00780475 0.0034046 -0.0444101 4.87138e-13 -2.98474e-13 9.27713e-14 0 1.53299e-17
1930 18 0.001 0.0278047 0.0034046 -0.0444101 4.818e-13 -3.01983e-13 9.13101e-14 0 1.53299e-17
355 11 0.001 -0.0543234 -0.00384326 -0.0414445 -7.28016e-13 -5.75384e-14 -1.38205e-13 0 5.81261e-17
356 11 0.001 -0.0533576 -0.00380595 -0.0416973 -7.15111e-13 -2.26182e-13 -2.44655e-13 0 9.09527e-17
357 11 0.001 -0.0524308 -0.00353114 -0.0419494 -5.86127e-13 -4.0777e-13 -3.59622e-13 0 1.34761e-16
358 11 0.001 -0.0516009 -0.00303597 -0.0422025 -6.58508e-13 -5.88069e-13 -4.08127e-13 0 1.83244e-16
731 12 0.001 -0.0343233 -0.00384328 -0.0414445 -6.44339e-13 -5.5028e-14 -1.4273e-13 0 5.90858e-17
732 12 0.001 -0.0333575 -0.00380594 -0.0416972 -6.82214e-13 -2.45609e-13 -2.32813e-13 0 9.19168e-17
733 12 0.001 -0.0324307 -0.0035311 -0.0419494 -6.3283e-13 -3.95553e-13 -3.32286e-13 0 1.35695e-16
734 12 0.001 -0.0316008 -0.00303591 -0.0422024 -5.33924e-13 -5.53579e-13 -4.21306e-13 0 1.84128e-16
1127 14 0.001 -0.0143233 -0.00384328 -0.0414445 -6.02476e-13 -6.4235e-14 -1.55455e-13 0 5.90858e-17
1128 14 0.001 -0.0133575 -0.00380594 -0.0416972 -6.68536e-13 -2.37169e-13 -2.35284e-13 0 9.19168e-17
1129 14 0.001 -0.0124307 -0.0035311 -0.0419494 -6.4122e-13 -4.05367e-13 -3.29308e-13 0 1.35695e-16
1130 14 0.001 -0.0116008 -0.00303591 -0.0422024 -5.54621e-13 -5.45862e-13 -4.18516e-13 0 1.84128e-16
1523 16 0.001 0.00567673 -0.00384328 -0.0414445 -5.98556e-13 -6.57294e-14 -1.5606e-13 0 5.90858e-17
1524 16 0.001 0.00664252 -0.00380594 -0.0416972 -6.71829e-13 -2.3105e-13 -2.34709e-13 0 9.19168e-17
1525 16 0.001 0.00756929 -0.0035311 -0.0419494 -6.43773e-13 -4.08911e-13 -3.2849e-13 0 1.35695e-16
1526 16 0.001 0.00839922 -0.00303591 -0.0422024 -5.56783e-13 -5.47572e-13 -4.18162e-13 0 1.84128e-16
1919 18 0.001 0.0256767 -0.00384328 -0.0414445 -5.74314e-13 -6.75294e-14 -1.62185e-13 0 5.90858e-17
1920 18 0.001 0.0266425 -0.00380594 -0.0416972 -6.79553e-13 -2.29965e-13 -2.32823e-13 0 9.19168e-17
1921 18 0.001 0.0275693 -0.0035311 -0.0419494 -6.47181e-13 -4.08826e-13 -3.27946e-13 0 1.35695e-16
1922 18 0.001 0.0283992 -0.00303591 -0.0422024 -5.4714e-13 -5.49832e-13 -4.1968e-13 0 1.84128e-16
359 11 0.001 -0.0509196 -0.0023515 -0.0424581 -4.68903e-13 -6.99934e-13 -4.82213e-13 0 2.25503e-16
360 11 0.001 -0.0504293 -0.00152073 -0.042718 -3.21768e-13 -7.95934e-13 -4.93527e-13 0 2.49139e-16
735 12 0.001 -0.0309195 -0.00235142 -0.0424581 -4.99916e-13 -6.90723e-13 -4.55866e-13 0 2.26355e-16
736 12 0.001 -0.0304293 -0.00152064 -0.0427179 -3.32541e-13 -7.52347e-13 -4.91673e-13 0 2.50014e-16
1131 14 0.001 -0.0109195 -0.00235142 -0.0424581 -4.88582e-13 -6.89031e-13 -4.59617e-13 0 2.26355e-16
1132 14 0.001 -0.0104293 -0.00152064 -0.0427179 -3.10346e-13 -7.62438e-13 -4.88465e-13 0 2.50014e-16
1527 16 0.001 0.0090805 -0.00235142 -0.0424581 -4.80152e-13 -6.92767e-13 -4.58897e-13 0 2.26355e-16
1528 16 0.001 0.00957069 -0.00152064 -0.0427179 -3.21746e-13 -7.49178e-13 -4.9191e-13 0 2.50014e-16
1923 18 0.001 0.0290805 -0.00235142 -0.0424581 -4.8158e-13 -6.92589e-13 -4.5784e-13 0 2.26355e-16
1924 18 0.001 0.0295707 -0.00152064 -0.0427179 -3.38512e-13 -7.47559e-13 -4.91831e-13 0 2.50014e-16
353 11 0.001 -0.0561326 -0.00321137 -0.040933 -4.92084e-13 3.06283e-13 -2.95656e-14 0 2.78681e-17
354 11 0.001 -0.055268 -0.00364081 -0.04119 -5.6785e-13 9.93271e-14 -8.84676e-14 0 3.76506e-17
729 12 0.001 -0.0361325 -0.00321143 -0.040933 -4.91757e-13 2.53595e-13 -9.29218e-15 0 2.88289e-17
730 12 0.001 -0.0352679 -0.00364085 -0.04119 -5.66108e-13 1.15863e-13 -7.19542e-14 0 3.85923e-17
1125 14 0.001 -0.0161325 -0.00321143 -0.040933 -4.56072e-13 2.5202e-13 -1.76505e-14 0 2.88289e-17
1126 14 0.001 -0.0152679 -0.00364085 -0.04119 -6.28222e-13 1.26403e-13 -5.48688e-14 0 3.85923e-17
1521 16 0.001 0.00386752 -0.00321143 -0.040933 -4.54559e-13 2.57195e-13 -1.65575e-14 0 2.88289e-17
1522 16 0.001 0.00473213 -0.00364085 -0.04119 -6.28967e-13 1.23421e-13 -5.54887e-14 0 3.85923e-17
1917 18 0.001 0.0238675 -0.00321143 -0.040933 -4.5077e-13 2.57354e-13 -1.7833e-14 0 2.88289e-17
1918 18 0.001 0.0247321 -0.00364085 -0.04119 -6.55363e-13 1.26517e-13 -4.86711e-14 0 3.85923e-17
351 11 0.001 -0.0574152 -0.00179152 -0.0404104 -2.79084e-13 5.31541e-13 -1.46116e-14 0 3.40592e-17
352 11 0.001 -0.0568634 -0.00258182 -0.0406731 -3.73198e-13 4.2325e-13 1.04435e-14 0 2.67962e-17
727 12 0.001 -0.0374151 -0.00179163 -0.0404104 -2.62645e-13 4.94039e-13 5.57388e-15 0 3.53964e-17
728 12 0.001 -0.0368634 -0.00258192 -0.0406731 -3.44619e-13 4.28499e-13 1.23167e-14 0 2.78737e-17
1123 14 0.001 -0.0174151 -0.00179163 -0.0404104 -2.49609e-13 5.02306e-13 5.95992e-15 0 3.53964e-17
1124 14 0.001 -0.0168634 -0.00258192 -0.0406731 -3.62403e-13 4.20438e-13 1.38255e-14 0 2.78737e-17
1519 16 0.001 0.00258488 -0.00179163 -0.0404104 -2.09492e-13 5.08926e-13 3.97454e-15 0 3.53964e-17
1520 16 0.001 0.00313665 -0.00258192 -0.0406731 -3.75248e-13 4.12147e-13 1.3074e-14 0 2.78737e-17
1915 18 0.001 0.0225849 -0.00179163 -0.0404104 -2.38069e-13 5.05938e-13 5.91435e-15 0 3.53964e-17
1916 18 0.001 0.0231366 -0.00258192 -0.0406731 -3.59873e-13 4.12683e-13 1.1329e-14 0 2.78737e-17
350 11 0.001 -0.0577536 -0.000889756 -0.0401453 -1.04906e-14 6.37113e-13 -4.11622e-14 0 5.1145e-17
726 12 0.001 -0.0377536 -0.000889874 -0.0401452 3.05918e-14 5.736e-13 -4.84839e-14 0 5.2895e-17
1122 14 0.001 -0.0177536 -0.000889874 -0.0401452 1.41755e-14 5.73608e-13 -4.77062e-14 0 5.2895e-17
1518 16 0.001 0.00224643 -0.000889874 -0.0401452 -3.08768e-14 5.71307e-13 -4.53852e-14 0 5.2895e-17
1914 18 0.001 0.0222464 -0.000889874 -0.0401452 -1.54794e-15 5.71114e-13 -4.7429e-14 0 5.2895e-17
348 11 0.001 -0.0577213 0.00101992 -0.0396103 2.67018e-13 6.48666e-13 -1.88483e-13 0 1.21277e-16
349 11 0.001 -0.0578578 6.72687e-05 -0.0398783 1.59923e-13 6.37185e-13 -1.1601e-13 0 8.0062e-17
724 12 0.001 -0.0377213 0.0010198 -0.0396102 3.60056e-13 6.06141e-13 -1.7332e-13 0 1.24152e-16
725 12 0.001 -0.0378578 6.71476e-05 -0.0398783 8.2943e-14 6.09782e-13 -9.96679e-14 0 8.23462e-17
1120 14 0.001 -0.0177213 0.0010198 -0.0396102 3.05269e-13 6.09164e-13 -1.77265e-13 0 1.24152e-16
1121 14 0.001 -0.0178578 6.71476e-05 -0.0398783 1.12903e-13 6.05929e-13 -9.97564e-14 0 8.23462e-17
1516 16 0.001 0.00227868 0.0010198 -0.0396102 3.01406e-13 6.13757e-13 -1.76175e-13 0 1.24152e-16
1517 16 0.001 0.00214223 6.71476e-05 -0.0398783 1.34209e-13 6.03884e-13 -1.00967e-13 0 8.23462e-17
1912 18 0.001 0.0222787 0.0010198 -0.0396102 2.88719e-13 6.12246e-13 -1.77742e-13 0 1.24152e-16
1913 18 0.001 0.0221422 6.71476e-05 -0.0398783 1.28421e-13 6.05301e-13 -9.96204e-14 0 8.23462e-17
347 11 0.001 -0.0573527 0.00190881 -0.0393419 5.34696e-13 5.77192e-13 -2.57896e-13 0 1.72109e-16
346 11 0.001 -0.056775 0.0026785 -0.0390737 5.72721e-13 5.17493e-13 -3.33557e-13 0 2.26456e-16
722 12 0.001 -0.0367751 0.00267841 -0.0390737 6.63259e-13 4.62716e-13 -3.08388e-13 0 2.30368e-16
723 12 0.001 -0.0373528 0.0019087 -0.0393418 4.03321e-13 5.81926e-13 -2.52381e-13 0 1.75551e-16
1118 14 0.001 -0.0167751 0.00267841 -0.0390737 6.06007e-13 4.74654e-13 -3.15774e-13 0 2.30368e-16
1119 14 0.001 -0.0173528 0.0019087 -0.0393418 4.69164e-13 5.72765e-13 -2.46011e-13 0 1.75551e-16
1515 16 0.001 0.00264722 0.0019087 -0.0393418 4.74035e-13 5.69942e-13 -2.45867e-13 0 1.75551e-16
1514 16 0.001 0.00322486 0.00267841 -0.0390737 5.97024e-13 4.74309e-13 -3.17356e-13 0 2.30368e-16
1910 18 0.001 0.0232249 0.00267841 -0.0390737 5.971e-13 4.8351e-13 -3.16337e-13 0 2.30368e-16
1911 18 0.001 0.0226472 0.0019087 -0.0393418 4.77364e-13 5.65508e-13 -2.46551e-13 0 1.75551e-16
345 11 0.001 -0.0560243 0.00328093 -0.0388064 7.85144e-13 3.82027e-13 -3.5686e-13 0 2.76067e-16
344 11 0.001 -0.0551473 0.00367844 -0.0385401 7.88597e-13 2.47953e-13 -3.886e-13 0 3.12837e-16
721 12 0.001 -0.0360244 0.00328087 -0.0388063 6.6176e-13 3.71934e-13 -3.62992e-13 0 2.80306e-16
720 12 0.001 -0.0351475 0.0036784 -0.03854 7.64895e-13 2.30008e-13 -3.78471e-13 0 3.17244e-16
1117 14 0.001 -0.0160244 0.00328087 -0.0388063 7.08419e-13 3.67088e-13 -3.53803e-13 0 2.80306e-16
1116 14 0.001 -0.0151475 0.0036784 -0.03854 7.67417e-13 2.33149e-13 -3.76569e-13 0 3.17244e-16
1513 16 0.001 0.00397559 0.00328087 -0.0388063 7.11886e-13 3.68669e-13 -3.5313e-13 0 2.80306e-16
1512 16 0.001 0.00485255 0.0036784 -0.03854 7.61916e-13 2.31768e-13 -3.77675e-13 0 3.17244e-16
1909 18 0.001 0.0239756 0.00328087 -0.0388063 7.29875e-13 3.62038e-13 -3.49392e-13 0 2.80306e-16
1908 18 0.001 0.0248525 0.0036784 -0.03854 7.51801e-13 2.37139e-13 -3.79596e-13 0 3.17244e-16
338 11 0.001 -0.0504079 0.00138192 -0.0369578 2.73663e-13 -5.04851e-13 -8.40201e-14 0 2.0669e-16
714 12 0.001 -0.0304079 0.00138205 -0.0369577 3.5783e-13 -5.05248e-13 -5.05189e-14 0 2.10243e-16
1110 14 0.001 -0.0104079 0.00138205 -0.0369577 3.23068e-13 -5.14615e-13 -5.11619e-14 0 2.10243e-16
1506 16 0.001 0.00959206 0.00138205 -0.0369577 3.35116e-13 -5.07109e-13 -5.15546e-14 0 2.10243e-16
1902 18 0.001 0.0295921 0.00138205 -0.0369577 3.07668e-13 -5.08052e-13 -5.44904e-14 0 2.10243e-16
340 11 0.001 -0.0515172 0.00293962 -0.0374841 6.059e-13 -3.45859e-13 -2.1078e-13 0 2.78952e-16
339 11 0.001 -0.0508645 0.00223055 -0.0372211 5.35727e-13 -4.52961e-13 -1.23624e-13 0 2.42398e-16
716 12 0.001 -0.0315173 0.00293971 -0.0374841 6.05642e-13 -3.18808e-13 -1.96543e-13 0 2.82915e-16
715 12 0.001 -0.0308646 0.00223066 -0.0372211 4.62635e-13 -4.18994e-13 -1.27223e-13 0 2.46147e-16
1111 14 0.001 -0.0108646 0.00223066 -0.0372211 4.78572e-13 -3.98528e-13 -1.2967e-13 0 2.46147e-16
1112 14 0.001 -0.0115173 0.00293971 -0.0374841 5.8445e-13 -3.34814e-13 -1.98321e-13 0 2.82915e-16
1508 16 0.001 0.00848267 0.00293971 -0.0374841 6.03437e-13 -3.29574e-13 -1.93968e-13 0 2.82915e-16
1507 16 0.001 0.00913541 0.00223066 -0.0372211 4.64523e-13 -4.09304e-13 -1.30292e-13 0 2.46147e-16
1904 18 0.001 0.0284827 0.00293971 -0.0374841 5.94727e-13 -3.31079e-13 -1.95144e-13 0 2.82915e-16
1903 18 0.001 0.0291354 0.00223066 -0.0372211 4.8119e-13 -4.0146e-13 -1.29796e-13 0 2.46147e-16
343 11 0.001 -0.0541989 0.00384612 -0.0382749 8.33456e-13 7.80978e-14 -3.70228e-13 0 3.31165e-16
342 11 0.001 -0.0532382 0.00377343 -0.0380107 8.27671e-13 -7.5223e-14 -3.27137e-13 0 3.29446e-16
341 11 0.001 -0.0523253 0.00346485 -0.0377472 7.1925e-13 -2.15225e-13 -2.8012e-13 0 3.10203e-16
719 12 0.001 -0.034199 0.00384612 -0.0382748 8.41166e-13 6.83037e-14 -3.46048e-13 0 3.35594e-16
718 12 0.001 -0.0332383 0.00377346 -0.0380106 7.75419e-13 -5.74298e-14 -3.23281e-13 0 3.33783e-16
717 12 0.001 -0.0323254 0.00346491 -0.0377472 6.64511e-13 -2.05943e-13 -2.75016e-13 0 3.14372e-16
1115 14 0.001 -0.014199 0.00384612 -0.0382748 7.94626e-13 7.82526e-14 -3.59337e-13 0 3.35594e-16
1113 14 0.001 -0.0123254 0.00346491 -0.0377472 7.27324e-13 -2.03714e-13 -2.59633e-13 0 3.14372e-16
1114 14 0.001 -0.0132383 0.00377346 -0.0380106 7.56835e-13 -7.07689e-14 -3.27248e-13 0 3.33783e-16
1511 16 0.001 0.005801 0.00384612 -0.0382748 8.01269e-13 8.07712e-14 -3.5873e-13 0 3.35594e-16
1510 16 0.001 0.00676169 0.00377346 -0.0380106 7.72678e-13 -7.61236e-14 -3.21223e-13 0 3.33783e-16
1509 16 0.001 0.0076746 0.00346491 -0.0377472 6.99776e-13 -2.00603e-13 -2.68196e-13 0 3.14372e-16
1907 18 0.001 0.025801 0.00384612 -0.0382748 7.816e-13 7.61662e-14 -3.63907e-13 0 3.35594e-16
1906 18 0.001 0.0267617 0.00377346 -0.0380106 8.0194e-13 -7.48927e-14 -3.13683e-13 0 3.33783e-16
1905 18 0.001 0.0276746 0.00346491 -0.0377472 6.90828e-13 -2.01519e-13 -2.70539e-13 0 3.14372e-16
333 11 0.001 -0.0515597 -0.0029877 -0.0356318 -4.60913e-13 -2.84898e-13 -9.25529e-14 0 1.38432e-16
334 11 0.001 -0.0508971 -0.00228909 -0.0358982 -3.59625e-13 -4.41581e-13 -2.61759e-14 0 1.35176e-16
709 12 0.001 -0.0315596 -0.00298761 -0.0356318 -4.26165e-13 -2.66529e-13 -7.77647e-14 0 1.41952e-16
710 12 0.001 -0.030897 -0.00228898 -0.0358981 -2.86393e-13 -3.86076e-13 -3.8096e-14 0 1.38533e-16
1105 14 0.001 -0.0115596 -0.00298761 -0.0356318 -4.19813e-13 -2.73491e-13 -8.0605e-14 0 1.41952e-16
1106 14 0.001 -0.010897 -0.00228898 -0.0358981 -3.10311e-13 -3.87735e-13 -3.06108e-14 0 1.38533e-16
1501 16 0.001 0.00844041 -0.00298761 -0.0356318 -4.13271e-13 -2.68483e-13 -8.17786e-14 0 1.41952e-16
1502 16 0.001 0.00910299 -0.00228898 -0.0358981 -3.20555e-13 -3.87043e-13 -3.14754e-14 0 1.38533e-16
1897 18 0.001 0.0284404 -0.00298761 -0.0356318 -4.09891e-13 -2.75017e-13 -8.16744e-14 0 1.41952e-16
1898 18 0.001 0.029103 -0.00228898 -0.0358981 -3.24689e-13 -3.85611e-13 -3.00368e-14 0 1.38533e-16
335 11 0.001 -0.0504284 -0.00144789 -0.036164 -1.22521e-13 -4.65643e-13 -2.13159e-14 0 1.40121e-16
336 11 0.001 -0.0501829 -0.000516566 -0.0364293 -9.50065e-14 -5.29083e-13 -1.25551e-14 0 1.53816e-16
711 12 0.001 -0.0304283 -0.00144776 -0.036164 -1.95891e-13 -4.55682e-13 4.26636e-15 0 1.43407e-16
712 12 0.001 -0.0301828 -0.00051643 -0.0364293 1.99045e-14 -5.06805e-13 3.2305e-15 0 1.57118e-16
1107 14 0.001 -0.0104283 -0.00144776 -0.036164 -1.63584e-13 -4.47061e-13 -3.79022e-15 0 1.43407e-16
1108 14 0.001 -0.0101828 -0.00051643 -0.0364293 -1.79021e-14 -5.1192e-13 7.63006e-15 0 1.57118e-16
1503 16 0.001 0.00957167 -0.00144776 -0.036164 -1.5431e-13 -4.55928e-13 2.153e-16 0 1.43407e-16
1504 16 0.001 0.00981717 -0.00051643 -0.0364293 -2.0922e-14 -5.07535e-13 4.93309e-15 0 1.57118e-16
1899 18 0.001 0.0295717 -0.00144776 -0.036164 -1.63137e-13 -4.54762e-13 -6.24179e-16 0 1.43407e-16
1900 18 0.001 0.0298172 -0.00051643 -0.0364293 -1.13719e-14 -5.09372e-13 4.84214e-15 0 1.57118e-16
337 11 0.001 -0.0501759 0.000446748 -0.0366939 2.52298e-13 -5.63937e-13 -1.27919e-14 0 1.76317e-16
713 12 0.001 -0.0301759 0.000446884 -0.0366938 1.23435e-13 -4.88212e-13 -3.02343e-14 0 1.79715e-16
1109 14 0.001 -0.0101759 0.000446884 -0.0366938 1.61708e-13 -4.85156e-13 -3.0633e-14 0 1.79715e-16
1505 16 0.001 0.00982413 0.000446884 -0.0366938 1.55439e-13 -4.84869e-13 -3.04097e-14 0 1.79715e-16
1901 18 0.001 0.0298241 0.000446884 -0.0366938 1.70055e-13 -4.86915e-13 -2.80683e-14 0 1.79715e-16
328 11 0.001 -0.0560691 -0.00325825 -0.0343014 -6.08708e-13 4.0782e-13 -3.01692e-13 0 2.35009e-16
329 11 0.001 -0.0551982 -0.00366954 -0.0345667 -5.78889e-13 2.70596e-13 -3.04258e-13 0 2.11184e-16
330 11 0.001 -0.0542527 -0.00385203 -0.0348325 -6.64137e-13 1.17669e-13 -2.49093e-13 0 1.87326e-16
331 11 0.001 -0.0532916 -0.00379434 -0.0350988 -6.34365e-13 -3.14487e-14 -1.9832e-13 0 1.65904e-16
332 11 0.001 -0.0523748 -0.0035001 -0.0353653 -5.48629e-13 -1.73408e-13 -1.43146e-13 0 1.49061e-16
704 12 0.001 -0.036069 -0.00325834 -0.0343013 -5.44352e-13 3.74064e-13 -3.00559e-13 0 2.40126e-16
705 12 0.001 -0.0351981 -0.0036696 -0.0345666 -5.72306e-13 2.65565e-13 -2.85173e-13 0 2.15962e-16
706 12 0.001 -0.0342525 -0.00385205 -0.0348325 -6.32553e-13 1.12677e-13 -2.36628e-13 0 1.91749e-16
707 12 0.001 -0.0332914 -0.00379432 -0.0350987 -5.65542e-13 -2.05149e-14 -1.95743e-13 0 1.6998e-16
708 12 0.001 -0.0323747 -0.00350005 -0.0353652 -5.58367e-13 -1.69296e-13 -1.23153e-13 0 1.52827e-16
1100 14 0.001 -0.016069 -0.00325834 -0.0343013 -5.23749e-13 3.89291e-13 -3.01479e-13 0 2.40126e-16
1101 14 0.001 -0.0151981 -0.0036696 -0.0345666 -5.9775e-13 2.49112e-13 -2.80821e-13 0 2.15962e-16
1102 14 0.001 -0.0142525 -0.00385205 -0.0348325 -6.08766e-13 1.25399e-13 -2.41999e-13 0 1.91749e-16
1104 14 0.001 -0.0123747 -0.00350005 -0.0353652 -5.39183e-13 -1.58913e-13 -1.2742e-13 0 1.52827e-16
1103 14 0.001 -0.0132914 -0.00379432 -0.0350987 -5.90733e-13 -2.93705e-14 -1.89691e-13 0 1.6998e-16
1496 16 0.001 0.00393099 -0.00325834 -0.0343013 -5.4308e-13 3.78839e-13 -2.98646e-13 0 2.40126e-16
1497 16 0.001 0.00480191 -0.0036696 -0.0345666 -5.89733e-13 2.55958e-13 -2.82256e-13 0 2.15962e-16
1498 16 0.001 0.00574746 -0.00385205 -0.0348325 -6.10501e-13 1.25237e-13 -2.41327e-13 0 1.91749e-16
1499 16 0.001 0.00670859 -0.00379432 -0.0350987 -5.94753e-13 -2.98943e-14 -1.8902e-13 0 1.6998e-16
1500 16 0.001 0.00762532 -0.00350005 -0.0353652 -5.38599e-13 -1.62202e-13 -1.27193e-13 0 1.52827e-16
1892 18 0.001 0.023931 -0.00325834 -0.0343013 -5.16051e-13 3.76911e-13 -3.04509e-13 0 2.40126e-16
1893 18 0.001 0.0248019 -0.0036696 -0.0345666 -6.0939e-13 2.61123e-13 -2.77429e-13 0 2.15962e-16
1894 18 0.001 0.0257475 -0.00385205 -0.0348325 -5.99653e-13 1.21111e-13 -2.44072e-13 0 1.91749e-16
1895 18 0.001 0.0267086 -0.00379432 -0.0350987 -5.98377e-13 -3.22753e-14 -1.88011e-13 0 1.6998e-16
1896 18 0.001 0.0276253 -0.00350005 -0.0353652 -5.37308e-13 -1.55137e-13 -1.28149e-13 0 1.52827e-16
327 11 0.001 -0.056811 -0.00264379 -0.0340367 -4.96011e-13 5.06722e-13 -3.10422e-13 0 2.56389e-16
703 12 0.001 -0.0368109 -0.00264391 -0.0340366 -4.59459e-13 4.83203e-13 -2.97613e-13 0 2.61808e-16
1099 14 0.001 -0.0168109 -0.00264391 -0.0340366 -4.70947e-13 4.79265e-13 -2.97542e-13 0 2.61808e-16