ITEM: TIMESTEP
7100000
ITEM: NUMBER OF ATOMS
1970
ITEM: BOX BOUNDS ff ff ff
-6.0000000000000005e-02 6.0000000000000005e-02
-6.0000000000000001e-03 6.0000000000000001e-03
-5.5000000000000000e-02 5.5000000000000000e-02
ITEM: ATOMS id type radius x y z fx fy fz c_bendingE c_stretchingE
384 11 0.001 -0.0508192 -0.00263705 -0.0489935 -3.72408e-13 4.31474e-14 -1.21318e-13 0 2.3085e-17
385 11 0.001 -0.0503199 -0.00183452 -0.0493171 -2.3021e-13 3.9232e-14 -7.85554e-14 0 9.45525e-15
760 12 0.001 -0.0308189 -0.00263702 -0.0489932 -3.45081e-13 2.89013e-14 -9.15327e-14 0 2.35431e-17
761 12 0.001 -0.0303197 -0.00183447 -0.0493169 -1.90388e-13 3.77836e-14 -6.89252e-14 0 9.37333e-15
1156 14 0.001 -0.0108189 -0.00263702 -0.0489932 -3.51373e-13 2.82627e-14 -8.9843e-14 0 2.35431e-17
1157 14 0.001 -0.0103197 -0.00183447 -0.0493169 -2.01929e-13 3.81538e-14 -6.84742e-14 0 9.37333e-15
1552 16 0.001 0.00918113 -0.00263702 -0.0489932 -3.50372e-13 2.41885e-14 -8.88844e-14 0 2.35431e-17
1553 16 0.001 0.00968027 -0.00183447 -0.0493169 -1.98912e-13 3.99259e-14 -6.91561e-14 0 9.37333e-15
1948 18 0.001 0.0291811 -0.00263702 -0.0489932 -2.95416e-13 1.95135e-14 -9.6725e-14 0 2.35431e-17
1949 18 0.001 0.0296803 -0.00183447 -0.0493169 -2.33452e-13 4.43428e-14 -6.66231e-14 0 9.37333e-15
2 2 0.001 -0.05 -4.31175e-17 -0.05 -2.74197e-06 2.95753e-06 2.00355e-06 0 8.31434e-15
386 11 0.001 -0.0500412 -0.000936368 -0.0496543 -1.03355e-13 -7.9205e-15 -2.85785e-14 0 1.77599e-14
762 12 0.001 -0.0300411 -0.000936328 -0.0496541 -1.25066e-13 -2.41188e-14 -6.63494e-15 0 1.75851e-14
4 4 0.001 -0.03 -4.31175e-17 -0.05 -2.76678e-06 3.01874e-06 1.98766e-06 0 8.2238e-15
6 6 0.001 -0.01 -4.31175e-17 -0.05 -2.76678e-06 3.01874e-06 1.98766e-06 0 8.2238e-15
1158 14 0.001 -0.0100411 -0.000936328 -0.0496541 -1.13494e-13 -2.52595e-14 -6.88299e-15 0 1.75851e-14
8 8 0.001 0.01 -4.31175e-17 -0.05 -2.76678e-06 3.01874e-06 1.98766e-06 0 8.2238e-15
1554 16 0.001 0.00995889 -0.000936328 -0.0496541 -1.1677e-13 -2.6314e-14 -6.36857e-15 0 1.75851e-14
10 10 0.001 0.03 -4.31175e-17 -0.05 -2.76678e-06 3.01874e-06 1.98766e-06 0 8.2238e-15
1950 18 0.001 0.0299589 -0.000936328 -0.0496541 -1.02592e-13 -2.13867e-14 -8.84891e-15 0 1.75851e-14
379 11 0.001 -0.0551864 -0.00378111 -0.0476527 -5.18214e-13 4.77115e-13 -4.22501e-13 0 9.8034e-16
380 11 0.001 -0.0542425 -0.00401183 -0.0478849 -5.15138e-13 3.59799e-13 -3.96802e-13 0 8.47668e-16
381 11 0.001 -0.0532749 -0.00400355 -0.0481331 -5.41504e-13 2.77527e-13 -3.33627e-13 0 6.08986e-16
382 11 0.001 -0.052344 -0.00375813 -0.0484001 -5.12597e-13 1.93031e-13 -2.65856e-13 0 3.34364e-16
383 11 0.001 -0.0515081 -0.00329241 -0.0486871 -3.65847e-13 1.22665e-13 -2.12246e-13 0 1.12811e-16
755 12 0.001 -0.035186 -0.00378142 -0.0476523 -5.15281e-13 4.37375e-13 -3.8762e-13 0 9.86824e-16
756 12 0.001 -0.0342421 -0.00401205 -0.0478844 -4.82578e-13 3.58009e-13 -3.64437e-13 0 8.4901e-16
757 12 0.001 -0.0332744 -0.00400369 -0.0481327 -5.08847e-13 2.55674e-13 -2.99784e-13 0 6.05475e-16
758 12 0.001 -0.0323436 -0.0037582 -0.0483997 -4.67678e-13 1.90862e-13 -2.37459e-13 0 3.28042e-16
759 12 0.001 -0.0315077 -0.00329242 -0.0486867 -3.58188e-13 1.41392e-13 -1.89303e-13 0 1.07446e-16
1151 14 0.001 -0.015186 -0.00378142 -0.0476523 -4.98637e-13 4.41813e-13 -3.91315e-13 0 9.86824e-16
1152 14 0.001 -0.0142421 -0.00401205 -0.0478844 -4.97729e-13 3.48872e-13 -3.60477e-13 0 8.4901e-16
1153 14 0.001 -0.0132744 -0.00400369 -0.0481327 -4.97567e-13 2.60567e-13 -3.03094e-13 0 6.05475e-16
1154 14 0.001 -0.0123436 -0.0037582 -0.0483997 -4.72627e-13 1.92144e-13 -2.36728e-13 0 3.28042e-16
1155 14 0.001 -0.0115077 -0.00329242 -0.0486867 -3.47907e-13 1.39338e-13 -1.90611e-13 0 1.07446e-16
1547 16 0.001 0.00481401 -0.00378142 -0.0476523 -4.94892e-13 4.41658e-13 -3.92677e-13 0 9.86824e-16
1548 16 0.001 0.00575791 -0.00401205 -0.0478844 -5.02242e-13 3.4849e-13 -3.5779e-13 0 8.4901e-16
1549 16 0.001 0.00672556 -0.00400369 -0.0481327 -4.91553e-13 2.6754e-13 -3.07304e-13 0 6.05475e-16
1550 16 0.001 0.00765639 -0.0037582 -0.0483997 -4.68943e-13 1.84899e-13 -2.35042e-13 0 3.28042e-16
1551 16 0.001 0.00849226 -0.00329242 -0.0486867 -3.53719e-13 1.4422e-13 -1.91141e-13 0 1.07446e-16
1943 18 0.001 0.024814 -0.00378142 -0.0476523 -5.09193e-13 4.39243e-13 -3.89894e-13 0 9.86824e-16
1944 18 0.001 0.0257579 -0.00401205 -0.0478844 -5.05139e-13 3.50146e-13 -3.57159e-13 0 8.4901e-16
1945 18 0.001 0.0267256 -0.00400369 -0.0481327 -4.92585e-13 2.68669e-13 -3.07035e-13 0 6.05475e-16
1946 18 0.001 0.0276564 -0.0037582 -0.0483997 -4.41018e-13 1.81278e-13 -2.41563e-13 0 3.28042e-16
1947 18 0.001 0.0284923 -0.00329242 -0.0486867 -4.07481e-13 1.44881e-13 -1.79596e-13 0 1.07446e-16
378 11 0.001 -0.0560474 -0.00332473 -0.0474328 -5.13414e-13 5.35796e-13 -4.22818e-13 0 9.75946e-16
754 12 0.001 -0.0360471 -0.00332511 -0.0474324 -4.50277e-13 5.07013e-13 -4.01666e-13 0 9.86507e-16
1150 14 0.001 -0.0160471 -0.00332511 -0.0474324 -4.41518e-13 5.10694e-13 -4.02605e-13 0 9.86507e-16
1546 16 0.001 0.00395295 -0.00332511 -0.0474324 -4.60812e-13 5.10218e-13 -3.98141e-13 0 9.86507e-16
1942 18 0.001 0.0239529 -0.00332511 -0.0474324 -4.35944e-13 5.14539e-13 -4.02446e-13 0 9.86507e-16
376 11 0.001 -0.0573142 -0.00185825 -0.04701 -3.03771e-13 6.42575e-13 -3.56536e-13 0 6.40221e-16
377 11 0.001 -0.0567717 -0.00267036 -0.0472202 -4.05235e-13 6.06249e-13 -4.05122e-13 0 8.47226e-16
753 12 0.001 -0.0367714 -0.00267079 -0.0472199 -3.78028e-13 5.68147e-13 -3.8585e-13 0 8.6004e-16
752 12 0.001 -0.037314 -0.00185873 -0.0470098 -2.73922e-13 6.15983e-13 -3.3235e-13 0 6.53294e-16
1149 14 0.001 -0.0167714 -0.00267079 -0.0472199 -4.18058e-13 5.7555e-13 -3.77467e-13 0 8.6004e-16
1148 14 0.001 -0.017314 -0.00185873 -0.0470098 -2.95423e-13 6.01779e-13 -3.38071e-13 0 6.53294e-16
1544 16 0.001 0.00268595 -0.00185873 -0.0470098 -3.19572e-13 6.06596e-13 -3.33704e-13 0 6.53294e-16
1545 16 0.001 0.00322855 -0.00267079 -0.0472199 -3.86816e-13 5.69781e-13 -3.84221e-13 0 8.6004e-16
1941 18 0.001 0.0232286 -0.00267079 -0.0472199 -4.15433e-13 5.68199e-13 -3.80285e-13 0 8.6004e-16
1940 18 0.001 0.022686 -0.00185873 -0.0470098 -2.9146e-13 6.05093e-13 -3.36588e-13 0 6.53294e-16
375 11 0.001 -0.0576414 -0.000938624 -0.0467973 -2.99065e-13 6.68123e-13 -2.74579e-13 0 4.14223e-16
751 12 0.001 -0.0376413 -0.000939121 -0.0467971 -3.50295e-13 6.2068e-13 -2.63839e-13 0 4.25834e-16
1147 14 0.001 -0.0176413 -0.000939121 -0.0467971 -2.30306e-13 6.31502e-13 -2.61441e-13 0 4.25834e-16
1543 16 0.001 0.00235868 -0.000939121 -0.0467971 -2.22344e-13 6.3156e-13 -2.62409e-13 0 4.25834e-16
1939 18 0.001 0.0223587 -0.000939121 -0.0467971 -2.42828e-13 6.32694e-13 -2.6153e-13 0 4.25834e-16
373 11 0.001 -0.057585 0.000992409 -0.0463478 -1.79173e-13 6.29418e-13 -9.92399e-14 0 8.88216e-17
374 11 0.001 -0.0577334 3.15973e-05 -0.0465777 -3.6081e-14 6.42801e-13 -1.78213e-13 0 2.20687e-16
749 12 0.001 -0.0375851 0.00099194 -0.0463477 -4.01585e-14 5.55847e-13 -7.42471e-14 0 9.46237e-17
750 12 0.001 -0.0377334 3.11025e-05 -0.0465776 -2.67724e-14 6.35957e-13 -1.67098e-13 0 2.2966e-16
1145 14 0.001 -0.0175851 0.00099194 -0.0463477 -3.55118e-14 5.50778e-13 -7.99092e-14 0 9.46237e-17
1146 14 0.001 -0.0177334 3.11025e-05 -0.0465776 -1.31896e-13 6.28155e-13 -1.69728e-13 0 2.2966e-16
1541 16 0.001 0.0024149 0.00099194 -0.0463477 -5.86216e-14 5.51181e-13 -8.25791e-14 0 9.46237e-17
1542 16 0.001 0.00226663 3.11025e-05 -0.0465776 -1.25929e-13 6.27759e-13 -1.69195e-13 0 2.2966e-16
1937 18 0.001 0.0224149 0.00099194 -0.0463477 -5.81757e-14 5.48029e-13 -8.24828e-14 0 9.46237e-17
1938 18 0.001 0.0222666 3.11025e-05 -0.0465776 -1.12575e-13 6.27786e-13 -1.68712e-13 0 2.2966e-16
372 11 0.001 -0.0572063 0.00188452 -0.0461055 2.27378e-13 5.21421e-13 4.42778e-14 0 2.17799e-17
748 12 0.001 -0.0372065 0.0018841 -0.0461054 -2.14716e-14 5.2169e-13 3.62149e-15 0 2.44956e-17
1144 14 0.001 -0.0172065 0.0018841 -0.0461054 2.00774e-14 5.17792e-13 1.22204e-14 0 2.44956e-17
1540 16 0.001 0.00279352 0.0018841 -0.0461054 5.66752e-14 5.18981e-13 1.82289e-14 0 2.44956e-17
1936 18 0.001 0.0227935 0.0018841 -0.0461054 3.69858e-14 5.2133e-13 1.491e-14 0 2.44956e-17
371 11 0.001 -0.0566214 0.00265303 -0.0458498 4.29525e-14 4.87393e-13 8.49971e-14 0 2.77586e-18
747 12 0.001 -0.0366217 0.00265268 -0.0458498 1.57214e-13 4.0924e-13 1.10451e-13 0 2.98484e-18
1143 14 0.001 -0.0166217 0.00265268 -0.0458498 1.25712e-13 4.22529e-13 1.04952e-13 0 2.98484e-18
1539 16 0.001 0.00337829 0.00265268 -0.0458498 1.01707e-13 4.21407e-13 1.00737e-13 0 2.98484e-18
1935 18 0.001 0.0233783 0.00265268 -0.0458498 1.24433e-13 4.23002e-13 1.05587e-13 0 2.98484e-18
370 11 0.001 -0.0558674 0.00325078 -0.0455812 1.89132e-13 3.28351e-13 1.58114e-13 0 6.8873e-18
369 11 0.001 -0.0549916 0.00364125 -0.0453011 2.51724e-13 2.25592e-13 1.97543e-13 0 1.29975e-17
368 11 0.001 -0.0540487 0.00380069 -0.0450119 2.28219e-13 9.54689e-14 1.88069e-13 0 1.13106e-17
367 11 0.001 -0.0530978 0.00371964 -0.0447167 3.08808e-13 -7.9968e-15 1.74831e-13 0 4.37592e-18
745 12 0.001 -0.034992 0.00364109 -0.0453011 1.74167e-13 2.10452e-13 1.83527e-13 0 1.09691e-17
746 12 0.001 -0.0358678 0.00325052 -0.0455812 1.73073e-13 3.36606e-13 1.61757e-13 0 5.48157e-18
744 12 0.001 -0.0340491 0.00380065 -0.0450119 2.49762e-13 1.00887e-13 2.02435e-13 0 9.54701e-18
743 12 0.001 -0.0330982 0.00371971 -0.0447166 2.29669e-13 -1.33546e-14 1.62463e-13 0 3.50097e-18
1142 14 0.001 -0.0158678 0.00325052 -0.0455812 1.81141e-13 3.28125e-13 1.61987e-13 0 5.48157e-18
1140 14 0.001 -0.0140491 0.00380065 -0.0450119 2.0915e-13 9.38375e-14 1.88575e-13 0 9.54701e-18
1141 14 0.001 -0.014992 0.00364109 -0.0453011 2.10294e-13 2.22174e-13 1.96134e-13 0 1.09691e-17
1139 14 0.001 -0.0130982 0.00371971 -0.0447166 2.20166e-13 -1.65541e-14 1.62569e-13 0 3.50097e-18
1538 16 0.001 0.00413224 0.00325052 -0.0455812 1.79155e-13 3.30297e-13 1.60679e-13 0 5.48157e-18
1537 16 0.001 0.00500804 0.00364109 -0.0453011 2.10638e-13 2.15205e-13 1.96525e-13 0 1.09691e-17
1536 16 0.001 0.00595087 0.00380065 -0.0450119 2.27076e-13 1.04131e-13 1.92951e-13 0 9.54701e-18
1535 16 0.001 0.0069018 0.00371971 -0.0447166 2.02119e-13 -2.32977e-14 1.58067e-13 0 3.50097e-18
1933 18 0.001 0.025008 0.00364109 -0.0453011 2.20358e-13 2.18225e-13 1.99413e-13 0 1.09691e-17
1934 18 0.001 0.0241322 0.00325052 -0.0455812 1.67193e-13 3.27696e-13 1.57725e-13 0 5.48157e-18
1932 18 0.001 0.0259509 0.00380065 -0.0450119 2.05444e-13 9.77022e-14 1.86082e-13 0 9.54701e-18
1931 18 0.001 0.0269018 0.00371971 -0.0447166 2.30952e-13 -1.73981e-14 1.67456e-13 0 3.50097e-18
361 11 0.001 -0.0501528 -0.000586593 -0.0429785 -1.95621e-13 -4.7568e-13 -2.83945e-13 0 1.85649e-16
737 12 0.001 -0.0301528 -0.000586161 -0.0429783 -1.02042e-13 -4.3687e-13 -2.76596e-13 0 1.88307e-16
1133 14 0.001 -0.0101528 -0.000586161 -0.0429783 -1.66162e-13 -4.34924e-13 -2.76993e-13 0 1.88307e-16
1529 16 0.001 0.00984721 -0.000586161 -0.0429783 -1.62063e-13 -4.34942e-13 -2.77092e-13 0 1.88307e-16
1925 18 0.001 0.0298472 -0.000586161 -0.0429783 -1.23366e-13 -4.35447e-13 -2.76725e-13 0 1.88307e-16
362 11 0.001 -0.0501247 0.000373323 -0.0432538 -2.15682e-14 -4.59048e-13 -2.25104e-13 0 1.47229e-16
363 11 0.001 -0.0503357 0.00130796 -0.0435365 6.51556e-14 -4.09026e-13 -1.52472e-13 0 9.68872e-17
738 12 0.001 -0.0301247 0.000373756 -0.0432536 -9.62103e-14 -4.32658e-13 -2.20269e-13 0 1.49996e-16
739 12 0.001 -0.0303359 0.00130836 -0.0435363 6.43298e-14 -3.86986e-13 -1.36986e-13 0 9.95588e-17
1134 14 0.001 -0.0101247 0.000373756 -0.0432536 -2.86992e-14 -4.32638e-13 -2.17187e-13 0 1.49996e-16
1135 14 0.001 -0.0103359 0.00130836 -0.0435363 1.41223e-14 -3.93123e-13 -1.4038e-13 0 9.95588e-17
1530 16 0.001 0.00987529 0.000373756 -0.0432536 -3.3941e-14 -4.33134e-13 -2.17346e-13 0 1.49996e-16
1531 16 0.001 0.00966411 0.00130836 -0.0435363 2.04439e-14 -3.94425e-13 -1.39289e-13 0 9.95588e-17
1926 18 0.001 0.0298753 0.000373756 -0.0432536 -7.94932e-14 -4.33779e-13 -2.19143e-13 0 1.49996e-16
1927 18 0.001 0.0296641 0.00130836 -0.0435363 5.50768e-14 -3.88662e-13 -1.37534e-13 0 9.95588e-17
365 11 0.001 -0.0514065 0.00287202 -0.0441207 2.12732e-13 -2.27138e-13 1.83333e-14 0 1.59076e-17
364 11 0.001 -0.0507723 0.00215863 -0.0438259 8.1806e-14 -3.68244e-13 -5.56825e-14 0 4.90353e-17
740 12 0.001 -0.0307725 0.00215898 -0.0438258 6.85709e-14 -3.19303e-13 -6.60916e-14 0 5.12688e-17
741 12 0.001 -0.0314068 0.00287229 -0.0441206 1.74099e-13 -2.24587e-13 3.20911e-14 0 1.73163e-17
1136 14 0.001 -0.0107725 0.00215898 -0.0438258 9.55921e-14 -3.07133e-13 -6.54568e-14 0 5.12688e-17
1137 14 0.001 -0.0114068 0.00287229 -0.0441206 1.55933e-13 -2.40456e-13 3.24487e-14 0 1.73163e-17
1533 16 0.001 0.00859318 0.00287229 -0.0441206 1.55166e-13 -2.41729e-13 3.2598e-14 0 1.73163e-17
1532 16 0.001 0.00922746 0.00215898 -0.0438258 9.25209e-14 -3.05223e-13 -6.63194e-14 0 5.12688e-17
1928 18 0.001 0.0292275 0.00215898 -0.0438258 6.9457e-14 -3.155e-13 -6.7385e-14 0 5.12688e-17
1929 18 0.001 0.0285932 0.00287229 -0.0441206 1.70323e-13 -2.32138e-13 3.39622e-14 0 1.73163e-17
366 11 0.001 -0.0521982 0.00340345 -0.0444185 1.7112e-13 -1.60037e-13 9.7173e-14 0 2.41755e-18
742 12 0.001 -0.0321986 0.00340363 -0.0444185 1.93215e-13 -1.56001e-13 1.09213e-13 0 2.71079e-18
1138 14 0.001 -0.0121986 0.00340363 -0.0444185 2.23973e-13 -1.44393e-13 1.13783e-13 0 2.7108e-18
1534 16 0.001 0.00780136 0.00340363 -0.0444185 2.30196e-13 -1.42337e-13 1.15052e-13 0 2.7108e-18
1930 18 0.001 0.0278014 0.00340363 -0.0444185 2.1074e-13 -1.47398e-13 1.09647e-13 0 2.7108e-18
356 11 0.001 -0.0533419 -0.00380306 -0.0416887 -4.61329e-13 -1.54036e-13 -1.76356e-13 0 7.82435e-17
357 11 0.001 -0.0524155 -0.003526 -0.0419398 -3.88403e-13 -2.43221e-13 -2.59027e-13 0 1.19349e-16
358 11 0.001 -0.0515867 -0.00302889 -0.0421926 -3.42938e-13 -3.54773e-13 -2.96089e-13 0 1.60744e-16
732 12 0.001 -0.0333415 -0.00380301 -0.0416886 -3.5917e-13 -1.54373e-13 -1.88013e-13 0 8.05612e-17
733 12 0.001 -0.0324151 -0.00352583 -0.0419397 -3.94441e-13 -2.39785e-13 -2.37068e-13 0 1.21727e-16
734 12 0.001 -0.0315863 -0.00302863 -0.0421925 -3.53658e-13 -3.22982e-13 -2.84336e-13 0 1.63121e-16
1128 14 0.001 -0.0133415 -0.00380301 -0.0416886 -3.85836e-13 -1.54324e-13 -1.82057e-13 0 8.05612e-17
1129 14 0.001 -0.0124151 -0.00352583 -0.0419397 -3.55132e-13 -2.40399e-13 -2.45621e-13 0 1.21727e-16
1130 14 0.001 -0.0115863 -0.00302863 -0.0421925 -3.71551e-13 -3.21422e-13 -2.81336e-13 0 1.63121e-16
1524 16 0.001 0.00665854 -0.00380301 -0.0416886 -3.87793e-13 -1.52888e-13 -1.81142e-13 0 8.05612e-17
1525 16 0.001 0.00758491 -0.00352583 -0.0419397 -3.50796e-13 -2.34724e-13 -2.48213e-13 0 1.21727e-16
1526 16 0.001 0.00841369 -0.00302863 -0.0421925 -3.73757e-13 -3.27205e-13 -2.79184e-13 0 1.63121e-16
1920 18 0.001 0.0266585 -0.00380301 -0.0416886 -3.91206e-13 -1.53954e-13 -1.79782e-13 0 8.05612e-17
1921 18 0.001 0.0275849 -0.00352583 -0.0419397 -3.91846e-13 -2.3542e-13 -2.38934e-13 0 1.21727e-16
1922 18 0.001 0.0284137 -0.00302863 -0.0421925 -3.21025e-13 -3.24318e-13 -2.90225e-13 0 1.63121e-16
359 11 0.001 -0.0509071 -0.00234298 -0.042449 -3.51475e-13 -3.97116e-13 -3.17495e-13 0 1.91487e-16
360 11 0.001 -0.0504191 -0.00151143 -0.0427105 -1.90355e-13 -4.51013e-13 -3.1923e-13 0 2.01435e-16
735 12 0.001 -0.0309068 -0.00234264 -0.0424488 -2.81369e-13 -3.82122e-13 -3.11714e-13 0 1.93886e-16
736 12 0.001 -0.0304189 -0.00151103 -0.0427103 -2.44492e-13 -4.26772e-13 -3.03911e-13 0 2.03935e-16
1131 14 0.001 -0.0109068 -0.00234264 -0.0424488 -2.80911e-13 -3.78254e-13 -3.1291e-13 0 1.93886e-16
1132 14 0.001 -0.0104189 -0.00151103 -0.0427103 -2.1462e-13 -4.31661e-13 -3.03634e-13 0 2.03935e-16
1527 16 0.001 0.00909319 -0.00234264 -0.0424488 -2.77654e-13 -3.78521e-13 -3.13957e-13 0 1.93886e-16
1528 16 0.001 0.0095811 -0.00151103 -0.0427103 -2.18112e-13 -4.29797e-13 -3.03464e-13 0 2.03935e-16
1923 18 0.001 0.0290932 -0.00234264 -0.0424488 -3.06265e-13 -3.78263e-13 -3.0883e-13 0 1.93886e-16
1924 18 0.001 0.0295811 -0.00151103 -0.0427103 -2.25415e-13 -4.30117e-13 -3.04337e-13 0 2.03935e-16
353 11 0.001 -0.05612 -0.00321518 -0.0409308 -2.67681e-13 1.27523e-13 -1.54038e-14 0 1.17946e-17
355 11 0.001 -0.0543081 -0.00384273 -0.0414378 -3.53507e-13 -7.40258e-14 -1.38632e-13 0 4.52963e-17
354 11 0.001 -0.0552537 -0.00364258 -0.0411855 -4.26243e-13 5.12896e-14 -4.32368e-14 0 2.35318e-17
729 12 0.001 -0.0361197 -0.00321547 -0.0409307 -2.80841e-13 1.18899e-13 2.40302e-15 0 1.33607e-17
730 12 0.001 -0.0352533 -0.00364275 -0.0411853 -3.37261e-13 3.36105e-14 -5.2348e-14 0 2.53865e-17
731 12 0.001 -0.0343076 -0.0038428 -0.0414376 -3.92058e-13 -6.529e-14 -1.09455e-13 0 4.74343e-17
1125 14 0.001 -0.0161197 -0.00321547 -0.0409307 -2.88808e-13 1.17833e-13 4.252e-15 0 1.33607e-17
1126 14 0.001 -0.0152533 -0.00364275 -0.0411853 -3.24525e-13 2.37239e-14 -5.70148e-14 0 2.53865e-17
1127 14 0.001 -0.0143076 -0.0038428 -0.0414376 -3.94013e-13 -6.21548e-14 -1.08443e-13 0 4.74343e-17
1521 16 0.001 0.00388032 -0.00321547 -0.0409307 -2.80767e-13 1.07462e-13 -1.13575e-15 0 1.33607e-17
1523 16 0.001 0.00569239 -0.0038428 -0.0414376 -3.99819e-13 -6.4248e-14 -1.07254e-13 0 4.74343e-17
1522 16 0.001 0.00474669 -0.00364275 -0.0411853 -3.30518e-13 2.82348e-14 -5.40312e-14 0 2.53865e-17
1917 18 0.001 0.0238803 -0.00321547 -0.0409307 -2.97912e-13 1.17023e-13 5.56081e-15 0 1.33607e-17
1918 18 0.001 0.0247467 -0.00364275 -0.0411853 -3.36747e-13 2.7017e-14 -5.36194e-14 0 2.53865e-17
1919 18 0.001 0.0256924 -0.0038428 -0.0414376 -3.73856e-13 -6.7901e-14 -1.13647e-13 0 4.74343e-17
351 11 0.001 -0.0574075 -0.00179827 -0.0404123 -2.09613e-13 2.60821e-13 4.47037e-14 0 6.88764e-18
352 11 0.001 -0.0568531 -0.00258734 -0.0406731 -2.03949e-13 1.6825e-13 1.53325e-14 0 7.0448e-18
727 12 0.001 -0.0374073 -0.00179872 -0.0404121 -5.22397e-14 2.53191e-13 3.8965e-14 0 8.473e-18
728 12 0.001 -0.0368528 -0.00258771 -0.040673 -2.42366e-13 1.46222e-13 3.22137e-14 0 8.47004e-18
1123 14 0.001 -0.0174073 -0.00179872 -0.0404121 -1.21631e-13 2.50012e-13 4.61718e-14 0 8.473e-18
1124 14 0.001 -0.0168528 -0.00258771 -0.040673 -2.14326e-13 1.62845e-13 3.18177e-14 0 8.47004e-18
1519 16 0.001 0.00259267 -0.00179872 -0.0404121 -1.37195e-13 2.49988e-13 4.78129e-14 0 8.473e-18
1520 16 0.001 0.00314715 -0.00258771 -0.040673 -2.00484e-13 1.6945e-13 3.25762e-14 0 8.47004e-18
1915 18 0.001 0.0225927 -0.00179872 -0.0404121 -1.66303e-13 2.43631e-13 4.96959e-14 0 8.473e-18
1916 18 0.001 0.0231472 -0.00258771 -0.040673 -1.83297e-13 1.66716e-13 2.75246e-14 0 8.47004e-18
350 11 0.001 -0.0577489 -0.000897228 -0.0401484 7.34146e-14 3.09015e-13 2.09727e-14 0 1.10768e-17
726 12 0.001 -0.0377488 -0.000897717 -0.0401483 -5.6658e-14 2.31785e-13 3.01595e-14 0 1.322e-17
1122 14 0.001 -0.0177488 -0.000897717 -0.0401483 -8.36297e-15 2.21979e-13 2.24633e-14 0 1.322e-17
1518 16 0.001 0.00225122 -0.000897717 -0.0401483 -1.67287e-14 2.22518e-13 2.22194e-14 0 1.322e-17
1914 18 0.001 0.0222512 -0.000897717 -0.0401483 3.88519e-14 2.26491e-13 2.05956e-14 0 1.322e-17
348 11 0.001 -0.0577226 0.00101269 -0.0396139 1.87531e-13 2.7963e-13 -6.10797e-14 0 4.02742e-17
349 11 0.001 -0.0578561 5.96314e-05 -0.0398821 -1.45333e-14 3.27988e-13 4.77121e-15 0 2.14105e-17
724 12 0.001 -0.0377228 0.0010122 -0.0396138 2.08958e-13 2.72924e-13 -3.95113e-14 0 4.46348e-17
725 12 0.001 -0.0378561 5.91281e-05 -0.0398819 3.23492e-14 3.2669e-13 1.22191e-14 0 2.45115e-17
1120 14 0.001 -0.0177228 0.0010122 -0.0396138 1.84763e-13 2.7231e-13 -4.11063e-14 0 4.46348e-17
1121 14 0.001 -0.0178561 5.91281e-05 -0.0398819 4.07487e-14 3.32009e-13 1.5794e-14 0 2.45115e-17
1516 16 0.001 0.00227723 0.0010122 -0.0396138 1.55551e-13 2.71984e-13 -4.24821e-14 0 4.46348e-17
1517 16 0.001 0.00214389 5.91281e-05 -0.0398819 7.01354e-14 3.3019e-13 1.57752e-14 0 2.45115e-17
1912 18 0.001 0.0222772 0.0010122 -0.0396138 1.73642e-13 2.709e-13 -4.27331e-14 0 4.46348e-17
1913 18 0.001 0.0221439 5.91281e-05 -0.0398819 1.81405e-14 3.28739e-13 1.57097e-14 0 2.45115e-17
347 11 0.001 -0.0573569 0.00190255 -0.0393448 2.9482e-13 3.16379e-13 -8.84393e-14 0 6.86935e-17
346 11 0.001 -0.0567818 0.00267373 -0.0390755 3.56122e-13 2.38671e-13 -1.51875e-13 0 1.04912e-16
722 12 0.001 -0.0367821 0.00267336 -0.0390754 3.17868e-13 2.21523e-13 -1.45682e-13 0 1.11985e-16
723 12 0.001 -0.0373572 0.0019021 -0.0393447 2.48982e-13 2.66392e-13 -9.14864e-14 0 7.44439e-17
1118 14 0.001 -0.0167821 0.00267336 -0.0390754 3.36627e-13 2.23508e-13 -1.41177e-13 0 1.11985e-16
1119 14 0.001 -0.0173572 0.0019021 -0.0393447 2.48494e-13 2.64349e-13 -9.31449e-14 0 7.44439e-17
1515 16 0.001 0.00264283 0.0019021 -0.0393447 2.7007e-13 2.68684e-13 -9.02352e-14 0 7.44439e-17
1514 16 0.001 0.00321785 0.00267336 -0.0390754 3.28003e-13 2.19433e-13 -1.42689e-13 0 1.11985e-16
1910 18 0.001 0.0232179 0.00267336 -0.0390754 2.97922e-13 2.2318e-13 -1.47481e-13 0 1.11985e-16
1911 18 0.001 0.0226428 0.0019021 -0.0393447 2.82479e-13 2.67448e-13 -8.82032e-14 0 7.44439e-17
345 11 0.001 -0.0560331 0.0032781 -0.0388067 4.09739e-13 1.74587e-13 -1.97701e-13 0 1.44196e-16
344 11 0.001 -0.0551577 0.00367789 -0.0385388 4.41925e-13 9.95866e-14 -2.31337e-13 0 1.79969e-16
721 12 0.001 -0.0360336 0.00327783 -0.0388065 4.06336e-13 1.49878e-13 -1.85962e-13 0 1.52354e-16
720 12 0.001 -0.0351582 0.00367773 -0.0385386 4.61513e-13 1.00307e-13 -2.0818e-13 0 1.88864e-16
1117 14 0.001 -0.0160336 0.00327783 -0.0388065 4.00097e-13 1.51213e-13 -1.87733e-13 0 1.52354e-16
1116 14 0.001 -0.0151582 0.00367773 -0.0385386 4.28898e-13 9.63372e-14 -2.1594e-13 0 1.88864e-16
1513 16 0.001 0.00396642 0.00327783 -0.0388065 3.91246e-13 1.51366e-13 -1.90043e-13 0 1.52354e-16
1512 16 0.001 0.00484183 0.00367773 -0.0385386 4.43873e-13 9.61437e-14 -2.12479e-13 0 1.88864e-16
1909 18 0.001 0.0239664 0.00327783 -0.0388065 4.1989e-13 1.5324e-13 -1.84319e-13 0 1.52354e-16
1908 18 0.001 0.0248418 0.00367773 -0.0385386 4.36319e-13 8.90504e-14 -2.14199e-13 0 1.88864e-16
338 11 0.001 -0.0504135 0.00139326 -0.0369537 2.23377e-13 -3.17627e-13 -7.09161e-14 0 1.41578e-16
714 12 0.001 -0.0304136 0.00139375 -0.0369536 2.18301e-13 -2.83662e-13 -5.89845e-14 0 1.48924e-16
1110 14 0.001 -0.0104136 0.00139375 -0.0369536 2.13378e-13 -2.93111e-13 -5.62086e-14 0 1.48924e-16
1506 16 0.001 0.00958636 0.00139375 -0.0369536 2.04274e-13 -2.90008e-13 -5.80021e-14 0 1.48924e-16
1902 18 0.001 0.0295864 0.00139375 -0.0369536 2.51328e-13 -2.86718e-13 -5.46745e-14 0 1.48924e-16
340 11 0.001 -0.0515267 0.00294844 -0.0374793 3.9621e-13 -2.22439e-13 -1.63454e-13 0 1.96193e-16
339 11 0.001 -0.0508722 0.00224091 -0.0372164 3.00073e-13 -2.76312e-13 -1.20954e-13 0 1.70499e-16
716 12 0.001 -0.0315271 0.00294877 -0.0374791 3.58256e-13 -2.02144e-13 -1.58475e-13 0 2.0471e-16
715 12 0.001 -0.0308726 0.00224134 -0.0372163 2.85814e-13 -2.42659e-13 -1.20546e-13 0 1.78447e-16
1111 14 0.001 -0.0108726 0.00224134 -0.0372163 2.74473e-13 -2.35533e-13 -1.24445e-13 0 1.78447e-16
1112 14 0.001 -0.0115271 0.00294877 -0.0374791 3.70309e-13 -2.04447e-13 -1.55648e-13 0 2.0471e-16
1508 16 0.001 0.00847286 0.00294877 -0.0374791 3.72297e-13 -1.99226e-13 -1.56246e-13 0 2.0471e-16
1507 16 0.001 0.00912745 0.00224134 -0.0372163 2.77892e-13 -2.38223e-13 -1.23306e-13 0 1.78447e-16
1904 18 0.001 0.0284729 0.00294877 -0.0374791 3.79806e-13 -2.0043e-13 -1.54828e-13 0 2.0471e-16
1903 18 0.001 0.0291274 0.00224134 -0.0372163 2.51043e-13 -2.39685e-13 -1.25971e-13 0 1.78447e-16
343 11 0.001 -0.0542101 0.00384805 -0.0382721 5.57265e-13 1.63939e-14 -2.1848e-13 0 2.05774e-16
342 11 0.001 -0.0532495 0.00377786 -0.0380068 4.17645e-13 -7.47171e-14 -2.42567e-13 0 2.17244e-16
341 11 0.001 -0.052336 0.00347164 -0.0377426 4.35435e-13 -1.31047e-13 -2.11159e-13 0 2.133e-16
719 12 0.001 -0.0342106 0.00384802 -0.038272 3.97531e-13 1.60199e-14 -2.44005e-13 0 2.15023e-16
718 12 0.001 -0.03325 0.00377796 -0.0380066 4.77628e-13 -6.71044e-14 -2.13398e-13 0 2.26497e-16
717 12 0.001 -0.0323365 0.00347186 -0.0377424 4.17961e-13 -1.45335e-13 -1.96236e-13 0 2.2228e-16
1115 14 0.001 -0.0142106 0.00384802 -0.038272 4.61019e-13 1.90864e-14 -2.28202e-13 0 2.15023e-16
1113 14 0.001 -0.0123365 0.00347186 -0.0377424 4.15175e-13 -1.38213e-13 -1.97789e-13 0 2.2228e-16
1114 14 0.001 -0.01325 0.00377796 -0.0380066 4.40361e-13 -7.24443e-14 -2.22179e-13 0 2.26497e-16
1511 16 0.001 0.00578941 0.00384802 -0.038272 4.47221e-13 1.64657e-14 -2.31269e-13 0 2.15023e-16
1510 16 0.001 0.00674999 0.00377796 -0.0380066 4.49425e-13 -6.349e-14 -2.20774e-13 0 2.26497e-16
1509 16 0.001 0.0076635 0.00347186 -0.0377424 4.11765e-13 -1.48678e-13 -1.97299e-13 0 2.2228e-16
1907 18 0.001 0.0257894 0.00384802 -0.038272 4.49448e-13 2.24626e-14 -2.30554e-13 0 2.15023e-16
1906 18 0.001 0.02675 0.00377796 -0.0380066 4.41715e-13 -6.61e-14 -2.22683e-13 0 2.26497e-16
1905 18 0.001 0.0276635 0.00347186 -0.0377424 4.12345e-13 -1.4602e-13 -1.97271e-13 0 2.2228e-16
333 11 0.001 -0.0515541 -0.00298065 -0.0356324 -2.73577e-13 -1.75602e-13 1.27072e-14 0 6.0428e-17
334 11 0.001 -0.0508933 -0.00228011 -0.0358981 -1.37273e-13 -1.73034e-13 1.8846e-15 0 6.45784e-17
709 12 0.001 -0.0315537 -0.00298032 -0.0356323 -2.17431e-13 -1.3433e-13 5.45933e-15 0 6.62083e-17
710 12 0.001 -0.030893 -0.00227969 -0.035898 -1.15666e-13 -2.05454e-13 2.38482e-14 0 7.03155e-17
1105 14 0.001 -0.0115537 -0.00298032 -0.0356323 -2.03943e-13 -1.45111e-13 3.67229e-15 0 6.62083e-17
1106 14 0.001 -0.010893 -0.00227969 -0.035898 -1.24526e-13 -1.98902e-13 2.45426e-14 0 7.03155e-17
1501 16 0.001 0.00844633 -0.00298032 -0.0356323 -1.96895e-13 -1.37313e-13 1.36039e-15 0 6.62083e-17
1502 16 0.001 0.00910704 -0.00227969 -0.035898 -1.2792e-13 -2.0716e-13 2.67028e-14 0 7.03155e-17
1897 18 0.001 0.0284463 -0.00298032 -0.0356323 -2.00354e-13 -1.36779e-13 2.30272e-15 0 6.62083e-17
1898 18 0.001 0.029107 -0.00227969 -0.035898 -1.17064e-13 -2.05086e-13 2.38903e-14 0 7.03155e-17
335 11 0.001 -0.0504267 -0.00143743 -0.0361631 2.18574e-14 -3.17457e-13 1.89375e-14 0 7.47593e-17
336 11 0.001 -0.0501835 -0.000505188 -0.0364273 -8.12414e-14 -2.89793e-13 -8.31521e-16 0 9.13621e-17
711 12 0.001 -0.0304265 -0.00143694 -0.0361629 -5.15524e-14 -2.48259e-13 1.6874e-14 0 8.06729e-17
712 12 0.001 -0.0301835 -0.000504665 -0.0364271 2.46865e-14 -2.76743e-13 1.09975e-14 0 9.76359e-17
1107 14 0.001 -0.0104265 -0.00143694 -0.0361629 -5.42157e-14 -2.56011e-13 1.84688e-14 0 8.06729e-17
1108 14 0.001 -0.0101835 -0.000504665 -0.0364271 2.4258e-14 -2.72008e-13 9.29273e-15 0 9.76359e-17
1503 16 0.001 0.0095735 -0.00143694 -0.0361629 -5.40681e-14 -2.49746e-13 1.70027e-14 0 8.06729e-17
1504 16 0.001 0.00981654 -0.000504665 -0.0364271 2.31202e-14 -2.76948e-13 1.05399e-14 0 9.76359e-17
1899 18 0.001 0.0295735 -0.00143694 -0.0361629 -4.90345e-14 -2.47445e-13 1.66942e-14 0 8.06729e-17
1900 18 0.001 0.0298165 -0.000504665 -0.0364271 1.86719e-14 -2.76892e-13 1.12068e-14 0 9.76359e-17
337 11 0.001 -0.050179 0.000458433 -0.0366908 1.82405e-13 -2.90374e-13 -3.6509e-14 0 1.14138e-16
713 12 0.001 -0.0301791 0.000458955 -0.0366906 1.15715e-13 -2.7221e-13 -3.64143e-14 0 1.20907e-16
1109 14 0.001 -0.0101791 0.000458955 -0.0366906 1.30222e-13 -2.69657e-13 -3.64519e-14 0 1.20907e-16
1505 16 0.001 0.00982093 0.000458955 -0.0366906 1.36005e-13 -2.68788e-13 -3.62182e-14 0 1.20907e-16
1901 18 0.001 0.0298209 0.000458955 -0.0366906 1.08011e-13 -2.73739e-13 -3.71396e-14 0 1.20907e-16
328 11 0.001 -0.0560624 -0.00326353 -0.0343008 -3.17707e-13 2.46605e-13 -1.61623e-13 0 1.10093e-16
329 11 0.001 -0.0551906 -0.00367247 -0.0345668 -3.07268e-13 1.78064e-13 -1.44559e-13 0 9.33632e-17
330 11 0.001 -0.0542447 -0.0038524 -0.0348332 -3.13725e-13 8.23899e-14 -1.07531e-13 0 7.89375e-17
331 11 0.001 -0.0532838 -0.0037921 -0.0350997 -3.4989e-13 -1.12556e-14 -5.46052e-14 0 6.8126e-17
332 11 0.001 -0.0523679 -0.00349535 -0.0353662 -2.33535e-13 -8.61134e-14 -3.57214e-14 0 6.17735e-17
704 12 0.001 -0.0360619 -0.00326387 -0.0343006 -2.9507e-13 2.29476e-13 -1.53947e-13 0 1.18894e-16
705 12 0.001 -0.03519 -0.00367268 -0.0345666 -2.5702e-13 1.64601e-13 -1.43909e-13 0 1.01356e-16
706 12 0.001 -0.0342441 -0.00385246 -0.034833 -3.25012e-13 8.32752e-14 -8.91803e-14 0 8.61552e-17
707 12 0.001 -0.0332833 -0.00379202 -0.0350996 -2.72266e-13 8.7604e-15 -6.26513e-14 0 7.46763e-17
708 12 0.001 -0.0323674 -0.00349514 -0.0353661 -2.64566e-13 -9.1456e-14 -1.37646e-14 0 6.78299e-17
1100 14 0.001 -0.0160619 -0.00326387 -0.0343006 -2.95838e-13 2.37225e-13 -1.52915e-13 0 1.18894e-16
1101 14 0.001 -0.01519 -0.00367268 -0.0345666 -2.55611e-13 1.54976e-13 -1.4588e-13 0 1.01356e-16
1102 14 0.001 -0.0142441 -0.00385246 -0.034833 -3.30078e-13 9.06985e-14 -8.70432e-14 0 8.61552e-17
1104 14 0.001 -0.0123674 -0.00349514 -0.0353661 -2.65639e-13 -7.24407e-14 -1.4647e-14 0 6.78299e-17
1103 14 0.001 -0.0132833 -0.00379202 -0.0350996 -2.78363e-13 -7.29569e-15 -6.07611e-14 0 7.46763e-17
1496 16 0.001 0.0039381 -0.00326387 -0.0343006 -2.81908e-13 2.33618e-13 -1.57947e-13 0 1.18894e-16
1497 16 0.001 0.00480995 -0.00367268 -0.0345666 -2.66147e-13 1.5301e-13 -1.42362e-13 0 1.01356e-16
1498 16 0.001 0.00575586 -0.00385246 -0.034833 -3.26856e-13 9.43284e-14 -8.80581e-14 0 8.61552e-17
1499 16 0.001 0.00671674 -0.00379202 -0.0350996 -2.75969e-13 -5.33072e-15 -6.11585e-14 0 7.46763e-17
1500 16 0.001 0.00763262 -0.00349514 -0.0353661 -2.72382e-13 -7.78332e-14 -1.30344e-14 0 6.78299e-17
1892 18 0.001 0.0239381 -0.00326387 -0.0343006 -2.87363e-13 2.35595e-13 -1.56481e-13 0 1.18894e-16
1893 18 0.001 0.02481 -0.00367268 -0.0345666 -2.70688e-13 1.50717e-13 -1.42084e-13 0 1.01356e-16
1894 18 0.001 0.0257559 -0.00385246 -0.034833 -3.37424e-13 9.24759e-14 -8.44311e-14 0 8.61552e-17
1895 18 0.001 0.0267167 -0.00379202 -0.0350996 -2.51661e-13 2.68517e-15 -6.77415e-14 0 7.46763e-17
1896 18 0.001 0.0276326 -0.00349514 -0.0353661 -2.90822e-13 -8.47991e-14 -8.46988e-15 0 6.78299e-17
327 11 0.001 -0.0568057 -0.00265109 -0.0340353 -2.39341e-13 3.07733e-13 -1.90658e-13 0 1.27388e-16
703 12 0.001 -0.0368053 -0.00265154 -0.0340351 -2.57903e-13 2.92248e-13 -1.75146e-13 0 1.36958e-16
1099 14 0.001 -0.0168053 -0.00265154 -0.0340351 -2.15244e-13 2.97638e-13 -1.80084e-13 0 1.36958e-16