ITEM: TIMESTEP
7900000
ITEM: NUMBER OF ATOMS
1970
ITEM: BOX BOUNDS ff ff ff
-6.0000000000000005e-02 6.0000000000000005e-02
-6.0000000000000001e-03 6.0000000000000001e-03
-5.5000000000000000e-02 5.5000000000000000e-02
ITEM: ATOMS id type radius x y z fx fy fz c_bendingE c_stretchingE
384 11 0.001 -0.050815 -0.00263922 -0.0489958 -2.27793e-13 8.50796e-14 -7.1773e-14 0 1.99012e-17
385 11 0.001 -0.0503171 -0.00183577 -0.0493191 -1.68931e-13 1.12422e-14 -2.09387e-14 0 9.7503e-15
760 12 0.001 -0.0308145 -0.00263916 -0.0489952 -2.43643e-13 2.76693e-14 -3.71682e-14 0 1.96883e-17
761 12 0.001 -0.0303167 -0.00183568 -0.0493187 -1.45563e-13 5.28302e-14 -2.58088e-14 0 9.64271e-15
1156 14 0.001 -0.0108145 -0.00263916 -0.0489952 -2.26077e-13 2.14656e-14 -3.81283e-14 0 1.96883e-17
1157 14 0.001 -0.0103167 -0.00183568 -0.0493187 -1.54863e-13 5.44858e-14 -2.48443e-14 0 9.64271e-15
1552 16 0.001 0.00918552 -0.00263916 -0.0489952 -2.32809e-13 2.53839e-14 -3.83176e-14 0 1.96883e-17
1553 16 0.001 0.0096833 -0.00183568 -0.0493187 -1.46625e-13 5.06352e-14 -2.46801e-14 0 9.64271e-15
1948 18 0.001 0.0291855 -0.00263916 -0.0489952 -2.43307e-13 2.43866e-14 -3.64616e-14 0 1.96883e-17
1949 18 0.001 0.0296833 -0.00183568 -0.0493187 -1.44821e-13 4.3492e-14 -2.21283e-14 0 9.64271e-15
2 2 0.001 -0.05 -4.31175e-17 -0.05 -2.46866e-06 2.6325e-06 1.94111e-06 0 8.70759e-15
386 11 0.001 -0.0500397 -0.000936886 -0.0496555 -8.92939e-14 6.6892e-15 -6.48919e-15 0 1.84528e-14
762 12 0.001 -0.0300396 -0.000936815 -0.0496553 -7.52468e-14 -2.04429e-15 1.9427e-15 0 1.82232e-14
4 4 0.001 -0.03 -4.31175e-17 -0.05 -2.50318e-06 2.71251e-06 1.92249e-06 0 8.58777e-15
6 6 0.001 -0.01 -4.31175e-17 -0.05 -2.50318e-06 2.71251e-06 1.92249e-06 0 8.58777e-15
1158 14 0.001 -0.0100396 -0.000936815 -0.0496553 -7.43918e-14 2.22394e-15 3.02666e-17 0 1.82232e-14
8 8 0.001 0.01 -4.31175e-17 -0.05 -2.50318e-06 2.71251e-06 1.92249e-06 0 8.58777e-15
1554 16 0.001 0.00996043 -0.000936815 -0.0496553 -8.01762e-14 -4.44311e-16 1.57168e-15 0 1.82232e-14
10 10 0.001 0.03 -4.31175e-17 -0.05 -2.50318e-06 2.71251e-06 1.92249e-06 0 8.58777e-15
1950 18 0.001 0.0299604 -0.000936815 -0.0496553 -8.15188e-14 9.78277e-15 -2.30874e-15 0 1.82232e-14
379 11 0.001 -0.0551793 -0.00378956 -0.0476511 -3.51593e-13 3.41972e-13 -2.90727e-13 0 8.47364e-16
380 11 0.001 -0.0542354 -0.00401896 -0.0478843 -3.96855e-13 2.85542e-13 -2.54616e-13 0 7.35226e-16
381 11 0.001 -0.0532681 -0.00400934 -0.0481336 -3.80966e-13 2.0742e-13 -2.05999e-13 0 5.32779e-16
382 11 0.001 -0.0523378 -0.00376261 -0.0484016 -3.4279e-13 1.68853e-13 -1.6395e-13 0 2.98539e-16
383 11 0.001 -0.0515028 -0.00329567 -0.0486892 -3.12182e-13 7.19569e-14 -9.5211e-14 0 1.0604e-16
755 12 0.001 -0.0351786 -0.00379011 -0.0476504 -3.99801e-13 3.14123e-13 -2.55441e-13 0 8.56738e-16
756 12 0.001 -0.0342347 -0.00401937 -0.0478836 -3.53657e-13 2.94997e-13 -2.38811e-13 0 7.3835e-16
757 12 0.001 -0.0332673 -0.0040096 -0.0481329 -3.24165e-13 1.88467e-13 -1.93045e-13 0 5.2976e-16
758 12 0.001 -0.0323371 -0.00376273 -0.0484008 -3.73904e-13 1.51946e-13 -1.29399e-13 0 2.91616e-16
759 12 0.001 -0.0315022 -0.00329568 -0.0486885 -2.51148e-13 1.06458e-13 -9.62454e-14 0 9.95844e-17
1151 14 0.001 -0.0151786 -0.00379011 -0.0476504 -3.64875e-13 3.35139e-13 -2.6251e-13 0 8.56738e-16
1152 14 0.001 -0.0142347 -0.00401937 -0.0478836 -3.43805e-13 2.72567e-13 -2.41557e-13 0 7.3835e-16
1153 14 0.001 -0.0132673 -0.0040096 -0.0481329 -3.70436e-13 1.96063e-13 -1.81662e-13 0 5.2976e-16
1154 14 0.001 -0.0123371 -0.00376273 -0.0484008 -3.48758e-13 1.51016e-13 -1.35082e-13 0 2.91616e-16
1155 14 0.001 -0.0115022 -0.00329568 -0.0486885 -2.67959e-13 1.11138e-13 -9.43131e-14 0 9.95844e-17
1547 16 0.001 0.00482137 -0.00379011 -0.0476504 -3.61785e-13 3.3489e-13 -2.63809e-13 0 8.56738e-16
1548 16 0.001 0.00576535 -0.00401937 -0.0478836 -3.63078e-13 2.73871e-13 -2.36264e-13 0 7.3835e-16
1549 16 0.001 0.0067327 -0.0040096 -0.0481329 -3.57643e-13 1.95988e-13 -1.85478e-13 0 5.2976e-16
1550 16 0.001 0.00766289 -0.00376273 -0.0484008 -3.32067e-13 1.51842e-13 -1.3867e-13 0 2.91616e-16
1551 16 0.001 0.00849783 -0.00329568 -0.0486885 -2.76567e-13 1.10368e-13 -9.22789e-14 0 9.95844e-17
1943 18 0.001 0.0248214 -0.00379011 -0.0476504 -3.74453e-13 3.32997e-13 -2.60807e-13 0 8.56738e-16
1944 18 0.001 0.0257653 -0.00401937 -0.0478836 -3.64617e-13 2.79833e-13 -2.36079e-13 0 7.3835e-16
1945 18 0.001 0.0267327 -0.0040096 -0.0481329 -3.51779e-13 1.90522e-13 -1.86407e-13 0 5.2976e-16
1946 18 0.001 0.0276629 -0.00376273 -0.0484008 -3.32526e-13 1.56595e-13 -1.39641e-13 0 2.91616e-16
1947 18 0.001 0.0284978 -0.00329568 -0.0486885 -2.66211e-13 1.09757e-13 -9.39673e-14 0 9.95844e-17
378 11 0.001 -0.0560408 -0.00333437 -0.0474302 -3.93019e-13 4.09332e-13 -2.91242e-13 0 8.42667e-16
754 12 0.001 -0.0360401 -0.00333505 -0.0474296 -3.23751e-13 3.88232e-13 -2.81878e-13 0 8.56788e-16
1150 14 0.001 -0.0160401 -0.00333505 -0.0474296 -3.32834e-13 3.81271e-13 -2.80119e-13 0 8.56788e-16
1546 16 0.001 0.00395987 -0.00333505 -0.0474296 -3.36424e-13 3.82299e-13 -2.7853e-13 0 8.56788e-16
1942 18 0.001 0.0239599 -0.00333505 -0.0474296 -3.32704e-13 3.89031e-13 -2.78463e-13 0 8.56788e-16
376 11 0.001 -0.0573093 -0.00186957 -0.0470068 -3.16889e-13 4.65145e-13 -2.57837e-13 0 5.51959e-16
377 11 0.001 -0.0567658 -0.00268098 -0.0472171 -2.69706e-13 4.62695e-13 -2.90916e-13 0 7.31281e-16
753 12 0.001 -0.0367653 -0.00268177 -0.0472166 -2.6531e-13 4.25101e-13 -2.77923e-13 0 7.478e-16
752 12 0.001 -0.0373089 -0.00187043 -0.0470064 -2.71012e-13 4.61022e-13 -2.3975e-13 0 5.68404e-16
1149 14 0.001 -0.0167653 -0.00268177 -0.0472166 -2.89223e-13 4.19292e-13 -2.75578e-13 0 7.478e-16
1148 14 0.001 -0.0173089 -0.00187043 -0.0470064 -2.40541e-13 4.66092e-13 -2.41785e-13 0 5.68404e-16
1544 16 0.001 0.00269106 -0.00187043 -0.0470064 -2.32223e-13 4.64513e-13 -2.42628e-13 0 5.68404e-16
1545 16 0.001 0.0032347 -0.00268177 -0.0472166 -2.92832e-13 4.20356e-13 -2.75606e-13 0 7.478e-16
1941 18 0.001 0.0232347 -0.00268177 -0.0472166 -3.0321e-13 4.08836e-13 -2.76711e-13 0 7.478e-16
1940 18 0.001 0.0226911 -0.00187043 -0.0470064 -2.01751e-13 4.68854e-13 -2.44321e-13 0 5.68404e-16
375 11 0.001 -0.0576376 -0.000950275 -0.0467943 -1.19035e-13 5.03096e-13 -2.04489e-13 0 3.55562e-16
751 12 0.001 -0.0376374 -0.00095117 -0.046794 -1.65384e-13 4.53713e-13 -2.01862e-13 0 3.69876e-16
1147 14 0.001 -0.0176374 -0.00095117 -0.046794 -1.80466e-13 4.57666e-13 -1.99821e-13 0 3.69876e-16
1543 16 0.001 0.00236257 -0.00095117 -0.046794 -1.83459e-13 4.58803e-13 -1.99612e-13 0 3.69876e-16
1939 18 0.001 0.0223626 -0.00095117 -0.046794 -1.95309e-13 4.55485e-13 -1.98428e-13 0 3.69876e-16
373 11 0.001 -0.0575836 0.000981262 -0.0463467 -1.96792e-14 4.27548e-13 -6.01134e-14 0 7.27982e-17
374 11 0.001 -0.0577308 2.00009e-05 -0.0465755 -1.30825e-13 4.92681e-13 -1.42143e-13 0 1.87085e-16
749 12 0.001 -0.0375838 0.000980419 -0.0463466 -1.11081e-13 4.53376e-13 -6.47118e-14 0 7.9602e-17
750 12 0.001 -0.0377308 1.91101e-05 -0.0465753 -8.21582e-14 4.55874e-13 -1.30793e-13 0 1.97921e-16
1145 14 0.001 -0.0175838 0.000980419 -0.0463466 -6.90345e-14 4.51265e-13 -6.00496e-14 0 7.9602e-17
1146 14 0.001 -0.0177308 1.91101e-05 -0.0465753 -9.5981e-14 4.52092e-13 -1.33194e-13 0 1.97921e-16
1541 16 0.001 0.00241624 0.000980419 -0.0463466 -3.51607e-14 4.51391e-13 -5.66245e-14 0 7.9602e-17
1542 16 0.001 0.00226923 1.91101e-05 -0.0465753 -1.08579e-13 4.50614e-13 -1.3428e-13 0 1.97921e-16
1937 18 0.001 0.0224162 0.000980419 -0.0463466 -3.67276e-14 4.54442e-13 -5.66146e-14 0 7.9602e-17
1938 18 0.001 0.0222692 1.91101e-05 -0.0465753 -1.23222e-13 4.50851e-13 -1.35887e-13 0 1.97921e-16
372 11 0.001 -0.0572059 0.00187419 -0.0461058 -9.52975e-14 4.29893e-13 -1.46611e-14 0 1.62318e-17
748 12 0.001 -0.0372063 0.00187343 -0.0461057 8.72541e-14 3.68838e-13 2.13203e-14 0 1.91771e-17
1144 14 0.001 -0.0172063 0.00187343 -0.0461057 2.22931e-14 3.72816e-13 1.16695e-14 0 1.91771e-17
1540 16 0.001 0.00279373 0.00187343 -0.0461057 1.14206e-15 3.77458e-13 1.05008e-14 0 1.91771e-17
1936 18 0.001 0.0227937 0.00187343 -0.0461057 3.4119e-14 3.79803e-13 1.65299e-14 0 1.91771e-17
371 11 0.001 -0.0566219 0.00264383 -0.0458515 2.75975e-13 3.34228e-13 1.26589e-13 0 2.84903e-18
747 12 0.001 -0.0366224 0.0026432 -0.0458515 2.70758e-14 3.35487e-13 7.13266e-14 0 2.67403e-18
1143 14 0.001 -0.0166224 0.0026432 -0.0458515 8.53063e-14 3.22689e-13 8.04166e-14 0 2.67403e-18
1539 16 0.001 0.00337757 0.0026432 -0.0458515 6.71265e-14 3.15785e-13 7.42726e-14 0 2.67403e-18
1935 18 0.001 0.0233776 0.0026432 -0.0458515 4.93049e-14 3.19514e-13 7.16737e-14 0 2.67403e-18
370 11 0.001 -0.0558685 0.00324297 -0.0455843 -7.83383e-14 2.68235e-13 7.84905e-14 0 1.01023e-17
369 11 0.001 -0.054993 0.00363498 -0.0453053 2.25889e-13 1.89686e-13 1.82743e-13 0 1.81486e-17
368 11 0.001 -0.0540502 0.00379607 -0.0450168 1.44772e-13 7.1843e-14 1.62034e-13 0 1.70819e-17
367 11 0.001 -0.0530991 0.00371668 -0.0447218 1.32896e-13 2.55759e-14 1.39447e-13 0 8.53985e-18
745 12 0.001 -0.0349937 0.0036347 -0.0453053 1.49674e-13 2.02027e-13 1.64723e-13 0 1.51121e-17
746 12 0.001 -0.0358691 0.0032425 -0.0455843 8.1285e-14 2.29882e-13 1.21972e-13 0 7.89526e-18
744 12 0.001 -0.034051 0.00379599 -0.0450168 1.58201e-13 5.08964e-14 1.70386e-13 0 1.43084e-17
743 12 0.001 -0.0330998 0.0037168 -0.0447217 9.61036e-14 2.98771e-14 1.32151e-13 0 6.83203e-18
1142 14 0.001 -0.0158691 0.0032425 -0.0455843 6.55194e-14 2.59768e-13 1.22385e-13 0 7.89525e-18
1140 14 0.001 -0.014051 0.00379599 -0.0450168 1.27774e-13 8.47342e-14 1.62437e-13 0 1.43084e-17
1141 14 0.001 -0.0149937 0.0036347 -0.0453053 1.46798e-13 1.66541e-13 1.61703e-13 0 1.51121e-17
1139 14 0.001 -0.0130998 0.0037168 -0.0447217 1.30809e-13 3.5457e-15 1.4088e-13 0 6.83203e-18
1538 16 0.001 0.00413086 0.0032425 -0.0455843 9.5245e-14 2.60202e-13 1.29886e-13 0 7.89525e-18
1537 16 0.001 0.00500628 0.0036347 -0.0453053 1.29164e-13 1.67398e-13 1.57186e-13 0 1.51121e-17
1536 16 0.001 0.00594903 0.00379599 -0.0450168 1.42991e-13 8.44159e-14 1.66792e-13 0 1.43084e-17
1535 16 0.001 0.00690017 0.0037168 -0.0447217 1.18722e-13 3.56836e-15 1.37475e-13 0 6.83203e-18
1933 18 0.001 0.0250063 0.0036347 -0.0453053 1.34042e-13 1.68765e-13 1.58402e-13 0 1.51121e-17
1934 18 0.001 0.0241309 0.0032425 -0.0455843 8.53352e-14 2.52313e-13 1.26437e-13 0 7.89525e-18
1932 18 0.001 0.025949 0.00379599 -0.0450168 1.41063e-13 8.33867e-14 1.65886e-13 0 1.43084e-17
1931 18 0.001 0.0269002 0.0037168 -0.0447217 1.34839e-13 1.20089e-15 1.43986e-13 0 6.83203e-18
361 11 0.001 -0.0501487 -0.000582913 -0.0429766 -1.4719e-13 -3.47109e-13 -2.09122e-13 0 1.59034e-16
737 12 0.001 -0.0301486 -0.000582155 -0.0429763 -1.32163e-13 -3.10697e-13 -2.05712e-13 0 1.62534e-16
1133 14 0.001 -0.0101486 -0.000582155 -0.0429763 -1.24479e-13 -3.10818e-13 -2.05859e-13 0 1.62534e-16
1529 16 0.001 0.00985144 -0.000582155 -0.0429763 -1.23101e-13 -3.1511e-13 -2.04883e-13 0 1.62534e-16
1925 18 0.001 0.0298514 -0.000582155 -0.0429763 -1.30476e-13 -3.08513e-13 -2.06944e-13 0 1.62534e-16
362 11 0.001 -0.0501217 0.000376586 -0.0432534 1.13826e-14 -3.13109e-13 -1.58263e-13 0 1.20278e-16
363 11 0.001 -0.0503339 0.00131047 -0.0435377 -4.8008e-14 -2.62857e-13 -1.07776e-13 0 7.38381e-17
738 12 0.001 -0.0301218 0.000377346 -0.0432532 -3.0336e-14 -2.96717e-13 -1.52019e-13 0 1.23786e-16
739 12 0.001 -0.0303342 0.00131118 -0.0435376 -5.78681e-14 -2.69107e-13 -9.98079e-14 0 7.70435e-17
1134 14 0.001 -0.0101218 0.000377346 -0.0432532 -5.87618e-14 -2.98249e-13 -1.5408e-13 0 1.23786e-16
1135 14 0.001 -0.0103342 0.00131118 -0.0435376 -2.12515e-14 -2.68568e-13 -9.42512e-14 0 7.70435e-17
1530 16 0.001 0.00987823 0.000377346 -0.0432532 -6.35565e-14 -2.97152e-13 -1.54732e-13 0 1.23786e-16
1531 16 0.001 0.00966581 0.00131118 -0.0435376 -6.44418e-15 -2.65071e-13 -9.37637e-14 0 7.70435e-17
1926 18 0.001 0.0298782 0.000377346 -0.0432532 -4.28603e-14 -2.96863e-13 -1.53136e-13 0 1.23786e-16
1927 18 0.001 0.0296658 0.00131118 -0.0435376 -4.02014e-14 -2.65731e-13 -9.80375e-14 0 7.70435e-17
365 11 0.001 -0.0514066 0.00287216 -0.0441247 1.40362e-13 -1.54265e-13 5.15129e-14 0 8.31869e-18
364 11 0.001 -0.0507715 0.00216008 -0.0438287 4.56753e-14 -2.53807e-13 -2.33672e-14 0 3.31343e-17
740 12 0.001 -0.030772 0.00216069 -0.0438285 8.92864e-14 -2.29854e-13 -1.06269e-14 0 3.55926e-17
741 12 0.001 -0.0314072 0.00287264 -0.0441246 9.64346e-14 -1.5761e-13 4.75831e-14 0 9.57922e-18
1136 14 0.001 -0.010772 0.00216069 -0.0438285 7.2175e-14 -2.27815e-13 -1.42245e-14 0 3.55926e-17
1137 14 0.001 -0.0114072 0.00287264 -0.0441246 7.99625e-14 -1.56508e-13 4.18098e-14 0 9.57922e-18
1533 16 0.001 0.00859278 0.00287264 -0.0441246 8.78707e-14 -1.54346e-13 4.23195e-14 0 9.57922e-18
1532 16 0.001 0.00922802 0.00216069 -0.0438285 5.64587e-14 -2.32545e-13 -1.48379e-14 0 3.55926e-17
1928 18 0.001 0.029228 0.00216069 -0.0438285 9.16211e-14 -2.32501e-13 -9.07318e-15 0 3.55926e-17
1929 18 0.001 0.0285928 0.00287264 -0.0441246 7.20955e-14 -1.63382e-13 4.20995e-14 0 9.57922e-18
366 11 0.001 -0.0521991 0.0034021 -0.0444233 1.46716e-13 -1.15548e-13 1.1014e-13 0 2.02828e-18
742 12 0.001 -0.0321998 0.00340241 -0.0444232 1.11891e-13 -9.01714e-14 1.04191e-13 0 1.79734e-18
1138 14 0.001 -0.0121998 0.00340241 -0.0444232 1.21116e-13 -8.22838e-14 1.08889e-13 0 1.79734e-18
1534 16 0.001 0.00780022 0.00340241 -0.0444232 1.22181e-13 -8.14239e-14 1.0936e-13 0 1.79734e-18
1930 18 0.001 0.0278002 0.00340241 -0.0444232 1.09718e-13 -7.00162e-14 1.01798e-13 0 1.79734e-18
356 11 0.001 -0.0533341 -0.00380196 -0.0416843 -3.36191e-13 -1.20964e-13 -1.54802e-13 0 7.49204e-17
357 11 0.001 -0.0524078 -0.00352394 -0.0419349 -2.57699e-13 -2.08439e-13 -2.16403e-13 0 1.13646e-16
358 11 0.001 -0.0515795 -0.00302601 -0.0421878 -3.53397e-13 -2.19673e-13 -2.29529e-13 0 1.50503e-16
732 12 0.001 -0.0333333 -0.00380186 -0.041684 -2.56175e-13 -1.15993e-13 -1.63619e-13 0 7.78648e-17
733 12 0.001 -0.0324071 -0.00352364 -0.0419347 -3.47012e-13 -1.77655e-13 -1.87411e-13 0 1.16727e-16
734 12 0.001 -0.0315789 -0.00302555 -0.0421876 -2.18185e-13 -2.40678e-13 -2.41178e-13 0 1.53644e-16
1128 14 0.001 -0.0133333 -0.00380186 -0.041684 -2.94834e-13 -1.13224e-13 -1.54183e-13 0 7.78648e-17
1129 14 0.001 -0.0124071 -0.00352364 -0.0419347 -2.83112e-13 -1.81557e-13 -2.01201e-13 0 1.16727e-16
1130 14 0.001 -0.0115789 -0.00302555 -0.0421876 -2.63815e-13 -2.3755e-13 -2.32162e-13 0 1.53644e-16
1524 16 0.001 0.0066667 -0.00380186 -0.041684 -3.04715e-13 -1.13179e-13 -1.51811e-13 0 7.78648e-17
1525 16 0.001 0.00759286 -0.00352364 -0.0419347 -2.80366e-13 -1.84024e-13 -2.01469e-13 0 1.16727e-16
1526 16 0.001 0.0084211 -0.00302555 -0.0421876 -2.68042e-13 -2.33656e-13 -2.32209e-13 0 1.53644e-16
1920 18 0.001 0.0266667 -0.00380186 -0.041684 -2.89224e-13 -1.11573e-13 -1.56411e-13 0 7.78648e-17
1921 18 0.001 0.0275929 -0.00352364 -0.0419347 -2.88018e-13 -1.76526e-13 -2.00534e-13 0 1.16727e-16
1922 18 0.001 0.0284211 -0.00302555 -0.0421876 -2.58287e-13 -2.42187e-13 -2.32599e-13 0 1.53644e-16
359 11 0.001 -0.0509007 -0.00233952 -0.0424447 -1.58545e-13 -3.13452e-13 -2.59904e-13 0 1.7511e-16
360 11 0.001 -0.0504137 -0.00150769 -0.0427072 -2.40551e-13 -3.12245e-13 -2.39367e-13 0 1.78906e-16
735 12 0.001 -0.0309003 -0.00233892 -0.0424445 -2.49541e-13 -2.7782e-13 -2.39084e-13 0 1.78328e-16
736 12 0.001 -0.0304134 -0.00150698 -0.042707 -1.736e-13 -2.99576e-13 -2.38145e-13 0 1.82262e-16
1131 14 0.001 -0.0109003 -0.00233892 -0.0424445 -2.39048e-13 -2.76926e-13 -2.42643e-13 0 1.78328e-16
1132 14 0.001 -0.0104134 -0.00150698 -0.042707 -1.67817e-13 -3.01294e-13 -2.36984e-13 0 1.82262e-16
1527 16 0.001 0.00909974 -0.00233892 -0.0424445 -2.28626e-13 -2.79029e-13 -2.43587e-13 0 1.78328e-16
1528 16 0.001 0.00958657 -0.00150698 -0.042707 -1.75596e-13 -2.98924e-13 -2.36739e-13 0 1.82262e-16
1923 18 0.001 0.0290997 -0.00233892 -0.0424445 -2.38099e-13 -2.73185e-13 -2.43174e-13 0 1.78328e-16
1924 18 0.001 0.0295866 -0.00150698 -0.042707 -1.74493e-13 -3.08421e-13 -2.34436e-13 0 1.82262e-16
353 11 0.001 -0.0561137 -0.00321696 -0.0409295 -1.87526e-13 7.30545e-14 -1.73577e-14 0 8.69811e-18
355 11 0.001 -0.0543004 -0.00384265 -0.0414341 -2.56297e-13 -4.90658e-14 -1.21275e-13 0 4.26283e-17
354 11 0.001 -0.0552465 -0.00364348 -0.0411829 -3.22923e-13 1.50216e-14 -3.61811e-14 0 2.0703e-17
729 12 0.001 -0.036113 -0.00321745 -0.0409292 -2.39242e-13 6.6641e-14 2.9266e-15 0 1.04003e-17
730 12 0.001 -0.0352458 -0.00364378 -0.0411827 -2.38201e-13 -1.02236e-14 -5.30646e-14 0 2.291e-17
731 12 0.001 -0.0342996 -0.00384275 -0.0414339 -3.01212e-13 -5.33965e-14 -9.48738e-14 0 4.52825e-17
1125 14 0.001 -0.016113 -0.00321745 -0.0409292 -1.96067e-13 6.44905e-14 -5.11701e-15 0 1.04003e-17
1126 14 0.001 -0.0152458 -0.00364378 -0.0411827 -2.29276e-13 -1.09712e-14 -5.51813e-14 0 2.291e-17
1127 14 0.001 -0.0142996 -0.00384275 -0.0414339 -3.0747e-13 -5.46895e-14 -9.39888e-14 0 4.52825e-17
1521 16 0.001 0.00388697 -0.00321745 -0.0409292 -2.18006e-13 6.76661e-14 -4.64926e-16 0 1.04003e-17
1523 16 0.001 0.00570039 -0.00384275 -0.0414339 -2.96801e-13 -5.44092e-14 -9.66849e-14 0 4.52825e-17
1522 16 0.001 0.00475417 -0.00364378 -0.0411827 -2.24056e-13 -1.36447e-14 -5.65033e-14 0 2.291e-17
1917 18 0.001 0.023887 -0.00321745 -0.0409292 -2.02512e-13 6.82185e-14 -2.31519e-15 0 1.04003e-17
1918 18 0.001 0.0247542 -0.00364378 -0.0411827 -2.15611e-13 -8.99268e-15 -5.95137e-14 0 2.291e-17
1919 18 0.001 0.0257004 -0.00384275 -0.0414339 -3.14706e-13 -5.96464e-14 -9.1152e-14 0 4.52825e-17
351 11 0.001 -0.0574034 -0.00180126 -0.0404133 2.56633e-14 1.66857e-13 3.25182e-14 0 2.39968e-18
352 11 0.001 -0.0568478 -0.00258982 -0.040673 -2.65642e-13 1.10505e-13 3.84201e-14 0 3.61602e-18
727 12 0.001 -0.0374031 -0.00180202 -0.040413 -1.86021e-13 1.26871e-13 5.88257e-14 0 3.66562e-18
728 12 0.001 -0.0368473 -0.00259046 -0.0406728 -9.76541e-14 1.20963e-13 2.31947e-14 0 4.93644e-18
1123 14 0.001 -0.0174031 -0.00180202 -0.040413 -1.17818e-13 1.33991e-13 5.23973e-14 0 3.66562e-18
1124 14 0.001 -0.0168473 -0.00259046 -0.0406728 -1.78149e-13 1.17623e-13 3.50235e-14 0 4.93644e-18
1519 16 0.001 0.00259693 -0.00180202 -0.040413 -9.80094e-14 1.33247e-13 5.11548e-14 0 3.66562e-18
1520 16 0.001 0.00315271 -0.00259046 -0.0406728 -1.64725e-13 1.17919e-13 3.23693e-14 0 4.93644e-18
1915 18 0.001 0.0225969 -0.00180202 -0.040413 -1.09122e-13 1.33377e-13 5.15149e-14 0 3.66562e-18
1916 18 0.001 0.0231527 -0.00259046 -0.0406728 -1.83696e-13 1.14235e-13 3.50481e-14 0 4.93644e-18
350 11 0.001 -0.0577461 -0.00090048 -0.0401503 -1.05231e-13 1.67126e-13 4.0593e-14 0 3.82143e-18
726 12 0.001 -0.037746 -0.000901315 -0.04015 5.75807e-14 2.13106e-13 4.89732e-14 0 5.51687e-18
1122 14 0.001 -0.017746 -0.000901315 -0.04015 1.38309e-14 2.13221e-13 5.10568e-14 0 5.51687e-18
1518 16 0.001 0.00225405 -0.000901315 -0.04015 -2.93532e-14 2.12027e-13 5.31567e-14 0 5.51687e-18
1914 18 0.001 0.022254 -0.000901315 -0.04015 5.11647e-15 2.15849e-13 5.15741e-14 0 5.51687e-18
348 11 0.001 -0.0577227 0.00100965 -0.0396164 9.34662e-14 2.09301e-13 -4.15893e-15 0 2.03078e-17
349 11 0.001 -0.0578547 5.63636e-05 -0.0398844 7.13737e-14 2.08309e-13 2.68219e-14 0 8.97272e-18
724 12 0.001 -0.0377229 0.00100882 -0.0396162 1.29647e-13 1.89774e-13 3.62606e-15 0 2.4392e-17
725 12 0.001 -0.0378548 5.55032e-05 -0.0398842 -1.51648e-14 1.34695e-13 1.60593e-14 0 1.16331e-17
1120 14 0.001 -0.0177229 0.00100882 -0.0396162 1.35045e-13 1.94034e-13 3.87644e-15 0 2.4392e-17
1121 14 0.001 -0.0178548 5.55032e-05 -0.0398842 1.07219e-14 1.32265e-13 1.73011e-14 0 1.16331e-17
1516 16 0.001 0.00227707 0.00100882 -0.0396162 1.13077e-13 1.87712e-13 2.47337e-15 0 2.4392e-17
1517 16 0.001 0.00214522 5.55032e-05 -0.0398842 4.81239e-14 1.36761e-13 1.7294e-14 0 1.16331e-17
1912 18 0.001 0.0222771 0.00100882 -0.0396162 1.27074e-13 1.79866e-13 -1.78723e-15 0 2.4392e-17
1913 18 0.001 0.0221452 5.55032e-05 -0.0398842 1.79507e-14 1.39461e-13 2.03692e-14 0 1.16331e-17
347 11 0.001 -0.0573583 0.0019 -0.0393471 2.26143e-13 1.8898e-13 -4.07741e-14 0 3.986e-17
346 11 0.001 -0.0567843 0.00267189 -0.0390773 2.33352e-13 1.40778e-13 -9.75242e-14 0 6.75656e-17
722 12 0.001 -0.036785 0.00267126 -0.039077 1.81062e-13 1.10567e-13 -9.93242e-14 0 7.50728e-17
723 12 0.001 -0.0373587 0.00189924 -0.0393469 2.28398e-13 1.95893e-13 -3.16401e-14 0 4.56412e-17
1118 14 0.001 -0.016785 0.00267126 -0.039077 2.47014e-13 1.14674e-13 -8.81114e-14 0 7.50728e-17
1119 14 0.001 -0.0173587 0.00189924 -0.0393469 1.69489e-13 1.81822e-13 -4.18434e-14 0 4.56412e-17
1515 16 0.001 0.00264126 0.00189924 -0.0393469 1.85651e-13 1.83535e-13 -4.01802e-14 0 4.56412e-17
1514 16 0.001 0.00321502 0.00267126 -0.039077 2.28241e-13 1.25598e-13 -8.94309e-14 0 7.50728e-17
1910 18 0.001 0.023215 0.00267126 -0.039077 2.4204e-13 1.22185e-13 -8.79819e-14 0 7.50728e-17
1911 18 0.001 0.0226413 0.00189924 -0.0393469 1.76014e-13 1.84997e-13 -3.92635e-14 0 4.56412e-17
345 11 0.001 -0.0560367 0.00327717 -0.0388077 2.92488e-13 1.07593e-13 -1.28305e-13 0 1.00505e-16
344 11 0.001 -0.055162 0.00367802 -0.038539 3.26341e-13 4.09368e-14 -1.65786e-13 0 1.33407e-16
721 12 0.001 -0.0360375 0.00327671 -0.0388075 3.15997e-13 1.11275e-13 -1.16357e-13 0 1.09529e-16
720 12 0.001 -0.0351628 0.00367775 -0.0385387 3.00122e-13 2.68865e-14 -1.60589e-13 0 1.4356e-16
1117 14 0.001 -0.0160375 0.00327671 -0.0388075 2.74117e-13 1.16042e-13 -1.23477e-13 0 1.09529e-16
1116 14 0.001 -0.0151628 0.00367775 -0.0385387 3.34525e-13 3.8199e-14 -1.52375e-13 0 1.4356e-16
1513 16 0.001 0.00396253 0.00327671 -0.0388075 2.9545e-13 9.56083e-14 -1.21693e-13 0 1.09529e-16
1512 16 0.001 0.00483715 0.00367775 -0.0385387 3.17884e-13 5.364e-14 -1.54648e-13 0 1.4356e-16
1909 18 0.001 0.0239625 0.00327671 -0.0388075 2.85117e-13 1.08758e-13 -1.22075e-13 0 1.09529e-16
1908 18 0.001 0.0248372 0.00367775 -0.0385387 3.21847e-13 3.75441e-14 -1.55003e-13 0 1.4356e-16
338 11 0.001 -0.0504159 0.00139893 -0.0369516 1.16804e-13 -2.43748e-13 -7.0158e-14 0 1.21886e-16
714 12 0.001 -0.0304163 0.00139975 -0.0369513 1.19582e-13 -1.8773e-13 -7.38684e-14 0 1.30669e-16
1110 14 0.001 -0.0104163 0.00139975 -0.0369513 1.50219e-13 -1.83339e-13 -7.22981e-14 0 1.30669e-16
1506 16 0.001 0.00958374 0.00139975 -0.0369513 1.32373e-13 -1.82318e-13 -7.44166e-14 0 1.30669e-16
1902 18 0.001 0.0295837 0.00139975 -0.0369513 1.19569e-13 -1.89796e-13 -7.34258e-14 0 1.30669e-16
340 11 0.001 -0.0515309 0.00295292 -0.037477 2.85603e-13 -1.42946e-13 -1.48953e-13 0 1.67194e-16
339 11 0.001 -0.0508757 0.00224613 -0.0372141 2.4644e-13 -2.00664e-13 -1.08807e-13 0 1.4695e-16
716 12 0.001 -0.0315316 0.00295348 -0.0374767 2.48412e-13 -1.4565e-13 -1.45622e-13 0 1.77464e-16
715 12 0.001 -0.0308762 0.00224684 -0.0372139 2.59019e-13 -2.10244e-13 -9.59765e-14 0 1.56523e-16
1111 14 0.001 -0.0108762 0.00224684 -0.0372139 2.40834e-13 -2.18853e-13 -9.55273e-14 0 1.56523e-16
1112 14 0.001 -0.0115316 0.00295348 -0.0374767 2.59167e-13 -1.45197e-13 -1.44429e-13 0 1.77464e-16
1508 16 0.001 0.00846839 0.00295348 -0.0374767 2.53976e-13 -1.51251e-13 -1.44545e-13 0 1.77464e-16
1507 16 0.001 0.0091238 0.00224684 -0.0372139 2.51438e-13 -2.15287e-13 -9.5223e-14 0 1.56523e-16
1904 18 0.001 0.0284684 0.00295348 -0.0374767 2.73548e-13 -1.5129e-13 -1.39636e-13 0 1.77464e-16
1903 18 0.001 0.0291238 0.00224684 -0.0372139 2.4564e-13 -2.08987e-13 -9.81891e-14 0 1.56523e-16
343 11 0.001 -0.0542148 0.00384933 -0.0382715 3.95723e-13 9.33491e-15 -1.62694e-13 0 1.60182e-16
342 11 0.001 -0.0532544 0.00378031 -0.0380054 3.19415e-13 -6.23905e-14 -1.91766e-13 0 1.75829e-16
341 11 0.001 -0.0523407 0.00347518 -0.0377406 3.13322e-13 -1.39796e-13 -1.66901e-13 0 1.77929e-16
719 12 0.001 -0.0342157 0.00384928 -0.0382712 3.21128e-13 1.62365e-14 -1.76306e-13 0 1.70992e-16
718 12 0.001 -0.0332553 0.00378047 -0.0380051 3.54085e-13 -8.4251e-14 -1.66591e-13 0 1.86824e-16
717 12 0.001 -0.0323415 0.00347555 -0.0377404 3.0276e-13 -1.08705e-13 -1.65982e-13 0 1.8871e-16
1115 14 0.001 -0.0142157 0.00384928 -0.0382712 3.11286e-13 -6.49895e-15 -1.77901e-13 0 1.70992e-16
1113 14 0.001 -0.0123415 0.00347555 -0.0377404 2.89387e-13 -1.13316e-13 -1.68159e-13 0 1.8871e-16
1114 14 0.001 -0.0132553 0.00378047 -0.0380051 3.54324e-13 -6.28296e-14 -1.68551e-13 0 1.86824e-16
1511 16 0.001 0.00578427 0.00384928 -0.0382712 3.25083e-13 -7.26658e-15 -1.74982e-13 0 1.70992e-16
1510 16 0.001 0.00674473 0.00378047 -0.0380051 3.32346e-13 -7.3464e-14 -1.73371e-13 0 1.86824e-16
1509 16 0.001 0.00765848 0.00347555 -0.0377404 3.07681e-13 -1.03195e-13 -1.64527e-13 0 1.8871e-16
1907 18 0.001 0.0257843 0.00384928 -0.0382712 3.30076e-13 2.50761e-15 -1.73382e-13 0 1.70992e-16
1906 18 0.001 0.0267447 0.00378047 -0.0380051 3.23166e-13 -6.96988e-14 -1.75779e-13 0 1.86824e-16
1905 18 0.001 0.0276585 0.00347555 -0.0377404 3.00318e-13 -1.11772e-13 -1.65973e-13 0 1.8871e-16
333 11 0.001 -0.0515517 -0.00297703 -0.0356328 -2.07084e-13 -1.19091e-13 2.29266e-14 0 4.03473e-17
334 11 0.001 -0.0508916 -0.00227558 -0.035898 4.19501e-14 -1.57976e-13 1.75757e-14 0 4.6391e-17
709 12 0.001 -0.031551 -0.00297648 -0.0356326 -1.2028e-13 -9.40248e-14 1.90714e-14 0 4.64143e-17
710 12 0.001 -0.0308911 -0.00227487 -0.0358978 -7.33788e-14 -1.68517e-13 3.38995e-14 0 5.26123e-17
1105 14 0.001 -0.011551 -0.00297648 -0.0356326 -1.13532e-13 -9.93312e-14 2.13348e-14 0 4.64143e-17
1106 14 0.001 -0.0108911 -0.00227487 -0.0358978 -9.59078e-14 -1.57291e-13 3.34022e-14 0 5.26123e-17
1501 16 0.001 0.00844905 -0.00297648 -0.0356326 -9.84293e-14 -9.12647e-14 1.72037e-14 0 4.64143e-17
1502 16 0.001 0.00910892 -0.00227487 -0.0358978 -9.556e-14 -1.6192e-13 3.44538e-14 0 5.26123e-17
1897 18 0.001 0.028449 -0.00297648 -0.0356326 -9.29544e-14 -9.88418e-14 1.80419e-14 0 4.64143e-17
1898 18 0.001 0.0291089 -0.00227487 -0.0358978 -1.17405e-13 -1.54861e-13 3.62857e-14 0 5.26123e-17
335 11 0.001 -0.050426 -0.0014322 -0.0361624 -1.42194e-13 -1.99619e-13 1.98212e-14 0 5.76923e-17
336 11 0.001 -0.0501839 -0.000499512 -0.036426 6.35607e-14 -2.25981e-13 -1.76642e-15 0 7.45938e-17
711 12 0.001 -0.0304256 -0.00143138 -0.0361622 -4.73551e-14 -1.81304e-13 1.94046e-14 0 6.43251e-17
712 12 0.001 -0.0301837 -0.00049864 -0.0364258 4.44121e-14 -1.90986e-13 -1.20837e-15 0 8.18362e-17
1107 14 0.001 -0.0104256 -0.00143138 -0.0361622 -1.96883e-14 -1.89245e-13 1.88122e-14 0 6.43251e-17
1108 14 0.001 -0.0101837 -0.00049864 -0.0364258 3.12941e-14 -1.91152e-13 -1.05568e-17 0 8.18362e-17
1503 16 0.001 0.00957436 -0.00143138 -0.0361622 -2.46556e-14 -1.86349e-13 1.85854e-14 0 6.43251e-17
1504 16 0.001 0.00981626 -0.00049864 -0.0364258 3.23645e-14 -1.90962e-13 -3.26236e-16 0 8.18362e-17
1899 18 0.001 0.0295744 -0.00143138 -0.0361622 -5.90319e-15 -1.89833e-13 1.75772e-14 0 6.43251e-17
1900 18 0.001 0.0298163 -0.00049864 -0.0364258 1.15309e-14 -1.93533e-13 7.80535e-16 0 8.18362e-17
337 11 0.001 -0.0501804 0.00046426 -0.036689 1.6865e-13 -2.07855e-13 -3.94055e-14 0 9.66149e-17
713 12 0.001 -0.0301805 0.000465131 -0.0366888 1.27132e-13 -2.27714e-13 -3.07151e-14 0 1.04597e-16
1109 14 0.001 -0.0101805 0.000465131 -0.0366888 1.12558e-13 -2.25376e-13 -3.24631e-14 0 1.04597e-16
1505 16 0.001 0.00981946 0.000465131 -0.0366888 1.21536e-13 -2.2841e-13 -3.09082e-14 0 1.04597e-16
1901 18 0.001 0.0298195 0.000465131 -0.0366888 1.43435e-13 -2.22463e-13 -3.18683e-14 0 1.04597e-16
328 11 0.001 -0.0560596 -0.00326571 -0.0343011 -2.38431e-13 1.84485e-13 -9.98292e-14 0 7.19352e-17
329 11 0.001 -0.0551873 -0.00367353 -0.0345675 -1.91443e-13 1.2519e-13 -9.20158e-14 0 5.8888e-17
330 11 0.001 -0.0542413 -0.00385226 -0.034834 -2.07709e-13 7.24664e-14 -4.97625e-14 0 4.86131e-17
331 11 0.001 -0.0532805 -0.00379074 -0.0351006 -1.91011e-13 -1.09428e-14 -2.98036e-14 0 4.18473e-17
332 11 0.001 -0.0523649 -0.00349281 -0.035367 -1.81034e-13 -5.04008e-14 1.21316e-14 0 3.89857e-17
704 12 0.001 -0.0360588 -0.00326626 -0.0343008 -2.3868e-13 1.87281e-13 -9.30099e-14 0 8.11772e-17
705 12 0.001 -0.0351864 -0.00367387 -0.0345672 -1.81798e-13 1.0933e-13 -8.83202e-14 0 6.71323e-17
706 12 0.001 -0.0342403 -0.00385236 -0.0348338 -2.27215e-13 6.61292e-14 -3.76435e-14 0 5.5961e-17
707 12 0.001 -0.0332795 -0.00379061 -0.0351004 -1.80857e-13 2.81626e-15 -2.26756e-14 0 4.84928e-17
708 12 0.001 -0.032364 -0.00349245 -0.0353667 -1.55526e-13 -4.06284e-14 4.12176e-15 0 4.51927e-17
1100 14 0.001 -0.0160588 -0.00326626 -0.0343008 -1.93337e-13 1.74977e-13 -1.03625e-13 0 8.11772e-17
1101 14 0.001 -0.0151864 -0.00367387 -0.0345672 -1.77302e-13 1.1791e-13 -8.94293e-14 0 6.71323e-17
1102 14 0.001 -0.0142403 -0.00385236 -0.0348338 -2.51097e-13 5.96287e-14 -3.20651e-14 0 5.5961e-17
1104 14 0.001 -0.012364 -0.00349245 -0.0353667 -1.52634e-13 -4.07523e-14 9.82607e-16 0 4.51927e-17
1103 14 0.001 -0.0132795 -0.00379061 -0.0351004 -1.69999e-13 5.21324e-15 -2.40835e-14 0 4.84928e-17
1496 16 0.001 0.00394125 -0.00326626 -0.0343008 -1.71954e-13 1.88437e-13 -1.0595e-13 0 8.11772e-17
1497 16 0.001 0.00481357 -0.00367387 -0.0345672 -1.83682e-13 1.15206e-13 -8.8144e-14 0 6.71323e-17
1498 16 0.001 0.00575966 -0.00385236 -0.0348338 -2.42646e-13 5.84855e-14 -3.4733e-14 0 5.5961e-17
1499 16 0.001 0.00672045 -0.00379061 -0.0351004 -1.73371e-13 7.4609e-15 -2.25607e-14 0 4.84928e-17
1500 16 0.001 0.00763597 -0.00349245 -0.0353667 -1.6931e-13 -4.79135e-14 4.88107e-15 0 4.51927e-17
1892 18 0.001 0.0239412 -0.00326626 -0.0343008 -1.90072e-13 1.74775e-13 -1.03822e-13 0 8.11772e-17
1893 18 0.001 0.0248136 -0.00367387 -0.0345672 -1.69127e-13 1.17952e-13 -9.2065e-14 0 6.71323e-17
1894 18 0.001 0.0257597 -0.00385236 -0.0348338 -2.56409e-13 5.69301e-14 -2.98064e-14 0 5.5961e-17
1895 18 0.001 0.0267205 -0.00379061 -0.0351004 -1.75968e-13 1.19043e-14 -2.30658e-14 0 4.84928e-17
1896 18 0.001 0.027636 -0.00349245 -0.0353667 -1.5378e-13 -4.49787e-14 6.8332e-16 0 4.51927e-17
327 11 0.001 -0.0568035 -0.00265423 -0.0340353 -1.25652e-13 2.33386e-13 -1.37767e-13 0 8.65427e-17
703 12 0.001 -0.0368028 -0.00265497 -0.034035 -5.15903e-14 2.17115e-13 -1.45214e-13 0 9.67847e-17
1099 14 0.001 -0.0168028 -0.00265497 -0.034035 -1.28907e-13 2.277e-13 -1.29386e-13 0 9.67847e-17