ITEM: TIMESTEP
6200000
ITEM: NUMBER OF ATOMS
1970
ITEM: BOX BOUNDS ff ff ff
-6.0000000000000005e-02 6.0000000000000005e-02
-6.0000000000000001e-03 6.0000000000000001e-03
-5.5000000000000000e-02 5.5000000000000000e-02
ITEM: ATOMS id type radius x y z fx fy fz c_bendingE c_stretchingE
384 11 0.001 -0.0508251 -0.0026344 -0.0489914 -4.79045e-13 4.9036e-14 -2.60906e-13 0 3.14107e-17
385 11 0.001 -0.050324 -0.00183306 -0.0493151 -3.65988e-13 4.71358e-15 -1.58623e-13 0 8.97807e-15
760 12 0.001 -0.030825 -0.00263439 -0.0489913 -4.79533e-13 4.18284e-14 -2.30422e-13 0 3.2469e-17
761 12 0.001 -0.030324 -0.00183304 -0.0493151 -3.32321e-13 -2.1115e-15 -1.35449e-13 0 8.93199e-15
1156 14 0.001 -0.010825 -0.00263439 -0.0489913 -4.71767e-13 4.55509e-14 -2.32546e-13 0 3.2469e-17
1157 14 0.001 -0.010324 -0.00183304 -0.0493151 -3.35114e-13 -2.66601e-15 -1.34957e-13 0 8.93199e-15
1552 16 0.001 0.00917501 -0.00263439 -0.0489913 -4.707e-13 4.58498e-14 -2.32874e-13 0 3.2469e-17
1553 16 0.001 0.00967604 -0.00183304 -0.0493151 -3.37663e-13 -2.84508e-15 -1.34799e-13 0 8.93199e-15
1948 18 0.001 0.029175 -0.00263439 -0.0489913 -4.75784e-13 5.0327e-14 -2.34373e-13 0 3.2469e-17
1949 18 0.001 0.029676 -0.00183304 -0.0493151 -3.25672e-13 -9.37957e-16 -1.35269e-13 0 8.93199e-15
2 2 0.001 -0.05 -4.31175e-17 -0.05 -3.12884e-06 3.45868e-06 2.05726e-06 0 7.70263e-15
386 11 0.001 -0.0500433 -0.0009358 -0.049653 -1.69483e-13 -1.10235e-14 -7.3113e-14 0 1.66587e-14
762 12 0.001 -0.0300433 -0.000935784 -0.0496529 -1.57488e-13 2.58637e-14 -7.61608e-14 0 1.65599e-14
4 4 0.001 -0.03 -4.31175e-17 -0.05 -3.14199e-06 3.49385e-06 2.04714e-06 0 7.65197e-15
6 6 0.001 -0.01 -4.31175e-17 -0.05 -3.14199e-06 3.49385e-06 2.04714e-06 0 7.65197e-15
1158 14 0.001 -0.0100433 -0.000935784 -0.0496529 -1.57933e-13 2.5061e-14 -7.59108e-14 0 1.65599e-14
8 8 0.001 0.01 -4.31175e-17 -0.05 -3.14199e-06 3.49385e-06 2.04714e-06 0 7.65197e-15
1554 16 0.001 0.00995674 -0.000935784 -0.0496529 -1.54964e-13 2.70686e-14 -7.68183e-14 0 1.65599e-14
10 10 0.001 0.03 -4.31175e-17 -0.05 -3.14199e-06 3.49385e-06 2.04714e-06 0 7.65197e-15
1950 18 0.001 0.0299567 -0.000935784 -0.0496529 -1.66611e-13 2.04509e-14 -7.45262e-14 0 1.65599e-14
379 11 0.001 -0.0551963 -0.00376989 -0.0476561 -7.17521e-13 6.5018e-13 -6.67782e-13 0 1.17293e-15
380 11 0.001 -0.0542525 -0.00400242 -0.0478869 -8.23219e-13 5.08123e-13 -6.16621e-13 0 1.00483e-15
381 11 0.001 -0.0532845 -0.003996 -0.0481338 -7.55841e-13 3.84329e-13 -5.71795e-13 0 7.09092e-16
382 11 0.001 -0.0523528 -0.00375238 -0.0483995 -7.29356e-13 2.567e-13 -4.70602e-13 0 3.74592e-16
383 11 0.001 -0.0515156 -0.00328832 -0.0486855 -6.1274e-13 1.49653e-13 -3.79079e-13 0 1.15064e-16
755 12 0.001 -0.0351961 -0.00377001 -0.047656 -7.06392e-13 6.28334e-13 -6.2703e-13 0 1.17611e-15
756 12 0.001 -0.0342523 -0.0040025 -0.0478868 -7.88239e-13 4.97114e-13 -5.82095e-13 0 1.00479e-15
757 12 0.001 -0.0332843 -0.00399605 -0.0481336 -6.74244e-13 3.63875e-13 -5.41905e-13 0 7.06174e-16
758 12 0.001 -0.0323526 -0.00375241 -0.0483993 -7.26242e-13 2.42552e-13 -4.27712e-13 0 3.70259e-16
759 12 0.001 -0.0315155 -0.00328832 -0.0486854 -5.65275e-13 1.62057e-13 -3.50036e-13 0 1.11841e-16
1151 14 0.001 -0.0151961 -0.00377001 -0.047656 -7.1418e-13 6.24973e-13 -6.26593e-13 0 1.17611e-15
1152 14 0.001 -0.0142523 -0.0040025 -0.0478868 -7.74299e-13 5.0058e-13 -5.84389e-13 0 1.00479e-15
1153 14 0.001 -0.0132843 -0.00399605 -0.0481336 -7.07504e-13 3.57599e-13 -5.34021e-13 0 7.06174e-16
1154 14 0.001 -0.0123526 -0.00375241 -0.0483993 -7.01316e-13 2.51428e-13 -4.34451e-13 0 3.70259e-16
1155 14 0.001 -0.0115155 -0.00328832 -0.0486854 -5.78312e-13 1.55143e-13 -3.46107e-13 0 1.11841e-16
1547 16 0.001 0.00480388 -0.00377001 -0.047656 -7.12734e-13 6.24765e-13 -6.27174e-13 0 1.17611e-15
1548 16 0.001 0.00574765 -0.0040025 -0.0478868 -7.66629e-13 4.98549e-13 -5.86257e-13 0 1.00479e-15
1549 16 0.001 0.00671567 -0.00399605 -0.0481336 -7.15281e-13 3.6072e-13 -5.3193e-13 0 7.06174e-16
1550 16 0.001 0.00764736 -0.00375241 -0.0483993 -6.96701e-13 2.48478e-13 -4.35424e-13 0 3.70259e-16
1551 16 0.001 0.00848451 -0.00328832 -0.0486854 -5.81076e-13 1.55938e-13 -3.45395e-13 0 1.11841e-16
1943 18 0.001 0.0248039 -0.00377001 -0.047656 -6.93108e-13 6.24126e-13 -6.31748e-13 0 1.17611e-15
1944 18 0.001 0.0257477 -0.0040025 -0.0478868 -7.44226e-13 4.97446e-13 -5.91284e-13 0 1.00479e-15
1945 18 0.001 0.0267157 -0.00399605 -0.0481336 -7.27142e-13 3.59123e-13 -5.29187e-13 0 7.06174e-16
1946 18 0.001 0.0276474 -0.00375241 -0.0483993 -7.08612e-13 2.48169e-13 -4.32767e-13 0 3.70259e-16
1947 18 0.001 0.0284845 -0.00328832 -0.0486854 -5.70077e-13 1.54223e-13 -3.46918e-13 0 1.11841e-16
378 11 0.001 -0.0560567 -0.00331187 -0.0474372 -7.07898e-13 7.66363e-13 -6.44159e-13 0 1.17432e-15
754 12 0.001 -0.0360565 -0.00331201 -0.0474371 -6.75146e-13 7.2935e-13 -6.13433e-13 0 1.18019e-15
1150 14 0.001 -0.0160565 -0.00331201 -0.0474371 -6.51681e-13 7.26013e-13 -6.18071e-13 0 1.18019e-15
1546 16 0.001 0.00394346 -0.00331201 -0.0474371 -6.65119e-13 7.30594e-13 -6.14726e-13 0 1.18019e-15
1942 18 0.001 0.0239435 -0.00331201 -0.0474371 -7.11166e-13 7.3765e-13 -6.04755e-13 0 1.18019e-15
376 11 0.001 -0.057321 -0.0018431 -0.047015 -4.8216e-13 9.28712e-13 -5.04483e-13 0 7.80062e-16
377 11 0.001 -0.0567799 -0.00265615 -0.0472252 -5.79654e-13 8.55645e-13 -5.97135e-13 0 1.02464e-15
753 12 0.001 -0.0367798 -0.00265631 -0.0472251 -5.78937e-13 8.24252e-13 -5.69338e-13 0 1.03214e-15
752 12 0.001 -0.037321 -0.00184328 -0.047015 -4.19644e-13 8.694e-13 -4.93243e-13 0 7.87973e-16
1149 14 0.001 -0.0167798 -0.00265631 -0.0472251 -5.78076e-13 8.30276e-13 -5.67412e-13 0 1.03214e-15
1148 14 0.001 -0.017321 -0.00184328 -0.047015 -4.58205e-13 8.72422e-13 -4.89204e-13 0 7.87973e-16
1544 16 0.001 0.00267902 -0.00184328 -0.047015 -4.41767e-13 8.74158e-13 -4.8935e-13 0 7.87973e-16
1545 16 0.001 0.00322016 -0.00265631 -0.0472251 -5.69516e-13 8.246e-13 -5.70034e-13 0 1.03214e-15
1941 18 0.001 0.0232202 -0.00265631 -0.0472251 -5.4929e-13 8.17236e-13 -5.74196e-13 0 1.03214e-15
1940 18 0.001 0.022679 -0.00184328 -0.047015 -4.43656e-13 8.75676e-13 -4.90309e-13 0 7.87973e-16
375 11 0.001 -0.0576466 -0.000923035 -0.0468017 -3.02774e-13 9.43616e-13 -3.89909e-13 0 5.11868e-16
751 12 0.001 -0.0376465 -0.000923224 -0.0468016 -3.10671e-13 9.09229e-13 -3.69784e-13 0 5.19095e-16
1147 14 0.001 -0.0176465 -0.000923224 -0.0468016 -2.73291e-13 9.06749e-13 -3.72738e-13 0 5.19095e-16
1543 16 0.001 0.00235346 -0.000923224 -0.0468016 -3.0727e-13 9.03603e-13 -3.73085e-13 0 5.19095e-16
1939 18 0.001 0.0223535 -0.000923224 -0.0468016 -2.94852e-13 9.09656e-13 -3.69715e-13 0 5.19095e-16
373 11 0.001 -0.0575867 0.00100723 -0.0463493 -4.9087e-14 8.8354e-13 -1.13635e-13 0 1.20933e-16
374 11 0.001 -0.0577368 4.70773e-05 -0.0465809 -1.57127e-13 9.12416e-13 -2.5161e-13 0 2.80894e-16
749 12 0.001 -0.0375868 0.00100705 -0.0463493 -6.73936e-14 8.2728e-13 -1.10971e-13 0 1.24842e-16
750 12 0.001 -0.0377368 4.68894e-05 -0.0465808 -1.53867e-13 8.80591e-13 -2.38997e-13 0 2.86655e-16
1145 14 0.001 -0.0175868 0.00100705 -0.0463493 9.11943e-15 8.23628e-13 -1.02953e-13 0 1.24842e-16
1146 14 0.001 -0.0177368 4.68894e-05 -0.0465808 -1.97766e-13 8.80046e-13 -2.41541e-13 0 2.86655e-16
1541 16 0.001 0.00241324 0.00100705 -0.0463493 -1.69991e-14 8.24268e-13 -1.05148e-13 0 1.24842e-16
1542 16 0.001 0.00226322 4.68894e-05 -0.0465808 -1.65468e-13 8.83633e-13 -2.39505e-13 0 2.86655e-16
1937 18 0.001 0.0224132 0.00100705 -0.0463493 4.33802e-14 8.2141e-13 -9.81674e-14 0 1.24842e-16
1938 18 0.001 0.0222632 4.68894e-05 -0.0465808 -2.05499e-13 8.79882e-13 -2.44372e-13 0 2.86655e-16
372 11 0.001 -0.0572065 0.00189817 -0.0461051 2.08251e-13 7.54373e-13 4.35931e-14 0 3.52863e-17
748 12 0.001 -0.0372065 0.00189801 -0.0461051 1.53871e-13 7.22514e-13 3.77449e-14 0 3.73565e-17
1144 14 0.001 -0.0172065 0.00189801 -0.0461051 9.43145e-14 7.40363e-13 3.38976e-14 0 3.73566e-17
1540 16 0.001 0.00279346 0.00189801 -0.0461051 1.10615e-13 7.35052e-13 3.39909e-14 0 3.73566e-17
1936 18 0.001 0.0227935 0.00189801 -0.0461051 5.60518e-14 7.43683e-13 2.66667e-14 0 3.73566e-17
371 11 0.001 -0.0566203 0.00266507 -0.0458475 1.57688e-13 6.55067e-13 1.13649e-13 0 4.8616e-18
747 12 0.001 -0.0366205 0.00266494 -0.0458475 1.92678e-13 6.18133e-13 1.28783e-13 0 5.4307e-18
1143 14 0.001 -0.0166205 0.00266494 -0.0458475 2.19996e-13 6.01274e-13 1.29258e-13 0 5.4307e-18
1539 16 0.001 0.00337953 0.00266494 -0.0458475 2.22279e-13 6.0902e-13 1.33319e-13 0 5.4307e-18
1935 18 0.001 0.0233795 0.00266494 -0.0458475 2.55725e-13 5.98779e-13 1.3858e-13 0 5.4307e-18
370 11 0.001 -0.0558654 0.00326087 -0.0455771 3.98571e-13 4.62704e-13 2.25089e-13 0 2.23341e-18
369 11 0.001 -0.054989 0.00364915 -0.0452957 3.8782e-13 3.14925e-13 2.38643e-13 0 5.03099e-18
368 11 0.001 -0.054046 0.00380627 -0.0450057 4.11411e-13 1.06053e-13 2.2537e-13 0 3.62292e-18
367 11 0.001 -0.0530953 0.00372287 -0.0447103 4.64372e-13 -6.78629e-14 1.87057e-13 0 1.26942e-18
745 12 0.001 -0.0349892 0.00364909 -0.0452957 3.41187e-13 2.92817e-13 2.36616e-13 0 4.29188e-18
746 12 0.001 -0.0358656 0.00326078 -0.0455771 3.5868e-13 4.54385e-13 2.24258e-13 0 1.84567e-18
744 12 0.001 -0.0340462 0.00380626 -0.0450057 4.03694e-13 1.15221e-13 2.33519e-13 0 3.06032e-18
743 12 0.001 -0.0330955 0.0037229 -0.0447103 3.85474e-13 -7.09367e-14 1.77312e-13 0 1.23112e-18
1142 14 0.001 -0.0158656 0.00326078 -0.0455771 3.16321e-13 4.52448e-13 2.14658e-13 0 1.84567e-18
1140 14 0.001 -0.0140462 0.00380626 -0.0450057 4.07329e-13 1.06242e-13 2.36524e-13 0 3.06032e-18
1141 14 0.001 -0.0149892 0.00364909 -0.0452957 3.72751e-13 2.97108e-13 2.44198e-13 0 4.29188e-18
1139 14 0.001 -0.0130955 0.0037229 -0.0447103 3.96461e-13 -5.51453e-14 1.77509e-13 0 1.23112e-18
1538 16 0.001 0.00413444 0.00326078 -0.0455771 3.12246e-13 4.53761e-13 2.1215e-13 0 1.84567e-18
1537 16 0.001 0.00501081 0.00364909 -0.0452957 3.68e-13 2.90403e-13 2.43001e-13 0 4.29188e-18
1536 16 0.001 0.0059538 0.00380626 -0.0450057 4.06857e-13 1.11625e-13 2.35752e-13 0 3.06032e-18
1535 16 0.001 0.00690449 0.0037229 -0.0447103 3.86806e-13 -6.51615e-14 1.76368e-13 0 1.23112e-18
1933 18 0.001 0.0250108 0.00364909 -0.0452957 3.58166e-13 2.86582e-13 2.39969e-13 0 4.29188e-18
1934 18 0.001 0.0241344 0.00326078 -0.0455771 3.00032e-13 4.59632e-13 2.10001e-13 0 1.84567e-18
1932 18 0.001 0.0259538 0.00380626 -0.0450057 4.17599e-13 1.12366e-13 2.38925e-13 0 3.06032e-18
1931 18 0.001 0.0269045 0.0037229 -0.0447103 4.0222e-13 -5.76281e-14 1.79864e-13 0 1.23112e-18
361 11 0.001 -0.0501581 -0.000592494 -0.0429817 -1.59528e-13 -7.02988e-13 -4.00601e-13 0 2.24202e-16
737 12 0.001 -0.0301581 -0.000592323 -0.0429816 -1.61137e-13 -6.65742e-13 -3.92151e-13 0 2.25674e-16
1133 14 0.001 -0.0101581 -0.000592323 -0.0429816 -1.88741e-13 -6.64644e-13 -3.90817e-13 0 2.25674e-16
1529 16 0.001 0.00984193 -0.000592323 -0.0429816 -1.64646e-13 -6.65731e-13 -3.91249e-13 0 2.25674e-16
1925 18 0.001 0.0298419 -0.000592323 -0.0429816 -1.89732e-13 -6.69857e-13 -3.90213e-13 0 2.25674e-16
362 11 0.001 -0.0501282 0.000367934 -0.043255 -4.9426e-14 -6.78973e-13 -3.46339e-13 0 1.88622e-16
363 11 0.001 -0.0503376 0.00130357 -0.0435356 1.61837e-13 -6.43516e-13 -2.33789e-13 0 1.35113e-16
738 12 0.001 -0.0301282 0.000368105 -0.0432549 -1.40565e-14 -6.48728e-13 -3.28869e-13 0 1.90231e-16
739 12 0.001 -0.0303377 0.00130374 -0.0435355 6.63086e-14 -6.08792e-13 -2.40186e-13 0 1.36779e-16
1134 14 0.001 -0.0101282 0.000368105 -0.0432549 -1.63702e-14 -6.51503e-13 -3.29348e-13 0 1.90231e-16
1135 14 0.001 -0.0103377 0.00130374 -0.0435355 7.91225e-14 -6.04672e-13 -2.39558e-13 0 1.36779e-16
1530 16 0.001 0.00987178 0.000368105 -0.0432549 -2.88114e-14 -6.53756e-13 -3.28706e-13 0 1.90231e-16
1531 16 0.001 0.00966232 0.00130374 -0.0435355 8.4435e-14 -6.02241e-13 -2.3978e-13 0 1.36779e-16
1926 18 0.001 0.0298718 0.000368105 -0.0432549 2.38199e-16 -6.50703e-13 -3.28557e-13 0 1.90231e-16
1927 18 0.001 0.0296623 0.00130374 -0.0435355 7.24777e-14 -6.01817e-13 -2.40165e-13 0 1.36779e-16
365 11 0.001 -0.0514056 0.00287089 -0.0441161 3.67746e-13 -3.99257e-13 -1.23424e-14 0 3.35385e-17
364 11 0.001 -0.0507727 0.00215569 -0.043823 1.67531e-13 -5.36475e-13 -1.43959e-13 0 7.85548e-17
740 12 0.001 -0.0307728 0.00215583 -0.043823 2.31784e-13 -5.08905e-13 -1.16614e-13 0 8.00968e-17
741 12 0.001 -0.0314058 0.002871 -0.0441161 2.79826e-13 -3.80016e-13 -2.32144e-14 0 3.4718e-17
1136 14 0.001 -0.0107728 0.00215583 -0.043823 2.21511e-13 -5.17862e-13 -1.16553e-13 0 8.00968e-17
1137 14 0.001 -0.0114058 0.002871 -0.0441161 3.10854e-13 -3.72382e-13 -1.7093e-14 0 3.4718e-17
1533 16 0.001 0.00859425 0.002871 -0.0441161 2.98509e-13 -3.74301e-13 -2.02146e-14 0 3.4718e-17
1532 16 0.001 0.00922722 0.00215583 -0.043823 2.14633e-13 -5.15185e-13 -1.18361e-13 0 8.00968e-17
1928 18 0.001 0.0292272 0.00215583 -0.043823 2.0285e-13 -5.1984e-13 -1.20284e-13 0 8.00968e-17
1929 18 0.001 0.0285942 0.002871 -0.0441161 3.26965e-13 -3.62661e-13 -1.53224e-14 0 3.4718e-17
366 11 0.001 -0.0521964 0.00340441 -0.0444128 3.70395e-13 -2.40712e-13 8.89252e-14 0 8.23096e-18
742 12 0.001 -0.0321966 0.00340448 -0.0444127 3.86282e-13 -2.27551e-13 1.08067e-13 0 8.84086e-18
1138 14 0.001 -0.0121966 0.00340448 -0.0444127 3.43093e-13 -2.37423e-13 9.86948e-14 0 8.84086e-18
1534 16 0.001 0.00780342 0.00340448 -0.0444127 3.71861e-13 -2.31397e-13 1.05591e-13 0 8.84086e-18
1930 18 0.001 0.0278034 0.00340448 -0.0444127 3.39473e-13 -2.46221e-13 9.90857e-14 0 8.84086e-18
355 11 0.001 -0.0543182 -0.00384305 -0.0414423 -5.9023e-13 -6.42033e-14 -1.40479e-13 0 5.24287e-17
356 11 0.001 -0.0533523 -0.00380489 -0.0416945 -5.8037e-13 -1.9993e-13 -2.31015e-13 0 8.55568e-17
357 11 0.001 -0.0524256 -0.00352927 -0.0419462 -5.74666e-13 -3.66876e-13 -3.09812e-13 0 1.28793e-16
358 11 0.001 -0.0515961 -0.0030334 -0.0421991 -5.13393e-13 -4.79297e-13 -3.78716e-13 0 1.75235e-16
731 12 0.001 -0.034318 -0.00384307 -0.0414423 -4.92396e-13 -6.9352e-14 -1.48008e-13 0 5.37695e-17
732 12 0.001 -0.0333521 -0.00380487 -0.0416944 -5.92401e-13 -2.07434e-13 -2.08208e-13 0 8.69454e-17
733 12 0.001 -0.0324255 -0.0035292 -0.0419461 -5.22203e-13 -3.46432e-13 -3.04799e-13 0 1.3017e-16
734 12 0.001 -0.0315959 -0.00303329 -0.0421991 -4.97876e-13 -4.53855e-13 -3.65334e-13 0 1.76567e-16
1127 14 0.001 -0.014318 -0.00384307 -0.0414423 -5.32008e-13 -6.7447e-14 -1.38207e-13 0 5.37695e-17
1128 14 0.001 -0.0133521 -0.00380487 -0.0416944 -5.59099e-13 -2.0785e-13 -2.16547e-13 0 8.69454e-17
1129 14 0.001 -0.0124255 -0.0035292 -0.0419461 -5.26011e-13 -3.36048e-13 -3.04171e-13 0 1.3017e-16
1130 14 0.001 -0.0115959 -0.00303329 -0.0421991 -5.03297e-13 -4.75077e-13 -3.62162e-13 0 1.76567e-16
1523 16 0.001 0.00568199 -0.00384307 -0.0414423 -5.14665e-13 -7.03442e-14 -1.42763e-13 0 5.37695e-17
1524 16 0.001 0.0066479 -0.00380487 -0.0416944 -5.63076e-13 -2.08324e-13 -2.15274e-13 0 8.69454e-17
1525 16 0.001 0.00757453 -0.0035292 -0.0419461 -5.30951e-13 -3.40904e-13 -3.02807e-13 0 1.3017e-16
1526 16 0.001 0.00840406 -0.00303329 -0.0421991 -4.96133e-13 -4.65067e-13 -3.64279e-13 0 1.76567e-16
1919 18 0.001 0.025682 -0.00384307 -0.0414423 -5.11506e-13 -6.89669e-14 -1.43214e-13 0 5.37695e-17
1920 18 0.001 0.0266479 -0.00380487 -0.0416944 -5.71896e-13 -2.0588e-13 -2.13469e-13 0 8.69454e-17
1921 18 0.001 0.0275745 -0.0035292 -0.0419461 -5.31076e-13 -3.4251e-13 -3.02345e-13 0 1.3017e-16
1922 18 0.001 0.0284041 -0.00303329 -0.0421991 -4.9432e-13 -4.66409e-13 -3.65404e-13 0 1.76567e-16
359 11 0.001 -0.0509154 -0.0023484 -0.0424549 -4.10872e-13 -6.01721e-13 -4.21401e-13 0 2.13803e-16
360 11 0.001 -0.0504259 -0.00151733 -0.0427153 -3.21792e-13 -6.6825e-13 -4.28982e-13 0 2.32696e-16
735 12 0.001 -0.0309153 -0.00234826 -0.0424549 -3.80495e-13 -5.80861e-13 -4.1106e-13 0 2.15112e-16
736 12 0.001 -0.0304259 -0.00151717 -0.0427153 -3.14907e-13 -6.3065e-13 -4.18105e-13 0 2.3405e-16
1131 14 0.001 -0.0109153 -0.00234826 -0.0424549 -3.96306e-13 -5.62767e-13 -4.12214e-13 0 2.15112e-16
1132 14 0.001 -0.0104259 -0.00151717 -0.0427153 -2.75896e-13 -6.36075e-13 -4.20197e-13 0 2.3405e-16
1527 16 0.001 0.00908473 -0.00234826 -0.0424549 -3.96717e-13 -5.71034e-13 -4.10633e-13 0 2.15112e-16
1528 16 0.001 0.00957413 -0.00151717 -0.0427153 -2.93496e-13 -6.31924e-13 -4.20159e-13 0 2.3405e-16
1923 18 0.001 0.0290847 -0.00234826 -0.0424549 -3.8841e-13 -5.66793e-13 -4.12096e-13 0 2.15112e-16
1924 18 0.001 0.0295741 -0.00151717 -0.0427153 -2.90696e-13 -6.32287e-13 -4.19795e-13 0 2.3405e-16
353 11 0.001 -0.0561284 -0.00321271 -0.0409323 -4.67676e-13 2.336e-13 -1.05047e-14 0 2.0431e-17
354 11 0.001 -0.0552632 -0.00364142 -0.0411886 -4.79086e-13 8.45025e-14 -7.76049e-14 0 3.12696e-17
729 12 0.001 -0.0361282 -0.00321283 -0.0409323 -4.08461e-13 1.77005e-13 -1.89724e-14 0 2.16388e-17
730 12 0.001 -0.035263 -0.00364149 -0.0411885 -5.16321e-13 8.90069e-14 -4.59206e-14 0 3.25269e-17
1125 14 0.001 -0.0161282 -0.00321283 -0.0409323 -3.9724e-13 1.89026e-13 -1.89246e-14 0 2.16388e-17
1126 14 0.001 -0.015263 -0.00364149 -0.0411885 -4.97112e-13 8.27998e-14 -5.09418e-14 0 3.25269e-17
1521 16 0.001 0.00387179 -0.00321283 -0.0409323 -3.95578e-13 1.91543e-13 -1.91007e-14 0 2.16388e-17
1522 16 0.001 0.004737 -0.00364149 -0.0411885 -5.14575e-13 8.55249e-14 -4.67021e-14 0 3.25269e-17
1917 18 0.001 0.0238718 -0.00321283 -0.0409323 -3.89914e-13 1.94947e-13 -1.91828e-14 0 2.16388e-17
1918 18 0.001 0.024737 -0.00364149 -0.0411885 -5.14079e-13 8.13103e-14 -4.72888e-14 0 3.25269e-17
351 11 0.001 -0.0574127 -0.00179394 -0.040411 -1.10275e-13 4.00835e-13 -9.35316e-15 0 2.11142e-17
352 11 0.001 -0.05686 -0.00258379 -0.0406731 -3.44998e-13 3.35557e-13 1.95821e-14 0 1.7416e-17
727 12 0.001 -0.0374126 -0.00179412 -0.0404109 -2.18579e-13 3.61103e-13 1.20047e-14 0 2.26753e-17
728 12 0.001 -0.0368599 -0.00258394 -0.0406731 -2.61515e-13 3.49416e-13 3.40462e-14 0 1.86997e-17
1123 14 0.001 -0.0174126 -0.00179412 -0.0404109 -1.19254e-13 3.65173e-13 5.69665e-16 0 2.26753e-17
1124 14 0.001 -0.0168599 -0.00258394 -0.0406731 -3.25131e-13 3.37049e-13 4.16931e-14 0 1.86997e-17
1519 16 0.001 0.00258742 -0.00179412 -0.0404109 -1.69195e-13 3.55134e-13 3.07964e-15 0 2.26753e-17
1520 16 0.001 0.00314012 -0.00258394 -0.0406731 -3.03357e-13 3.38264e-13 3.91708e-14 0 1.86997e-17
1915 18 0.001 0.0225874 -0.00179412 -0.0404109 -1.32457e-13 3.75008e-13 5.29543e-15 0 2.26753e-17
1916 18 0.001 0.0231401 -0.00258394 -0.0406731 -3.1993e-13 3.26855e-13 3.80519e-14 0 1.86997e-17
350 11 0.001 -0.0577521 -0.000892445 -0.0401462 -1.20897e-13 5.09058e-13 -2.56478e-15 0 3.25313e-17
726 12 0.001 -0.0377521 -0.000892647 -0.0401462 -2.45903e-14 4.59898e-13 -1.36916e-15 0 3.46018e-17
1122 14 0.001 -0.0177521 -0.000892647 -0.0401462 -1.07012e-13 4.68005e-13 7.50002e-15 0 3.46018e-17
1518 16 0.001 0.00224793 -0.000892647 -0.0401462 -3.57236e-14 4.78438e-13 6.40243e-15 0 3.46018e-17
1914 18 0.001 0.0222479 -0.000892647 -0.0401462 -8.72577e-14 4.61849e-13 4.7738e-15 0 3.46018e-17
348 11 0.001 -0.0577219 0.00101728 -0.0396113 2.09365e-13 4.97445e-13 -1.37075e-13 0 8.64622e-17
349 11 0.001 -0.0578573 6.45059e-05 -0.0398794 1.82665e-13 5.45968e-13 -6.30855e-14 0 5.38448e-17
724 12 0.001 -0.037722 0.00101708 -0.0396112 1.51638e-13 4.92843e-13 -1.22441e-13 0 9.00724e-17
725 12 0.001 -0.0378573 6.42978e-05 -0.0398794 1.62888e-13 4.96938e-13 -5.4304e-14 0 5.66263e-17
1120 14 0.001 -0.017722 0.00101708 -0.0396112 1.99245e-13 4.79306e-13 -1.21712e-13 0 9.00724e-17
1121 14 0.001 -0.0178573 6.42978e-05 -0.0398794 1.80745e-13 4.93312e-13 -5.81078e-14 0 5.66263e-17
1516 16 0.001 0.00227803 0.00101708 -0.0396112 2.55336e-13 4.74623e-13 -1.19801e-13 0 9.00724e-17
1517 16 0.001 0.00214265 6.42978e-05 -0.0398794 1.08009e-13 4.89847e-13 -5.90202e-14 0 5.66263e-17
1912 18 0.001 0.022278 0.00101708 -0.0396112 2.48668e-13 4.80528e-13 -1.16813e-13 0 9.00724e-17
1913 18 0.001 0.0221427 6.42978e-05 -0.0398794 1.44678e-13 4.96891e-13 -5.84996e-14 0 5.66263e-17
347 11 0.001 -0.0573543 0.00190651 -0.0393426 4.33163e-13 4.69079e-13 -1.96531e-13 0 1.29187e-16
346 11 0.001 -0.0567775 0.00267671 -0.0390741 4.90788e-13 4.12148e-13 -2.65847e-13 0 1.77474e-16
722 12 0.001 -0.0367777 0.00267656 -0.039074 4.96641e-13 3.7504e-13 -2.46974e-13 0 1.82643e-16
723 12 0.001 -0.0373544 0.00190632 -0.0393426 4.58359e-13 4.25286e-13 -1.84665e-13 0 1.33631e-16
1118 14 0.001 -0.0167777 0.00267656 -0.039074 4.586e-13 3.75387e-13 -2.56883e-13 0 1.82643e-16
1119 14 0.001 -0.0173544 0.00190632 -0.0393426 4.28646e-13 4.421e-13 -1.81169e-13 0 1.33631e-16
1515 16 0.001 0.00264556 0.00190632 -0.0393426 3.8757e-13 4.50249e-13 -1.84263e-13 0 1.33631e-16
1514 16 0.001 0.00322231 0.00267656 -0.039074 4.95072e-13 3.70021e-13 -2.5155e-13 0 1.82643e-16
1910 18 0.001 0.0232223 0.00267656 -0.039074 4.71331e-13 3.67964e-13 -2.55838e-13 0 1.82643e-16
1911 18 0.001 0.0226456 0.00190632 -0.0393426 3.87083e-13 4.42629e-13 -1.8728e-13 0 1.33631e-16
345 11 0.001 -0.0560275 0.00327982 -0.0388062 6.64283e-13 2.95877e-13 -2.93023e-13 0 2.24172e-16
344 11 0.001 -0.0551511 0.00367812 -0.0385394 6.78287e-13 1.9981e-13 -3.2636e-13 0 2.61473e-16
721 12 0.001 -0.0360277 0.00327971 -0.0388062 5.52838e-13 2.97795e-13 -2.98609e-13 0 2.29877e-16
720 12 0.001 -0.0351513 0.00367806 -0.0385393 6.83881e-13 1.64279e-13 -3.06845e-13 0 2.67487e-16
1117 14 0.001 -0.0160277 0.00327971 -0.0388062 6.15431e-13 2.83935e-13 -2.86586e-13 0 2.29877e-16
1116 14 0.001 -0.0151513 0.00367806 -0.0385393 6.43938e-13 1.71264e-13 -3.15566e-13 0 2.67487e-16
1513 16 0.001 0.00397229 0.00327971 -0.0388062 5.92996e-13 2.83039e-13 -2.90944e-13 0 2.29877e-16
1512 16 0.001 0.00484873 0.00367806 -0.0385393 6.43759e-13 1.7716e-13 -3.15528e-13 0 2.67487e-16
1909 18 0.001 0.0239723 0.00327971 -0.0388062 6.22522e-13 2.8643e-13 -2.84572e-13 0 2.29877e-16
1908 18 0.001 0.0248487 0.00367806 -0.0385393 6.45304e-13 1.75122e-13 -3.14671e-13 0 2.67487e-16
338 11 0.001 -0.0504098 0.00138576 -0.0369565 2.71515e-13 -4.00173e-13 -8.31276e-14 0 1.80051e-16
714 12 0.001 -0.0304099 0.00138597 -0.0369564 3.02045e-13 -4.17564e-13 -5.94123e-14 0 1.84891e-16
1110 14 0.001 -0.0104099 0.00138597 -0.0369564 2.70952e-13 -4.15803e-13 -6.46558e-14 0 1.84891e-16
1506 16 0.001 0.00959008 0.00138597 -0.0369564 2.81985e-13 -4.15692e-13 -6.32875e-14 0 1.84891e-16
1902 18 0.001 0.0295901 0.00138597 -0.0369564 2.78979e-13 -4.16102e-13 -6.43704e-14 0 1.84891e-16
340 11 0.001 -0.0515206 0.00294258 -0.0374825 6.06793e-13 -2.69777e-13 -1.87876e-13 0 2.46658e-16
339 11 0.001 -0.0508672 0.00223404 -0.0372195 3.922e-13 -4.056e-13 -1.32654e-13 0 2.13684e-16
716 12 0.001 -0.0315208 0.00294272 -0.0374824 5.24151e-13 -2.66217e-13 -1.85708e-13 0 2.52143e-16
715 12 0.001 -0.0308674 0.00223423 -0.0372195 3.72346e-13 -3.35685e-13 -1.32099e-13 0 2.18841e-16
1111 14 0.001 -0.0108674 0.00223423 -0.0372195 4.17764e-13 -3.38583e-13 -1.2315e-13 0 2.18841e-16
1112 14 0.001 -0.0115208 0.00294272 -0.0374824 4.9423e-13 -2.71754e-13 -1.90435e-13 0 2.52143e-16
1508 16 0.001 0.00847924 0.00294272 -0.0374824 5.08946e-13 -2.71184e-13 -1.87821e-13 0 2.52143e-16
1507 16 0.001 0.00913263 0.00223423 -0.0372195 3.98749e-13 -3.37722e-13 -1.26187e-13 0 2.18841e-16
1904 18 0.001 0.0284792 0.00294272 -0.0374824 4.70365e-13 -2.65316e-13 -1.9625e-13 0 2.52143e-16
1903 18 0.001 0.0291326 0.00223423 -0.0372195 4.29726e-13 -3.42342e-13 -1.20173e-13 0 2.18841e-16
343 11 0.001 -0.0542029 0.00384667 -0.0382738 6.70184e-13 5.63461e-14 -3.32306e-13 0 2.83222e-16
342 11 0.001 -0.0532422 0.00377486 -0.0380092 7.14772e-13 -6.98418e-14 -2.92533e-13 0 2.86666e-16
341 11 0.001 -0.0523291 0.0034671 -0.0377456 5.84119e-13 -2.16913e-13 -2.57816e-13 0 2.73005e-16
719 12 0.001 -0.0342031 0.00384666 -0.0382737 6.55639e-13 6.19628e-14 -3.14933e-13 0 2.89323e-16
718 12 0.001 -0.0332424 0.0037749 -0.0380092 6.35258e-13 -7.02429e-14 -2.93464e-13 0 2.92673e-16
717 12 0.001 -0.0323293 0.0034672 -0.0377455 6.00531e-13 -1.88586e-13 -2.38709e-13 0 2.78789e-16
1115 14 0.001 -0.0142031 0.00384666 -0.0382737 6.62906e-13 6.04802e-14 -3.13418e-13 0 2.89323e-16
1113 14 0.001 -0.0123293 0.0034672 -0.0377455 6.11873e-13 -1.82908e-13 -2.37919e-13 0 2.78789e-16
1114 14 0.001 -0.0132424 0.0037749 -0.0380092 6.33176e-13 -6.96788e-14 -2.93224e-13 0 2.92673e-16
1511 16 0.001 0.0057969 0.00384666 -0.0382737 6.64183e-13 5.69715e-14 -3.13279e-13 0 2.89323e-16
1510 16 0.001 0.00675757 0.0037749 -0.0380092 6.44301e-13 -6.95493e-14 -2.90527e-13 0 2.92673e-16
1509 16 0.001 0.00767071 0.0034672 -0.0377455 5.99786e-13 -1.84298e-13 -2.40509e-13 0 2.78789e-16
1907 18 0.001 0.0257969 0.00384666 -0.0382737 6.46704e-13 5.9434e-14 -3.17772e-13 0 2.89323e-16
1906 18 0.001 0.0267576 0.0037749 -0.0380092 6.45488e-13 -7.14616e-14 -2.89839e-13 0 2.92673e-16
1905 18 0.001 0.0276707 0.0034672 -0.0377455 6.22554e-13 -1.84586e-13 -2.35447e-13 0 2.78789e-16
333 11 0.001 -0.0515577 -0.00298533 -0.035632 -3.86812e-13 -2.53054e-13 -3.97075e-14 0 1.05069e-16
334 11 0.001 -0.0508957 -0.00228606 -0.0358981 -2.47783e-13 -3.3499e-13 -2.00325e-14 0 1.04954e-16
709 12 0.001 -0.0315575 -0.00298519 -0.0356319 -3.30741e-13 -2.25372e-13 -3.40054e-14 0 1.09535e-16
710 12 0.001 -0.0308956 -0.00228588 -0.0358981 -2.4128e-13 -3.08451e-13 -1.37724e-14 0 1.09256e-16
1105 14 0.001 -0.0115575 -0.00298519 -0.0356319 -3.35743e-13 -2.35044e-13 -3.03699e-14 0 1.09535e-16
1106 14 0.001 -0.0108956 -0.00228588 -0.0358981 -2.64142e-13 -3.06884e-13 -1.09768e-14 0 1.09256e-16
1501 16 0.001 0.0084425 -0.00298519 -0.0356319 -3.27525e-13 -2.29762e-13 -3.3122e-14 0 1.09535e-16
1502 16 0.001 0.00910442 -0.00228588 -0.0358981 -2.54799e-13 -3.09473e-13 -1.19474e-14 0 1.09256e-16
1897 18 0.001 0.0284425 -0.00298519 -0.0356319 -3.40143e-13 -2.37287e-13 -2.90023e-14 0 1.09535e-16
1898 18 0.001 0.0291044 -0.00228588 -0.0358981 -2.64717e-13 -3.05816e-13 -1.08806e-14 0 1.09256e-16
335 11 0.001 -0.0504278 -0.00144434 -0.0361638 -1.35969e-13 -4.01173e-13 2.91801e-15 0 1.12245e-16
336 11 0.001 -0.0501831 -0.000512707 -0.0364287 8.37955e-15 -4.25308e-13 -1.04313e-14 0 1.27397e-16
711 12 0.001 -0.0304277 -0.00144413 -0.0361637 -1.24404e-13 -3.65522e-13 1.67474e-14 0 1.16517e-16
712 12 0.001 -0.030183 -0.000512481 -0.0364286 2.49555e-14 -4.10338e-13 1.28868e-15 0 1.31765e-16
1107 14 0.001 -0.0104277 -0.00144413 -0.0361637 -1.04883e-13 -3.66674e-13 1.49105e-14 0 1.16517e-16
1108 14 0.001 -0.010183 -0.000512481 -0.0364286 1.28335e-14 -4.08155e-13 1.06075e-15 0 1.31765e-16
1503 16 0.001 0.00957233 -0.00144413 -0.0361637 -1.1292e-13 -3.66192e-13 1.58863e-14 0 1.16517e-16
1504 16 0.001 0.00981697 -0.000512481 -0.0364286 1.68245e-14 -4.07648e-13 8.28787e-16 0 1.31765e-16
1899 18 0.001 0.0295723 -0.00144413 -0.0361637 -1.10729e-13 -3.67135e-13 1.53745e-14 0 1.16517e-16
1900 18 0.001 0.029817 -0.000512481 -0.0364286 2.70879e-14 -4.09411e-13 1.2092e-15 0 1.31765e-16
337 11 0.001 -0.050177 0.00045071 -0.0366929 1.81011e-13 -4.9159e-13 -1.60005e-14 0 1.5037e-16
713 12 0.001 -0.030177 0.000450936 -0.0366928 1.33819e-13 -4.27869e-13 -1.62665e-14 0 1.54936e-16
1109 14 0.001 -0.010177 0.000450936 -0.0366928 1.48984e-13 -4.28401e-13 -1.48787e-14 0 1.54936e-16
1505 16 0.001 0.00982303 0.000450936 -0.0366928 1.44635e-13 -4.29364e-13 -1.47129e-14 0 1.54936e-16
1901 18 0.001 0.029823 0.000450936 -0.0366928 1.30595e-13 -4.27262e-13 -1.5606e-14 0 1.54936e-16
328 11 0.001 -0.0560667 -0.00326015 -0.034301 -4.45967e-13 3.63475e-13 -2.61104e-13 0 1.8449e-16
329 11 0.001 -0.0551955 -0.00367064 -0.0345665 -4.97146e-13 2.27814e-13 -2.42193e-13 0 1.62917e-16
330 11 0.001 -0.0542498 -0.00385223 -0.0348326 -5.34711e-13 1.04799e-13 -1.92983e-13 0 1.42299e-16
331 11 0.001 -0.0532888 -0.00379364 -0.035099 -5.00998e-13 -9.37513e-15 -1.47057e-13 0 1.2475e-16
332 11 0.001 -0.0523723 -0.00349853 -0.0353655 -4.59491e-13 -1.46443e-13 -9.47737e-14 0 1.11945e-16
704 12 0.001 -0.0360665 -0.00326031 -0.0343009 -4.05417e-13 3.40054e-13 -2.54023e-13 0 1.91106e-16
705 12 0.001 -0.0351952 -0.00367073 -0.0345664 -4.75323e-13 2.21358e-13 -2.24057e-13 0 1.69046e-16
706 12 0.001 -0.0342496 -0.00385227 -0.0348325 -5.12956e-13 1.04586e-13 -1.80844e-13 0 1.47929e-16
707 12 0.001 -0.0332885 -0.00379361 -0.0350989 -4.37166e-13 -9.09934e-16 -1.42819e-13 0 1.29909e-16
708 12 0.001 -0.0323721 -0.00349844 -0.0353654 -4.4829e-13 -1.34818e-13 -8.10371e-14 0 1.16704e-16
1100 14 0.001 -0.0160665 -0.00326031 -0.0343009 -4.38187e-13 3.2739e-13 -2.48709e-13 0 1.91106e-16
1101 14 0.001 -0.0151952 -0.00367073 -0.0345664 -4.83737e-13 2.20367e-13 -2.221e-13 0 1.69045e-16
1102 14 0.001 -0.0142496 -0.00385227 -0.0348325 -4.84001e-13 1.11319e-13 -1.87828e-13 0 1.47929e-16
1104 14 0.001 -0.0123721 -0.00349844 -0.0353654 -4.22877e-13 -1.25263e-13 -8.84293e-14 0 1.16704e-16
1103 14 0.001 -0.0132885 -0.00379361 -0.0350989 -4.63608e-13 -5.77144e-15 -1.36238e-13 0 1.29909e-16
1496 16 0.001 0.00393352 -0.00326031 -0.0343009 -4.44262e-13 3.29926e-13 -2.46866e-13 0 1.91106e-16
1497 16 0.001 0.00480476 -0.00367073 -0.0345664 -4.78723e-13 2.2032e-13 -2.23165e-13 0 1.69045e-16
1498 16 0.001 0.00575043 -0.00385227 -0.0348325 -4.86143e-13 1.11405e-13 -1.87697e-13 0 1.47929e-16
1499 16 0.001 0.00671147 -0.00379361 -0.0350989 -4.54558e-13 -6.64328e-15 -1.37948e-13 0 1.29909e-16
1500 16 0.001 0.0076279 -0.00349844 -0.0353654 -4.40937e-13 -1.28115e-13 -8.43274e-14 0 1.16704e-16
1892 18 0.001 0.0239335 -0.00326031 -0.0343009 -4.30229e-13 3.27446e-13 -2.50307e-13 0 1.91106e-16
1893 18 0.001 0.0248048 -0.00367073 -0.0345664 -5.07971e-13 2.23577e-13 -2.15763e-13 0 1.69045e-16
1894 18 0.001 0.0257504 -0.00385227 -0.0348325 -4.51309e-13 1.07294e-13 -1.96288e-13 0 1.47929e-16
1895 18 0.001 0.0267115 -0.00379361 -0.0350989 -4.92441e-13 -4.55042e-15 -1.29006e-13 0 1.29909e-16
1896 18 0.001 0.0276279 -0.00349844 -0.0353654 -4.01078e-13 -1.22799e-13 -9.41122e-14 0 1.16704e-16
327 11 0.001 -0.0568091 -0.00264639 -0.034036 -4.15801e-13 4.34425e-13 -2.62485e-13 0 2.04744e-16
703 12 0.001 -0.0368089 -0.00264659 -0.0340359 -4.18024e-13 3.95813e-13 -2.48909e-13 0 2.11801e-16
1099 14 0.001 -0.0168089 -0.00264659 -0.0340359 -3.54374e-13 4.0911e-13 -2.59132e-13 0 2.11801e-16