ITEM: TIMESTEP
3900000
ITEM: NUMBER OF ATOMS
1970
ITEM: BOX BOUNDS ff ff ff
-6.0000000000000005e-02 6.0000000000000005e-02
-6.0000000000000001e-03 6.0000000000000001e-03
-5.5000000000000000e-02 5.5000000000000000e-02
ITEM: ATOMS id type radius x y z fx fy fz c_bendingE c_stretchingE
384 11 0.001 -0.0508516 -0.00262663 -0.0489931 -1.43866e-12 4.14079e-14 -1.15179e-12 0 2.3586e-16
385 11 0.001 -0.0503423 -0.0018295 -0.0493145 -9.67078e-13 -8.90511e-14 -7.69715e-13 0 6.60751e-15
760 12 0.001 -0.0308516 -0.00262663 -0.0489931 -1.45554e-12 5.67453e-14 -1.15302e-12 0 2.35887e-16
761 12 0.001 -0.0303423 -0.0018295 -0.0493145 -9.7813e-13 -1.10732e-13 -7.59603e-13 0 6.60738e-15
1156 14 0.001 -0.0108516 -0.00262663 -0.0489931 -1.42108e-12 6.28916e-14 -1.15948e-12 0 2.35887e-16
1157 14 0.001 -0.0103423 -0.0018295 -0.0493145 -9.98635e-13 -1.1524e-13 -7.56393e-13 0 6.60738e-15
1552 16 0.001 0.00914845 -0.00262663 -0.0489931 -1.43738e-12 5.94514e-14 -1.15531e-12 0 2.35887e-16
1553 16 0.001 0.00965767 -0.0018295 -0.0493145 -9.86931e-13 -1.10481e-13 -7.60145e-13 0 6.60738e-15
1948 18 0.001 0.0291484 -0.00262663 -0.0489931 -1.43064e-12 5.13727e-14 -1.15509e-12 0 2.35887e-16
1949 18 0.001 0.0296577 -0.0018295 -0.0493145 -9.93614e-13 -1.11401e-13 -7.57793e-13 0 6.60738e-15
2 2 0.001 -0.05 -4.31175e-17 -0.05 -4.73608e-06 6.00511e-06 1.94767e-06 0 4.79017e-15
386 11 0.001 -0.0500526 -0.000934867 -0.0496518 -5.14878e-13 -1.06919e-13 -3.72936e-13 0 1.11699e-14
762 12 0.001 -0.0300526 -0.000934867 -0.0496518 -5.10289e-13 -9.40961e-14 -3.78368e-13 0 1.11696e-14
4 4 0.001 -0.03 -4.31175e-17 -0.05 -4.73612e-06 6.00523e-06 1.94763e-06 0 4.79003e-15
6 6 0.001 -0.01 -4.31175e-17 -0.05 -4.73612e-06 6.00523e-06 1.94763e-06 0 4.79003e-15
1158 14 0.001 -0.0100526 -0.000934867 -0.0496518 -5.00166e-13 -9.14199e-14 -3.79714e-13 0 1.11696e-14
8 8 0.001 0.01 -4.31175e-17 -0.05 -4.73612e-06 6.00523e-06 1.94763e-06 0 4.79003e-15
1554 16 0.001 0.00994737 -0.000934867 -0.0496518 -5.0451e-13 -9.10096e-14 -3.78977e-13 0 1.11696e-14
10 10 0.001 0.03 -4.31175e-17 -0.05 -4.73612e-06 6.00523e-06 1.94763e-06 0 4.79003e-15
1950 18 0.001 0.0299474 -0.000934867 -0.0496518 -5.06133e-13 -9.72779e-14 -3.7746e-13 0 1.11696e-14
379 11 0.001 -0.0552386 -0.00372688 -0.0476803 -2.08078e-12 1.72426e-12 -2.06056e-12 0 2.01752e-15
380 11 0.001 -0.0542958 -0.00396704 -0.0479073 -2.18577e-12 1.33994e-12 -2.08847e-12 0 1.61006e-15
381 11 0.001 -0.0533265 -0.00396843 -0.0481492 -2.14738e-12 9.46541e-13 -1.99689e-12 0 1.00689e-15
382 11 0.001 -0.0523915 -0.0037323 -0.0484098 -2.05071e-12 5.62881e-13 -1.78152e-12 0 4.1236e-16
383 11 0.001 -0.051549 -0.00327495 -0.048691 -1.76779e-12 2.96982e-13 -1.51053e-12 0 8.22463e-17
755 12 0.001 -0.0352386 -0.00372688 -0.0476803 -2.04323e-12 1.70434e-12 -2.07148e-12 0 2.01752e-15
756 12 0.001 -0.0342958 -0.00396704 -0.0479073 -2.19655e-12 1.33647e-12 -2.08143e-12 0 1.61005e-15
757 12 0.001 -0.0333265 -0.00396843 -0.0481492 -2.17676e-12 9.50038e-13 -1.99002e-12 0 1.00687e-15
758 12 0.001 -0.0323915 -0.0037323 -0.0484098 -2.04504e-12 5.74657e-13 -1.78511e-12 0 4.12339e-16
759 12 0.001 -0.031549 -0.00327495 -0.048691 -1.72328e-12 2.85687e-13 -1.51454e-12 0 8.22416e-17
1151 14 0.001 -0.0152386 -0.00372688 -0.0476803 -2.08042e-12 1.7157e-12 -2.06335e-12 0 2.01752e-15
1152 14 0.001 -0.0142958 -0.00396704 -0.0479073 -2.17706e-12 1.33147e-12 -2.08554e-12 0 1.61005e-15
1153 14 0.001 -0.0133265 -0.00396843 -0.0481492 -2.18601e-12 9.45316e-13 -1.98776e-12 0 1.00687e-15
1154 14 0.001 -0.0123915 -0.0037323 -0.0484098 -2.01967e-12 5.85958e-13 -1.79152e-12 0 4.12339e-16
1155 14 0.001 -0.011549 -0.00327495 -0.048691 -1.76552e-12 2.74837e-13 -1.50494e-12 0 8.22416e-17
1547 16 0.001 0.00476142 -0.00372688 -0.0476803 -2.07109e-12 1.70809e-12 -2.06503e-12 0 2.01752e-15
1548 16 0.001 0.00570419 -0.00396704 -0.0479073 -2.17692e-12 1.33679e-12 -2.08626e-12 0 1.61005e-15
1549 16 0.001 0.00667345 -0.00396843 -0.0481492 -2.17793e-12 9.45351e-13 -1.98897e-12 0 1.00687e-15
1550 16 0.001 0.00760853 -0.0037323 -0.0484098 -2.03456e-12 5.85448e-13 -1.78906e-12 0 4.12339e-16
1551 16 0.001 0.00845101 -0.00327495 -0.048691 -1.74923e-12 2.73566e-13 -1.50759e-12 0 8.22416e-17
1943 18 0.001 0.0247614 -0.00372688 -0.0476803 -2.04716e-12 1.70589e-12 -2.0705e-12 0 2.01752e-15
1944 18 0.001 0.0257042 -0.00396704 -0.0479073 -2.21805e-12 1.3314e-12 -2.07639e-12 0 1.61005e-15
1945 18 0.001 0.0266735 -0.00396843 -0.0481492 -2.15806e-12 9.58266e-13 -1.99513e-12 0 1.00687e-15
1946 18 0.001 0.0276085 -0.0037323 -0.0484098 -2.01072e-12 5.769e-13 -1.79341e-12 0 4.12339e-16
1947 18 0.001 0.028451 -0.00327495 -0.048691 -1.76992e-12 2.83305e-13 -1.50502e-12 0 8.22416e-17
378 11 0.001 -0.0560958 -0.00326197 -0.0474635 -1.85586e-12 2.02295e-12 -1.92874e-12 0 2.12968e-15
754 12 0.001 -0.0360958 -0.00326197 -0.0474635 -1.87229e-12 2.05843e-12 -1.91773e-12 0 2.12969e-15
1150 14 0.001 -0.0160958 -0.00326197 -0.0474635 -1.83946e-12 2.03802e-12 -1.92674e-12 0 2.12969e-15
1546 16 0.001 0.00390417 -0.00326197 -0.0474635 -1.86348e-12 2.04682e-12 -1.92128e-12 0 2.12969e-15
1942 18 0.001 0.0239042 -0.00326197 -0.0474635 -1.85369e-12 2.04251e-12 -1.92308e-12 0 2.12969e-15
376 11 0.001 -0.0573485 -0.00178385 -0.0470392 -1.17068e-12 2.47385e-12 -1.34829e-12 0 1.5951e-15
377 11 0.001 -0.056814 -0.00260067 -0.0472516 -1.51222e-12 2.3174e-12 -1.67915e-12 0 1.95844e-15
753 12 0.001 -0.036814 -0.00260067 -0.0472516 -1.54542e-12 2.28793e-12 -1.68178e-12 0 1.95846e-15
752 12 0.001 -0.0373485 -0.00178385 -0.0470392 -1.12122e-12 2.48893e-12 -1.3471e-12 0 1.59512e-15
1149 14 0.001 -0.016814 -0.00260067 -0.0472516 -1.53837e-12 2.30694e-12 -1.67785e-12 0 1.95846e-15
1148 14 0.001 -0.0173485 -0.00178385 -0.0470392 -1.13642e-12 2.47357e-12 -1.34898e-12 0 1.59512e-15
1544 16 0.001 0.00265149 -0.00178385 -0.0470392 -1.14865e-12 2.48664e-12 -1.34457e-12 0 1.59512e-15
1545 16 0.001 0.00318599 -0.00260067 -0.0472516 -1.52172e-12 2.29716e-12 -1.68301e-12 0 1.95846e-15
1941 18 0.001 0.023186 -0.00260067 -0.0472516 -1.54883e-12 2.30674e-12 -1.67829e-12 0 1.95846e-15
1940 18 0.001 0.0226515 -0.00178385 -0.0470392 -1.12652e-12 2.48123e-12 -1.3466e-12 0 1.59512e-15
375 11 0.001 -0.0576664 -0.000862158 -0.0468214 -6.72818e-13 2.53071e-12 -9.67993e-13 0 1.15999e-15
751 12 0.001 -0.0376664 -0.000862159 -0.0468214 -6.77199e-13 2.51873e-12 -9.68037e-13 0 1.16002e-15
1147 14 0.001 -0.0176664 -0.000862159 -0.0468214 -7.10761e-13 2.53402e-12 -9.65541e-13 0 1.16002e-15
1543 16 0.001 0.00233356 -0.000862159 -0.0468214 -6.88016e-13 2.52433e-12 -9.68307e-13 0 1.16002e-15
1939 18 0.001 0.0223336 -0.000862159 -0.0468214 -7.02336e-13 2.5297e-12 -9.66913e-13 0 1.16002e-15
373 11 0.001 -0.0575907 0.00106433 -0.0463555 2.56061e-13 2.27828e-12 -1.99007e-13 0 4.45706e-16
374 11 0.001 -0.0577486 0.000107235 -0.0465944 -2.51767e-13 2.466e-12 -5.71723e-13 0 7.56661e-16
749 12 0.001 -0.0375907 0.00106433 -0.0463555 2.73956e-13 2.29376e-12 -1.89734e-13 0 4.45727e-16
750 12 0.001 -0.0377486 0.000107235 -0.0465944 -2.76756e-13 2.45821e-12 -5.7668e-13 0 7.56686e-16
1145 14 0.001 -0.0175907 0.00106433 -0.0463555 2.25563e-13 2.29327e-12 -1.94684e-13 0 4.45727e-16
1146 14 0.001 -0.0177486 0.000107235 -0.0465944 -2.1638e-13 2.45111e-12 -5.75185e-13 0 7.56686e-16
1541 16 0.001 0.00240926 0.00106433 -0.0463555 2.32906e-13 2.29585e-12 -1.93731e-13 0 4.45727e-16
1542 16 0.001 0.00225137 0.000107235 -0.0465944 -2.36591e-13 2.45302e-12 -5.75086e-13 0 7.56686e-16
1937 18 0.001 0.0224093 0.00106433 -0.0463555 2.39113e-13 2.29358e-12 -1.93714e-13 0 4.45727e-16
1938 18 0.001 0.0222514 0.000107235 -0.0465944 -2.39411e-13 2.44944e-12 -5.7654e-13 0 7.56686e-16
372 11 0.001 -0.0572034 0.00195003 -0.0461035 6.22997e-13 2.00621e-12 1.10722e-13 0 2.41842e-16
748 12 0.001 -0.0372034 0.00195003 -0.0461035 6.00478e-13 1.99374e-12 1.01e-13 0 2.41858e-16
1144 14 0.001 -0.0172034 0.00195003 -0.0461035 6.3072e-13 2.00062e-12 1.06694e-13 0 2.41858e-16
1540 16 0.001 0.00279663 0.00195003 -0.0461035 6.36096e-13 1.99448e-12 1.06818e-13 0 2.41858e-16
1936 18 0.001 0.0227966 0.00195003 -0.0461035 6.40204e-13 2.00032e-12 1.08899e-13 0 2.41858e-16
371 11 0.001 -0.0566113 0.00270984 -0.0458387 1.01237e-12 1.61658e-12 3.28453e-13 0 1.27963e-16
747 12 0.001 -0.0366113 0.00270984 -0.0458387 1.03544e-12 1.61304e-12 3.34237e-13 0 1.27975e-16
1143 14 0.001 -0.0166113 0.00270984 -0.0458387 1.02954e-12 1.61018e-12 3.33689e-13 0 1.27975e-16
1539 16 0.001 0.00338872 0.00270984 -0.0458387 1.01208e-12 1.61327e-12 3.30322e-13 0 1.27975e-16
1935 18 0.001 0.0233887 0.00270984 -0.0458387 1.0097e-12 1.60908e-12 3.2923e-13 0 1.27975e-16
370 11 0.001 -0.0558518 0.00329707 -0.0455624 1.31423e-12 1.17355e-12 4.40153e-13 0 7.53154e-17
369 11 0.001 -0.0549725 0.00367575 -0.0452769 1.5188e-12 6.67463e-13 4.40001e-13 0 5.98532e-17
368 11 0.001 -0.0540284 0.00382273 -0.0449854 1.61324e-12 1.39745e-13 3.18432e-13 0 6.93178e-17
367 11 0.001 -0.0530783 0.00372912 -0.044691 1.63541e-12 -3.71627e-13 1.32024e-13 0 1.01036e-16
745 12 0.001 -0.0349725 0.00367575 -0.0452769 1.45803e-12 6.66435e-13 4.19029e-13 0 5.98603e-17
746 12 0.001 -0.0358518 0.00329707 -0.0455624 1.32448e-12 1.18047e-12 4.46921e-13 0 7.53241e-17
744 12 0.001 -0.0340284 0.00382273 -0.0449854 1.70324e-12 1.36934e-13 3.49992e-13 0 6.93244e-17
743 12 0.001 -0.0330783 0.00372912 -0.044691 1.52178e-12 -3.63571e-13 9.46282e-14 0 1.01043e-16
1142 14 0.001 -0.0158518 0.00329707 -0.0455624 1.28559e-12 1.17052e-12 4.34246e-13 0 7.53241e-17
1140 14 0.001 -0.0140284 0.00382273 -0.0449854 1.61237e-12 1.36882e-13 3.21883e-13 0 6.93244e-17
1141 14 0.001 -0.0149725 0.00367575 -0.0452769 1.532e-12 6.76053e-13 4.42191e-13 0 5.98603e-17
1139 14 0.001 -0.0130783 0.00372912 -0.044691 1.61442e-12 -3.74826e-13 1.24196e-13 0 1.01043e-16
1538 16 0.001 0.00414821 0.00329707 -0.0455624 1.30829e-12 1.17384e-12 4.40065e-13 0 7.53241e-17
1537 16 0.001 0.0050275 0.00367575 -0.0452769 1.51745e-12 6.72259e-13 4.38178e-13 0 5.98603e-17
1536 16 0.001 0.00597165 0.00382273 -0.0449854 1.61419e-12 1.39716e-13 3.21968e-13 0 6.93244e-17
1535 16 0.001 0.00692169 0.00372912 -0.044691 1.61435e-12 -3.81161e-13 1.24837e-13 0 1.01043e-16
1933 18 0.001 0.0250275 0.00367575 -0.0452769 1.54416e-12 6.72464e-13 4.45487e-13 0 5.98603e-17
1934 18 0.001 0.0241482 0.00329707 -0.0455624 1.29212e-12 1.17451e-12 4.36006e-13 0 7.53241e-17
1932 18 0.001 0.0259716 0.00382273 -0.0449854 1.60393e-12 1.41131e-13 3.19275e-13 0 6.93244e-17
1931 18 0.001 0.0269217 0.00372912 -0.044691 1.60955e-12 -3.79619e-13 1.22948e-13 0 1.01043e-16
361 11 0.001 -0.0501747 -0.00062357 -0.0429987 -2.49075e-13 -2.00621e-12 -1.004e-12 0 3.92141e-16
737 12 0.001 -0.0301747 -0.00062357 -0.0429987 -2.5598e-13 -2.01811e-12 -1.00181e-12 0 3.92139e-16
1133 14 0.001 -0.0101747 -0.00062357 -0.0429987 -2.49423e-13 -2.01936e-12 -1.00115e-12 0 3.92139e-16
1529 16 0.001 0.00982525 -0.00062357 -0.0429987 -2.49003e-13 -2.0203e-12 -1.00124e-12 0 3.92139e-16
1925 18 0.001 0.0298253 -0.00062357 -0.0429987 -2.38703e-13 -2.01972e-12 -1.00113e-12 0 3.92139e-16
362 11 0.001 -0.0501372 0.000338319 -0.0432658 1.93372e-13 -2.02366e-12 -9.6889e-13 0 3.9295e-16
363 11 0.001 -0.0503392 0.0012777 -0.0435393 6.03212e-13 -1.90671e-12 -8.4591e-13 0 3.59493e-16
738 12 0.001 -0.0301372 0.000338319 -0.0432658 1.8794e-13 -2.02525e-12 -9.66734e-13 0 3.92949e-16
739 12 0.001 -0.0303392 0.0012777 -0.0435393 6.34652e-13 -1.89872e-12 -8.436e-13 0 3.59494e-16
1134 14 0.001 -0.0101372 0.000338319 -0.0432658 1.85414e-13 -2.02041e-12 -9.6734e-13 0 3.92949e-16
1135 14 0.001 -0.0103392 0.0012777 -0.0435393 6.12469e-13 -1.90453e-12 -8.45653e-13 0 3.59494e-16
1530 16 0.001 0.00986278 0.000338319 -0.0432658 1.86394e-13 -2.02323e-12 -9.66668e-13 0 3.92949e-16
1531 16 0.001 0.00966076 0.0012777 -0.0435393 6.13907e-13 -1.90214e-12 -8.46273e-13 0 3.59494e-16
1926 18 0.001 0.0298628 0.000338319 -0.0432658 1.68956e-13 -2.02173e-12 -9.6809e-13 0 3.92949e-16
1927 18 0.001 0.0296608 0.0012777 -0.0435393 6.25133e-13 -1.90139e-12 -8.45395e-13 0 3.59494e-16
365 11 0.001 -0.0513951 0.00285842 -0.0441056 1.34734e-12 -1.31631e-12 -3.8227e-13 0 2.24541e-16
364 11 0.001 -0.0507676 0.00213564 -0.0438193 9.78365e-13 -1.67186e-12 -6.4639e-13 0 2.98464e-16
740 12 0.001 -0.0307676 0.00213564 -0.0438193 9.46336e-13 -1.67962e-12 -6.48249e-13 0 2.98467e-16
741 12 0.001 -0.0313951 0.00285842 -0.0441056 1.31564e-12 -1.29387e-12 -3.96163e-13 0 2.24546e-16
1136 14 0.001 -0.0107676 0.00213564 -0.0438193 9.82607e-13 -1.66687e-12 -6.4443e-13 0 2.98467e-16
1137 14 0.001 -0.0113951 0.00285842 -0.0441056 1.28993e-12 -1.31234e-12 -3.97646e-13 0 2.24546e-16
1533 16 0.001 0.00860494 0.00285842 -0.0441056 1.29022e-12 -1.31095e-12 -3.97866e-13 0 2.24546e-16
1532 16 0.001 0.00923237 0.00213564 -0.0438193 9.82163e-13 -1.6684e-12 -6.44069e-13 0 2.98467e-16
1928 18 0.001 0.0292324 0.00213564 -0.0438193 9.81153e-13 -1.67429e-12 -6.42812e-13 0 2.98467e-16
1929 18 0.001 0.0286049 0.00285842 -0.0441056 1.29391e-12 -1.30766e-12 -3.97654e-13 0 2.24546e-16
366 11 0.001 -0.0521818 0.00340086 -0.0443968 1.45993e-12 -8.84907e-13 -1.38294e-13 0 1.54539e-16
742 12 0.001 -0.0321818 0.00340086 -0.0443968 1.55741e-12 -9.03571e-13 -1.04818e-13 0 1.54545e-16
1138 14 0.001 -0.0121818 0.00340086 -0.0443968 1.52241e-12 -8.85071e-13 -1.19021e-13 0 1.54545e-16
1534 16 0.001 0.0078182 0.00340086 -0.0443968 1.52329e-12 -8.81321e-13 -1.18987e-13 0 1.54545e-16
1930 18 0.001 0.0278182 0.00340086 -0.0443968 1.52119e-12 -8.8349e-13 -1.19008e-13 0 1.54545e-16
355 11 0.001 -0.0543568 -0.00384465 -0.0414568 -1.40954e-12 7.55553e-14 -2.28067e-13 0 1.51842e-16
356 11 0.001 -0.0533919 -0.0038139 -0.0417135 -1.59242e-12 -4.07213e-13 -3.09099e-13 0 1.68845e-16
357 11 0.001 -0.0524641 -0.00354537 -0.0419687 -1.52455e-12 -8.49649e-13 -4.76154e-13 0 2.03758e-16
358 11 0.001 -0.0516314 -0.00305574 -0.0422234 -1.25365e-12 -1.26118e-12 -6.78491e-13 0 2.53162e-16
731 12 0.001 -0.0343568 -0.00384465 -0.0414568 -1.51132e-12 7.42813e-14 -2.01206e-13 0 1.51846e-16
732 12 0.001 -0.0333919 -0.0038139 -0.0417135 -1.55906e-12 -4.01113e-13 -3.1737e-13 0 1.68848e-16
733 12 0.001 -0.0324641 -0.00354537 -0.0419687 -1.47704e-12 -8.46886e-13 -4.87589e-13 0 2.03759e-16
734 12 0.001 -0.0316314 -0.00305574 -0.0422234 -1.27612e-12 -1.268e-12 -6.70145e-13 0 2.53162e-16
1127 14 0.001 -0.0143568 -0.00384465 -0.0414568 -1.53623e-12 6.90855e-14 -1.94322e-13 0 1.51846e-16
1128 14 0.001 -0.0133919 -0.0038139 -0.0417135 -1.53345e-12 -3.95281e-13 -3.24633e-13 0 1.68848e-16
1129 14 0.001 -0.0124641 -0.00354537 -0.0419687 -1.46857e-12 -8.50117e-13 -4.88845e-13 0 2.03759e-16
1130 14 0.001 -0.0116314 -0.00305574 -0.0422234 -1.28805e-12 -1.26123e-12 -6.68217e-13 0 2.53162e-16
1523 16 0.001 0.00564318 -0.00384465 -0.0414568 -1.51816e-12 7.22318e-14 -1.9845e-13 0 1.51846e-16
1524 16 0.001 0.00660815 -0.0038139 -0.0417135 -1.55057e-12 -3.97043e-13 -3.19993e-13 0 1.68848e-16
1525 16 0.001 0.00753593 -0.00354537 -0.0419687 -1.46632e-12 -8.42947e-13 -4.90734e-13 0 2.03759e-16
1526 16 0.001 0.00836864 -0.00305574 -0.0422234 -1.27981e-12 -1.27126e-12 -6.68128e-13 0 2.53162e-16
1919 18 0.001 0.0256432 -0.00384465 -0.0414568 -1.51842e-12 8.22712e-14 -1.99347e-13 0 1.51846e-16
1920 18 0.001 0.0266081 -0.0038139 -0.0417135 -1.53608e-12 -3.99563e-13 -3.231e-13 0 1.68848e-16
1921 18 0.001 0.0275359 -0.00354537 -0.0419687 -1.48287e-12 -8.43655e-13 -4.87353e-13 0 2.03759e-16
1922 18 0.001 0.0283686 -0.00305574 -0.0422234 -1.25261e-12 -1.27194e-12 -6.73062e-13 0 2.53162e-16
359 11 0.001 -0.0509457 -0.0023756 -0.0424789 -9.83564e-13 -1.60644e-12 -8.40036e-13 0 3.09472e-16
360 11 0.001 -0.0504499 -0.00154756 -0.0427368 -6.71532e-13 -1.88302e-12 -9.50049e-13 0 3.60533e-16
735 12 0.001 -0.0309457 -0.0023756 -0.0424789 -9.96158e-13 -1.60558e-12 -8.38848e-13 0 3.0947e-16
736 12 0.001 -0.0304499 -0.00154756 -0.0427368 -6.56423e-13 -1.86924e-12 -9.52777e-13 0 3.6053e-16
1131 14 0.001 -0.0109457 -0.0023756 -0.0424789 -1.01503e-12 -1.61971e-12 -8.33755e-13 0 3.0947e-16
1132 14 0.001 -0.0104499 -0.00154756 -0.0427368 -6.42347e-13 -1.86308e-12 -9.56085e-13 0 3.6053e-16
1527 16 0.001 0.0090543 -0.0023756 -0.0424789 -1.01392e-12 -1.61276e-12 -8.34922e-13 0 3.0947e-16
1528 16 0.001 0.00955012 -0.00154756 -0.0427368 -6.48897e-13 -1.86315e-12 -9.55426e-13 0 3.6053e-16
1923 18 0.001 0.0290543 -0.0023756 -0.0424789 -1.0392e-12 -1.60948e-12 -8.3122e-13 0 3.0947e-16
1924 18 0.001 0.0295501 -0.00154756 -0.0427368 -6.452e-13 -1.8676e-12 -9.55319e-13 0 3.6053e-16
353 11 0.001 -0.0561593 -0.00320063 -0.0409367 -1.19642e-12 9.4837e-13 -1.37654e-13 0 1.77221e-16
354 11 0.001 -0.0552989 -0.00363585 -0.0411979 -1.46765e-12 5.29152e-13 -1.16129e-13 0 1.54157e-16
729 12 0.001 -0.0361593 -0.00320063 -0.0409367 -1.21412e-12 9.44168e-13 -1.32748e-13 0 1.77229e-16
730 12 0.001 -0.0352989 -0.00363585 -0.0411979 -1.38461e-12 5.30321e-13 -1.34993e-13 0 1.54163e-16
1125 14 0.001 -0.0161593 -0.00320063 -0.0409367 -1.18058e-12 9.42358e-13 -1.38855e-13 0 1.77229e-16
1126 14 0.001 -0.0152989 -0.00363585 -0.0411979 -1.38451e-12 5.32912e-13 -1.363e-13 0 1.54163e-16
1521 16 0.001 0.00384069 -0.00320063 -0.0409367 -1.17148e-12 9.43927e-13 -1.4117e-13 0 1.77229e-16
1522 16 0.001 0.00470115 -0.00363585 -0.0411979 -1.40306e-12 5.27148e-13 -1.3237e-13 0 1.54163e-16
1917 18 0.001 0.0238407 -0.00320063 -0.0409367 -1.15332e-12 9.4453e-13 -1.45558e-13 0 1.77229e-16
1918 18 0.001 0.0247011 -0.00363585 -0.0411979 -1.40833e-12 5.16971e-13 -1.30586e-13 0 1.54163e-16
351 11 0.001 -0.05743 -0.00177225 -0.0404083 -5.9477e-13 1.5908e-12 -3.2325e-13 0 2.92515e-16
352 11 0.001 -0.0568847 -0.00256624 -0.0406734 -8.08042e-13 1.30325e-12 -2.23392e-13 0 2.22971e-16
727 12 0.001 -0.03743 -0.00177225 -0.0404083 -5.05527e-13 1.59838e-12 -3.30158e-13 0 2.92528e-16
728 12 0.001 -0.0368847 -0.00256624 -0.0406734 -8.53299e-13 1.29858e-12 -2.16325e-13 0 2.22981e-16
1123 14 0.001 -0.01743 -0.00177225 -0.0404083 -5.40806e-13 1.58691e-12 -3.30356e-13 0 2.92528e-16
1124 14 0.001 -0.0168847 -0.00256624 -0.0406734 -8.81216e-13 1.3092e-12 -2.08592e-13 0 2.22981e-16
1519 16 0.001 0.00257001 -0.00177225 -0.0404083 -5.20114e-13 1.58959e-12 -3.31118e-13 0 2.92528e-16
1520 16 0.001 0.00311529 -0.00256624 -0.0406734 -8.80561e-13 1.3065e-12 -2.09407e-13 0 2.22981e-16
1915 18 0.001 0.02257 -0.00177225 -0.0404083 -5.06787e-13 1.5938e-12 -3.31168e-13 0 2.92528e-16
1916 18 0.001 0.0231153 -0.00256624 -0.0406734 -9.13654e-13 1.31148e-12 -2.02945e-13 0 2.22981e-16
350 11 0.001 -0.0577613 -0.000868159 -0.040142 -4.1309e-14 1.77874e-12 -4.87888e-13 0 3.83894e-16
726 12 0.001 -0.0377613 -0.00086816 -0.040142 -1.40765e-13 1.77093e-12 -4.83493e-13 0 3.83911e-16
1122 14 0.001 -0.0177613 -0.00086816 -0.040142 -6.31863e-14 1.76812e-12 -4.89288e-13 0 3.83911e-16
1518 16 0.001 0.00223874 -0.00086816 -0.040142 -1.05911e-13 1.76934e-12 -4.86734e-13 0 3.83911e-16
1914 18 0.001 0.0222387 -0.00086816 -0.040142 -9.064e-14 1.76219e-12 -4.90416e-13 0 3.83911e-16
348 11 0.001 -0.0577141 0.00104162 -0.0396085 7.66074e-13 1.82121e-12 -7.70988e-13 0 6.00533e-16
349 11 0.001 -0.057858 8.96953e-05 -0.0398752 2.65646e-13 1.85317e-12 -6.4129e-13 0 4.90384e-16
724 12 0.001 -0.0377141 0.00104162 -0.0396085 7.53553e-13 1.81555e-12 -7.71484e-13 0 6.00554e-16
725 12 0.001 -0.037858 8.9695e-05 -0.0398752 3.31172e-13 1.85626e-12 -6.39866e-13 0 4.90404e-16
1120 14 0.001 -0.0177141 0.00104162 -0.0396085 7.35918e-13 1.81701e-12 -7.74098e-13 0 6.00554e-16
1121 14 0.001 -0.017858 8.9695e-05 -0.0398752 2.88182e-13 1.85784e-12 -6.36658e-13 0 4.90404e-16
1516 16 0.001 0.00228592 0.00104162 -0.0396085 7.44017e-13 1.81611e-12 -7.72912e-13 0 6.00554e-16
1517 16 0.001 0.00214204 8.9695e-05 -0.0398752 3.13808e-13 1.85708e-12 -6.37889e-13 0 4.90404e-16
1912 18 0.001 0.0222859 0.00104162 -0.0396085 7.46872e-13 1.81468e-12 -7.74364e-13 0 6.00554e-16
1913 18 0.001 0.022142 8.9695e-05 -0.0398752 2.91305e-13 1.85886e-12 -6.35932e-13 0 4.90404e-16
347 11 0.001 -0.0573386 0.00192825 -0.0393422 1.09391e-12 1.67929e-12 -8.63842e-13 0 7.00245e-16
346 11 0.001 -0.0567548 0.00269426 -0.0390767 1.48359e-12 1.43021e-12 -8.83615e-13 0 7.76226e-16
722 12 0.001 -0.0367548 0.00269425 -0.0390767 1.45496e-12 1.44593e-12 -8.81997e-13 0 7.76249e-16
723 12 0.001 -0.0373386 0.00192825 -0.0393422 1.1033e-12 1.66884e-12 -8.63442e-13 0 7.00267e-16
1118 14 0.001 -0.0167548 0.00269425 -0.0390767 1.43672e-12 1.44421e-12 -8.86461e-13 0 7.76249e-16
1119 14 0.001 -0.0173386 0.00192825 -0.0393422 1.12851e-12 1.66974e-12 -8.60284e-13 0 7.00267e-16
1515 16 0.001 0.00266144 0.00192825 -0.0393422 1.11113e-12 1.67387e-12 -8.61301e-13 0 7.00267e-16
1514 16 0.001 0.00324519 0.00269425 -0.0390767 1.45289e-12 1.44118e-12 -8.84158e-13 0 7.76249e-16
1910 18 0.001 0.0232452 0.00269425 -0.0390767 1.44117e-12 1.4389e-12 -8.85644e-13 0 7.76249e-16
1911 18 0.001 0.0226614 0.00192825 -0.0393422 1.12584e-12 1.67793e-12 -8.58638e-13 0 7.00267e-16
345 11 0.001 -0.0559992 0.00329179 -0.0388121 1.66641e-12 1.12127e-12 -8.5246e-13 0 8.19448e-16
344 11 0.001 -0.0551189 0.0036835 -0.0385481 1.81959e-12 7.19884e-13 -7.62246e-13 0 8.27321e-16
720 12 0.001 -0.0351189 0.0036835 -0.0385481 1.80728e-12 7.3542e-13 -7.60623e-13 0 8.27344e-16
721 12 0.001 -0.0359992 0.00329179 -0.0388121 1.66493e-12 1.09527e-12 -8.58763e-13 0 8.19471e-16
1117 14 0.001 -0.0159992 0.00329179 -0.0388121 1.69634e-12 1.10085e-12 -8.4962e-13 0 8.19471e-16
1116 14 0.001 -0.0151189 0.0036835 -0.0385481 1.8073e-12 7.31237e-13 -7.61145e-13 0 8.27344e-16
1513 16 0.001 0.00400078 0.00329179 -0.0388121 1.67894e-12 1.10604e-12 -8.52985e-13 0 8.19471e-16
1512 16 0.001 0.00488108 0.0036835 -0.0385481 1.81186e-12 7.23144e-13 -7.61027e-13 0 8.27344e-16
1908 18 0.001 0.0248811 0.0036835 -0.0385481 1.82634e-12 7.29446e-13 -7.56225e-13 0 8.27344e-16
1909 18 0.001 0.0240008 0.00329179 -0.0388121 1.67219e-12 1.10289e-12 -8.5626e-13 0 8.19471e-16
338 11 0.001 -0.0503945 0.00135675 -0.0369647 5.33795e-13 -1.2722e-12 -8.78661e-14 0 5.57319e-16
714 12 0.001 -0.0303945 0.00135675 -0.0369647 6.00629e-13 -1.23698e-12 -9.17531e-14 0 5.57341e-16
1110 14 0.001 -0.0103945 0.00135675 -0.0369647 5.81426e-13 -1.23993e-12 -9.1959e-14 0 5.57341e-16
1506 16 0.001 0.0096055 0.00135675 -0.0369647 5.75781e-13 -1.24295e-12 -9.1917e-14 0 5.57341e-16
1902 18 0.001 0.0296055 0.00135675 -0.0369647 5.60228e-13 -1.24138e-12 -9.36321e-14 0 5.57341e-16
340 11 0.001 -0.0514931 0.00292099 -0.0374942 1.27539e-12 -8.13215e-13 -1.97017e-13 0 6.43109e-16
339 11 0.001 -0.0508453 0.00220794 -0.0372298 1.02441e-12 -1.08289e-12 -9.77151e-14 0 5.9341e-16
715 12 0.001 -0.0308453 0.00220794 -0.0372298 9.85522e-13 -1.1017e-12 -9.74033e-14 0 5.93432e-16
716 12 0.001 -0.0314931 0.00292099 -0.0374942 1.29042e-12 -8.1074e-13 -1.91863e-13 0 6.4313e-16
1111 14 0.001 -0.0108453 0.00220794 -0.0372298 9.76971e-13 -1.10034e-12 -9.93599e-14 0 5.93432e-16
1112 14 0.001 -0.0114931 0.00292099 -0.0374942 1.31472e-12 -8.12891e-13 -1.87139e-13 0 6.4313e-16
1508 16 0.001 0.0085069 0.00292099 -0.0374942 1.3157e-12 -8.06724e-13 -1.87756e-13 0 6.4313e-16
1507 16 0.001 0.00915472 0.00220794 -0.0372298 9.84619e-13 -1.10269e-12 -9.79642e-14 0 5.93432e-16
1903 18 0.001 0.0291547 0.00220794 -0.0372298 1.00557e-12 -1.09643e-12 -9.56509e-14 0 5.93432e-16
1904 18 0.001 0.0285069 0.00292099 -0.0374942 1.28425e-12 -8.19373e-13 -1.9212e-13 0 6.4313e-16
343 11 0.001 -0.0541689 0.00384489 -0.0382847 1.83256e-12 3.08367e-13 -6.26938e-13 0 8.03852e-16
342 11 0.001 -0.0532084 0.00376586 -0.0380214 1.81276e-12 -8.36024e-14 -4.56577e-13 0 7.57963e-16
341 11 0.001 -0.0522976 0.00345134 -0.037758 1.55414e-12 -4.75388e-13 -3.22657e-13 0 7.00802e-16
719 12 0.001 -0.0341689 0.00384489 -0.0382847 1.88281e-12 3.05635e-13 -6.1463e-13 0 8.03874e-16
718 12 0.001 -0.0332084 0.00376586 -0.0380214 1.72971e-12 -8.12144e-14 -4.73785e-13 0 7.57985e-16
717 12 0.001 -0.0322976 0.00345134 -0.037758 1.60061e-12 -4.74176e-13 -3.12649e-13 0 7.00824e-16
1115 14 0.001 -0.0141689 0.00384489 -0.0382847 1.84073e-12 3.19346e-13 -6.25317e-13 0 8.03874e-16
1113 14 0.001 -0.0122976 0.00345134 -0.037758 1.57487e-12 -4.68082e-13 -3.183e-13 0 7.00824e-16
1114 14 0.001 -0.0132084 0.00376586 -0.0380214 1.76659e-12 -9.78865e-14 -4.64439e-13 0 7.57985e-16
1511 16 0.001 0.00583111 0.00384489 -0.0382847 1.84254e-12 3.18572e-13 -6.24416e-13 0 8.03874e-16
1510 16 0.001 0.00679156 0.00376586 -0.0380214 1.77304e-12 -9.06748e-14 -4.63261e-13 0 7.57985e-16
1509 16 0.001 0.00770245 0.00345134 -0.037758 1.56562e-12 -4.74645e-13 -3.19802e-13 0 7.00824e-16
1907 18 0.001 0.0258311 0.00384489 -0.0382847 1.8377e-12 3.09935e-13 -6.25814e-13 0 8.03874e-16
1906 18 0.001 0.0267916 0.00376586 -0.0380214 1.77435e-12 -8.94125e-14 -4.6239e-13 0 7.57985e-16
1905 18 0.001 0.0277024 0.00345134 -0.037758 1.58121e-12 -4.62557e-13 -3.18202e-13 0 7.00824e-16
333 11 0.001 -0.0515759 -0.00300326 -0.0356329 -1.33859e-12 -8.87295e-13 -5.50056e-13 0 6.14918e-16
709 12 0.001 -0.0315759 -0.00300326 -0.0356329 -1.23826e-12 -8.80776e-13 -5.70513e-13 0 6.1495e-16
1105 14 0.001 -0.0115759 -0.00300326 -0.0356329 -1.32497e-12 -8.87544e-13 -5.51692e-13 0 6.1495e-16
1501 16 0.001 0.00842408 -0.00300326 -0.0356329 -1.33177e-12 -8.84316e-13 -5.50268e-13 0 6.1495e-16
1897 18 0.001 0.0284241 -0.00300326 -0.0356329 -1.33133e-12 -8.78613e-13 -5.51959e-13 0 6.1495e-16
334 11 0.001 -0.0509086 -0.00230926 -0.0358994 -1.02128e-12 -1.13639e-12 -4.33493e-13 0 5.76585e-16
710 12 0.001 -0.0309086 -0.00230926 -0.0358994 -1.12197e-12 -1.13532e-12 -4.1247e-13 0 5.76615e-16
1106 14 0.001 -0.0109086 -0.00230926 -0.0358994 -1.02245e-12 -1.12851e-12 -4.31555e-13 0 5.76615e-16
1502 16 0.001 0.00909143 -0.00230926 -0.0358994 -1.02348e-12 -1.13151e-12 -4.3174e-13 0 5.76615e-16
1898 18 0.001 0.0290914 -0.00230926 -0.0358994 -9.9047e-13 -1.13338e-12 -4.35845e-13 0 5.76615e-16
335 11 0.001 -0.0504342 -0.00147149 -0.036166 -6.50116e-13 -1.31255e-12 -3.00214e-13 0 5.48927e-16
336 11 0.001 -0.0501824 -0.000542219 -0.0364326 -3.01111e-13 -1.37257e-12 -1.96398e-13 0 5.3522e-16
711 12 0.001 -0.0304342 -0.00147148 -0.036166 -6.36333e-13 -1.31427e-12 -3.03641e-13 0 5.48954e-16
712 12 0.001 -0.0301824 -0.000542218 -0.0364326 -2.30216e-13 -1.37132e-12 -1.95293e-13 0 5.35246e-16
1107 14 0.001 -0.0104342 -0.00147148 -0.036166 -6.66587e-13 -1.312e-12 -2.98637e-13 0 5.48954e-16
1108 14 0.001 -0.0101824 -0.000542218 -0.0364326 -2.51423e-13 -1.36844e-12 -1.9641e-13 0 5.35246e-16
1503 16 0.001 0.00956581 -0.00147148 -0.036166 -6.58372e-13 -1.31089e-12 -2.99135e-13 0 5.48954e-16
1504 16 0.001 0.00981763 -0.000542218 -0.0364326 -2.56417e-13 -1.3672e-12 -1.96512e-13 0 5.35246e-16
1899 18 0.001 0.0295658 -0.00147148 -0.036166 -7.10561e-13 -1.31443e-12 -2.91961e-13 0 5.48954e-16
1900 18 0.001 0.0298176 -0.000542218 -0.0364326 -2.31457e-13 -1.36671e-12 -1.99845e-13 0 5.35246e-16
337 11 0.001 -0.0501689 0.000420553 -0.0366989 2.29345e-13 -1.39585e-12 -1.01657e-13 0 5.37698e-16
713 12 0.001 -0.0301689 0.000420554 -0.0366989 1.28606e-13 -1.40718e-12 -9.88924e-14 0 5.37722e-16
1109 14 0.001 -0.0101689 0.000420554 -0.0366989 1.63946e-13 -1.40483e-12 -9.86244e-14 0 5.37722e-16
1505 16 0.001 0.00983115 0.000420554 -0.0366989 1.65351e-13 -1.40354e-12 -9.88469e-14 0 5.37722e-16
1901 18 0.001 0.0298311 0.000420554 -0.0366989 1.73802e-13 -1.40498e-12 -9.73269e-14 0 5.37722e-16
328 11 0.001 -0.0560886 -0.00324405 -0.0343073 -1.38183e-12 8.03268e-13 -6.24284e-13 0 8.24362e-16
329 11 0.001 -0.05522 -0.00366099 -0.0345714 -1.62268e-12 4.95712e-13 -6.80951e-13 0 7.91869e-16
330 11 0.001 -0.0542754 -0.00384966 -0.034836 -1.70462e-12 1.44811e-13 -7.13551e-13 0 7.52089e-16
331 11 0.001 -0.0533135 -0.0037983 -0.0351011 -1.62977e-12 -2.26363e-13 -7.17477e-13 0 7.0698e-16
332 11 0.001 -0.0523946 -0.00351016 -0.0353667 -1.5709e-12 -5.70694e-13 -6.44735e-13 0 6.59859e-16
704 12 0.001 -0.0360886 -0.00324405 -0.0343073 -1.4152e-12 7.98073e-13 -6.17351e-13 0 8.24404e-16
705 12 0.001 -0.03522 -0.00366099 -0.0345714 -1.62334e-12 4.9617e-13 -6.73964e-13 0 7.91909e-16
706 12 0.001 -0.0342754 -0.00384966 -0.034836 -1.67482e-12 1.44121e-13 -7.24312e-13 0 7.52127e-16
707 12 0.001 -0.0333135 -0.0037983 -0.0351011 -1.67532e-12 -2.34504e-13 -7.00155e-13 0 7.07016e-16
708 12 0.001 -0.0323946 -0.00351016 -0.0353667 -1.54905e-12 -5.57593e-13 -6.51068e-13 0 6.59893e-16
1100 14 0.001 -0.0160886 -0.00324405 -0.0343073 -1.45178e-12 8.20012e-13 -6.04926e-13 0 8.24404e-16
1101 14 0.001 -0.01522 -0.00366099 -0.0345714 -1.57138e-12 4.83413e-13 -6.8921e-13 0 7.91909e-16
1102 14 0.001 -0.0142754 -0.00384966 -0.034836 -1.68869e-12 1.452e-13 -7.19977e-13 0 7.52127e-16
1104 14 0.001 -0.0123946 -0.00351016 -0.0353667 -1.54296e-12 -5.6836e-13 -6.51331e-13 0 6.59893e-16
1103 14 0.001 -0.0133135 -0.0037983 -0.0351011 -1.67447e-12 -2.25635e-13 -7.00487e-13 0 7.07016e-16
1496 16 0.001 0.00391138 -0.00324405 -0.0343073 -1.42461e-12 8.05395e-13 -6.13897e-13 0 8.24404e-16
1497 16 0.001 0.00477996 -0.00366099 -0.0345714 -1.59208e-12 4.89419e-13 -6.82526e-13 0 7.91909e-16
1498 16 0.001 0.00572464 -0.00384966 -0.034836 -1.68445e-12 1.47114e-13 -7.21942e-13 0 7.52127e-16
1499 16 0.001 0.00668647 -0.0037983 -0.0351011 -1.66535e-12 -2.29138e-13 -7.02505e-13 0 7.07016e-16
1500 16 0.001 0.00760539 -0.00351016 -0.0353667 -1.54497e-12 -5.69526e-13 -6.50501e-13 0 6.59893e-16
1892 18 0.001 0.0239114 -0.00324405 -0.0343073 -1.44168e-12 8.23807e-13 -6.06293e-13 0 8.24404e-16
1893 18 0.001 0.02478 -0.00366099 -0.0345714 -1.568e-12 4.83469e-13 -6.90628e-13 0 7.91909e-16
1894 18 0.001 0.0257246 -0.00384966 -0.034836 -1.69149e-12 1.4241e-13 -7.19344e-13 0 7.52127e-16
1895 18 0.001 0.0266865 -0.0037983 -0.0351011 -1.675e-12 -2.26697e-13 -7.00314e-13 0 7.07016e-16
1896 18 0.001 0.0276054 -0.00351016 -0.0353667 -1.54434e-12 -5.71321e-13 -6.50402e-13 0 6.59893e-16
327 11 0.001 -0.0568269 -0.00262483 -0.0340435 -1.17946e-12 1.07909e-12 -5.12527e-13 0 8.49163e-16
703 12 0.001 -0.0368269 -0.00262483 -0.0340435 -1.13489e-12 1.07554e-12 -5.18306e-13 0 8.49208e-16
1099 14 0.001 -0.0168269 -0.00262483 -0.0340435 -1.14816e-12 1.05727e-12 -5.21001e-13 0 8.49208e-16