ITEM: TIMESTEP
1500000
ITEM: NUMBER OF ATOMS
1970
ITEM: BOX BOUNDS ff ff ff
-6.0000000000000005e-02 6.0000000000000005e-02
-6.0000000000000001e-03 6.0000000000000001e-03
-5.5000000000000000e-02 5.5000000000000000e-02
ITEM: ATOMS id type radius x y z fx fy fz c_bendingE c_stretchingE
384 11 0.001 -0.0509216 -0.00261673 -0.0490297 -4.17081e-12 5.96716e-13 -3.01365e-12 0 3.15805e-15
385 11 0.001 -0.050391 -0.00182799 -0.0493369 -2.92285e-12 1.27649e-13 -1.79116e-12 0 3.6174e-15
760 12 0.001 -0.0309216 -0.00261673 -0.0490297 -4.1656e-12 5.98879e-13 -3.01534e-12 0 3.15805e-15
761 12 0.001 -0.030391 -0.00182799 -0.0493369 -2.91125e-12 1.25487e-13 -1.79046e-12 0 3.6174e-15
1156 14 0.001 -0.0109216 -0.00261673 -0.0490297 -4.16463e-12 6.04973e-13 -3.01725e-12 0 3.15805e-15
1157 14 0.001 -0.010391 -0.00182799 -0.0493369 -2.90661e-12 1.20984e-13 -1.78933e-12 0 3.6174e-15
1552 16 0.001 0.00907844 -0.00261673 -0.0490297 -4.16941e-12 6.06018e-13 -3.01705e-12 0 3.15805e-15
1553 16 0.001 0.00960902 -0.00182799 -0.0493369 -2.90406e-12 1.20089e-13 -1.78937e-12 0 3.6174e-15
1948 18 0.001 0.0290784 -0.00261673 -0.0490297 -4.14126e-12 6.03352e-13 -3.01982e-12 0 3.15805e-15
1949 18 0.001 0.029609 -0.00182799 -0.0493369 -2.92933e-12 1.24576e-13 -1.78888e-12 0 3.6174e-15
2 2 0.001 -0.05 -4.31175e-17 -0.05 -8.49913e-06 1.34876e-05 9.48978e-07 0 1.68457e-16
386 11 0.001 -0.0500775 -0.000936764 -0.0496616 -1.4692e-12 -6.21584e-14 -7.66744e-13 0 1.28688e-15
762 12 0.001 -0.0300775 -0.000936764 -0.0496616 -1.49117e-12 -6.3011e-14 -7.65949e-13 0 1.28688e-15
4 4 0.001 -0.03 -4.31175e-17 -0.05 -8.49913e-06 1.34876e-05 9.48978e-07 0 1.68457e-16
6 6 0.001 -0.01 -4.31175e-17 -0.05 -8.49913e-06 1.34876e-05 9.48978e-07 0 1.68457e-16
1158 14 0.001 -0.0100775 -0.000936764 -0.0496616 -1.49387e-12 -6.14995e-14 -7.66194e-13 0 1.28688e-15
8 8 0.001 0.01 -4.31175e-17 -0.05 -8.49913e-06 1.34876e-05 9.48978e-07 0 1.68457e-16
1554 16 0.001 0.0099225 -0.000936764 -0.0496616 -1.49365e-12 -6.19679e-14 -7.6597e-13 0 1.28688e-15
10 10 0.001 0.03 -4.31175e-17 -0.05 -8.49913e-06 1.34876e-05 9.48978e-07 0 1.68457e-16
1950 18 0.001 0.0299225 -0.000936764 -0.0496616 -1.4777e-12 -6.30692e-14 -7.6624e-13 0 1.28688e-15
378 11 0.001 -0.0561917 -0.00314866 -0.0475491 -5.46551e-12 6.10942e-12 -6.30093e-12 0 5.44458e-15
379 11 0.001 -0.0553445 -0.00363056 -0.0477681 -6.14095e-12 5.23264e-12 -6.91286e-12 0 4.53481e-15
380 11 0.001 -0.054406 -0.00388983 -0.047992 -6.49131e-12 4.24331e-12 -6.93064e-12 0 3.04012e-15
381 11 0.001 -0.053435 -0.00391087 -0.048226 -6.38974e-12 3.2054e-12 -6.4275e-12 0 1.38445e-15
382 11 0.001 -0.0524923 -0.00369337 -0.0484749 -5.93675e-12 2.17141e-12 -5.50221e-12 0 3.03224e-16
383 11 0.001 -0.0516367 -0.00325228 -0.0487422 -5.23595e-12 1.2699e-12 -4.28374e-12 0 6.6648e-16
754 12 0.001 -0.0361917 -0.00314866 -0.0475491 -5.48198e-12 6.08805e-12 -6.30198e-12 0 5.44458e-15
755 12 0.001 -0.0353445 -0.00363056 -0.0477681 -6.15568e-12 5.24458e-12 -6.90838e-12 0 4.53481e-15
756 12 0.001 -0.034406 -0.00388983 -0.047992 -6.44367e-12 4.23939e-12 -6.94181e-12 0 3.04012e-15
757 12 0.001 -0.033435 -0.00391087 -0.048226 -6.42006e-12 3.19657e-12 -6.42004e-12 0 1.38445e-15
758 12 0.001 -0.0324923 -0.00369337 -0.0484749 -5.92808e-12 2.17523e-12 -5.50425e-12 0 3.03224e-16
759 12 0.001 -0.0316367 -0.00325228 -0.0487422 -5.23906e-12 1.27291e-12 -4.28415e-12 0 6.6648e-16
1151 14 0.001 -0.0153445 -0.00363056 -0.0477681 -6.11279e-12 5.25172e-12 -6.91705e-12 0 4.53481e-15
1150 14 0.001 -0.0161917 -0.00314866 -0.0475491 -5.4862e-12 6.07926e-12 -6.30168e-12 0 5.44458e-15
1152 14 0.001 -0.014406 -0.00388983 -0.047992 -6.48201e-12 4.23614e-12 -6.93349e-12 0 3.04012e-15
1153 14 0.001 -0.013435 -0.00391087 -0.048226 -6.41483e-12 3.19497e-12 -6.42039e-12 0 1.38445e-15
1154 14 0.001 -0.0124923 -0.00369337 -0.0484749 -5.93603e-12 2.18377e-12 -5.50415e-12 0 3.03224e-16
1155 14 0.001 -0.0116367 -0.00325228 -0.0487422 -5.23587e-12 1.26424e-12 -4.28314e-12 0 6.6648e-16
1546 16 0.001 0.0038083 -0.00314866 -0.0475491 -5.48043e-12 6.08103e-12 -6.30316e-12 0 5.44458e-15
1547 16 0.001 0.00465553 -0.00363056 -0.0477681 -6.13355e-12 5.24658e-12 -6.91293e-12 0 4.53481e-15
1548 16 0.001 0.00559398 -0.00388983 -0.047992 -6.47323e-12 4.24497e-12 -6.93561e-12 0 3.04012e-15
1549 16 0.001 0.00656497 -0.00391087 -0.048226 -6.39592e-12 3.18586e-12 -6.42395e-12 0 1.38445e-15
1550 16 0.001 0.0075077 -0.00369337 -0.0484749 -5.96143e-12 2.18673e-12 -5.49889e-12 0 3.03224e-16
1551 16 0.001 0.00836327 -0.00325228 -0.0487422 -5.224e-12 1.26478e-12 -4.28553e-12 0 6.6648e-16
1942 18 0.001 0.0238083 -0.00314866 -0.0475491 -5.48023e-12 6.07405e-12 -6.30418e-12 0 5.44458e-15
1943 18 0.001 0.0246555 -0.00363056 -0.0477681 -6.13733e-12 5.25594e-12 -6.91155e-12 0 4.53481e-15
1944 18 0.001 0.025594 -0.00388983 -0.047992 -6.47206e-12 4.23241e-12 -6.93533e-12 0 3.04012e-15
1945 18 0.001 0.026565 -0.00391087 -0.048226 -6.40493e-12 3.21092e-12 -6.42471e-12 0 1.38445e-15
1946 18 0.001 0.0275077 -0.00369337 -0.0484749 -5.94448e-12 2.15953e-12 -5.49825e-12 0 3.03224e-16
1947 18 0.001 0.0283633 -0.00325228 -0.0487422 -5.24834e-12 1.27578e-12 -4.2833e-12 0 6.6648e-16
376 11 0.001 -0.0574106 -0.00164854 -0.047104 -3.28452e-12 6.9051e-12 -3.62366e-12 0 5.35003e-15
377 11 0.001 -0.0568949 -0.00247396 -0.0473293 -4.52934e-12 6.60995e-12 -5.17414e-12 0 5.67213e-15
753 12 0.001 -0.0368949 -0.00247396 -0.0473293 -4.50906e-12 6.63378e-12 -5.17115e-12 0 5.67213e-15
752 12 0.001 -0.0374106 -0.00164854 -0.047104 -3.29435e-12 6.90655e-12 -3.62172e-12 0 5.35003e-15
1149 14 0.001 -0.0168949 -0.00247396 -0.0473293 -4.52168e-12 6.63882e-12 -5.16903e-12 0 5.67213e-15
1148 14 0.001 -0.0174106 -0.00164854 -0.047104 -3.2966e-12 6.89724e-12 -3.62513e-12 0 5.35003e-15
1544 16 0.001 0.00258938 -0.00164854 -0.047104 -3.31988e-12 6.89911e-12 -3.62274e-12 0 5.35003e-15
1545 16 0.001 0.00310509 -0.00247396 -0.0473293 -4.50155e-12 6.63832e-12 -5.1707e-12 0 5.67213e-15
1941 18 0.001 0.0231051 -0.00247396 -0.0473293 -4.4942e-12 6.64356e-12 -5.17079e-12 0 5.67213e-15
1940 18 0.001 0.0225894 -0.00164854 -0.047104 -3.32506e-12 6.88878e-12 -3.62406e-12 0 5.35003e-15
375 11 0.001 -0.0577073 -0.000723859 -0.0468696 -2.01597e-12 6.77847e-12 -1.9005e-12 0 4.70804e-15
751 12 0.001 -0.0377073 -0.000723859 -0.0468696 -2.07581e-12 6.77464e-12 -1.90433e-12 0 4.70804e-15
1147 14 0.001 -0.0177073 -0.000723859 -0.0468696 -2.01989e-12 6.77875e-12 -1.90096e-12 0 4.70804e-15
1543 16 0.001 0.0022927 -0.000723859 -0.0468696 -2.0217e-12 6.77641e-12 -1.90246e-12 0 4.70804e-15
1939 18 0.001 0.0222927 -0.000723859 -0.0468696 -2.01071e-12 6.78528e-12 -1.90075e-12 0 4.70804e-15
373 11 0.001 -0.0575876 0.00119085 -0.0463659 6.87089e-13 5.62727e-12 1.16315e-12 0 3.27604e-15
374 11 0.001 -0.0577673 0.000242571 -0.0466237 -7.16243e-13 6.35871e-12 -2.22223e-13 0 3.96567e-15
749 12 0.001 -0.0375876 0.00119085 -0.0463659 5.89118e-13 5.63393e-12 1.1551e-12 0 3.27604e-15
750 12 0.001 -0.0377673 0.000242571 -0.0466237 -5.96044e-13 6.35557e-12 -2.14821e-13 0 3.96567e-15
1145 14 0.001 -0.0175876 0.00119085 -0.0463659 6.40274e-13 5.63599e-12 1.15924e-12 0 3.27604e-15
1146 14 0.001 -0.0177673 0.000242571 -0.0466237 -6.80273e-13 6.35689e-12 -2.19457e-13 0 3.96567e-15
1541 16 0.001 0.00241238 0.00119085 -0.0463659 6.45705e-13 5.63722e-12 1.16089e-12 0 3.27604e-15
1542 16 0.001 0.00223272 0.000242571 -0.0466237 -6.70457e-13 6.35678e-12 -2.19303e-13 0 3.96567e-15
1937 18 0.001 0.0224124 0.00119085 -0.0463659 6.73358e-13 5.63252e-12 1.16378e-12 0 3.27604e-15
1938 18 0.001 0.0222327 0.000242571 -0.0466237 -6.93995e-13 6.35581e-12 -2.21096e-13 0 3.96567e-15
372 11 0.001 -0.0571802 0.00206237 -0.0460967 1.87343e-12 4.69357e-12 2.05549e-12 0 2.71628e-15
748 12 0.001 -0.0371802 0.00206237 -0.0460967 1.91206e-12 4.6812e-12 2.05782e-12 0 2.71628e-15
1144 14 0.001 -0.0171802 0.00206237 -0.0460967 1.901e-12 4.6754e-12 2.05704e-12 0 2.71628e-15
1540 16 0.001 0.00281983 0.00206237 -0.0460967 1.89626e-12 4.68163e-12 2.05775e-12 0 2.71628e-15
1936 18 0.001 0.0228198 0.00206237 -0.0460967 1.87496e-12 4.6883e-12 2.05424e-12 0 2.71628e-15
371 11 0.001 -0.0565708 0.00280339 -0.0458182 3.06137e-12 3.55617e-12 2.36047e-12 0 2.30438e-15
747 12 0.001 -0.0365708 0.00280339 -0.0458182 3.03751e-12 3.54699e-12 2.35236e-12 0 2.30438e-15
1143 14 0.001 -0.0165708 0.00280339 -0.0458182 3.01835e-12 3.55516e-12 2.34783e-12 0 2.30438e-15
1539 16 0.001 0.00342922 0.00280339 -0.0458182 3.02009e-12 3.55134e-12 2.34701e-12 0 2.30438e-15
1935 18 0.001 0.0234292 0.00280339 -0.0458182 3.02442e-12 3.54007e-12 2.34713e-12 0 2.30438e-15
370 11 0.001 -0.0557976 0.00336823 -0.0455332 3.91957e-12 2.2614e-12 2.0114e-12 0 2.0228e-15
369 11 0.001 -0.054909 0.003722 -0.0452448 4.73251e-12 9.10548e-13 1.19043e-12 0 1.83742e-15
367 11 0.001 -0.0530109 0.00372295 -0.0446693 5.32153e-12 -1.88742e-12 -1.26656e-12 0 1.60147e-15
368 11 0.001 -0.0539603 0.00384278 -0.0449559 5.23817e-12 -4.95769e-13 3.41349e-14 0 1.70921e-15
745 12 0.001 -0.034909 0.003722 -0.0452448 4.70572e-12 9.02824e-13 1.17785e-12 0 1.83742e-15
746 12 0.001 -0.0357976 0.00336823 -0.0455332 3.96881e-12 2.28896e-12 2.03185e-12 0 2.0228e-15
744 12 0.001 -0.0339603 0.00384278 -0.0449559 5.19678e-12 -5.03863e-13 2.38785e-14 0 1.70921e-15
743 12 0.001 -0.0330109 0.00372295 -0.0446693 5.35088e-12 -1.88806e-12 -1.25781e-12 0 1.60147e-15
1142 14 0.001 -0.0157976 0.00336823 -0.0455332 3.98812e-12 2.27503e-12 2.03438e-12 0 2.0228e-15
1140 14 0.001 -0.0139603 0.00384278 -0.0449559 5.19009e-12 -5.02328e-13 2.06684e-14 0 1.70921e-15
1141 14 0.001 -0.014909 0.003722 -0.0452448 4.72631e-12 9.13512e-13 1.18709e-12 0 1.83742e-15
1139 14 0.001 -0.0130109 0.00372295 -0.0446693 5.34508e-12 -1.88557e-12 -1.26017e-12 0 1.60147e-15
1538 16 0.001 0.00420236 0.00336823 -0.0455332 3.97817e-12 2.27036e-12 2.03201e-12 0 2.0228e-15
1537 16 0.001 0.00509099 0.003722 -0.0452448 4.7292e-12 9.14806e-13 1.18719e-12 0 1.83742e-15
1535 16 0.001 0.00698915 0.00372295 -0.0446693 5.33776e-12 -1.89031e-12 -1.26212e-12 0 1.60147e-15
1536 16 0.001 0.00603968 0.00384278 -0.0449559 5.19758e-12 -4.97873e-13 2.31512e-14 0 1.70921e-15
1933 18 0.001 0.025091 0.003722 -0.0452448 4.73606e-12 9.10629e-13 1.18968e-12 0 1.83742e-15
1934 18 0.001 0.0242024 0.00336823 -0.0455332 3.98407e-12 2.28201e-12 2.03394e-12 0 2.0228e-15
1932 18 0.001 0.0260397 0.00384278 -0.0449559 5.18676e-12 -5.00268e-13 1.96469e-14 0 1.70921e-15
1931 18 0.001 0.0269891 0.00372295 -0.0446693 5.33456e-12 -1.89027e-12 -1.26233e-12 0 1.60147e-15
361 11 0.001 -0.0501984 -0.000715364 -0.0430451 1.02094e-13 -5.04015e-12 -1.75468e-12 0 7.52067e-16
737 12 0.001 -0.0301984 -0.000715364 -0.0430451 8.77915e-14 -5.04309e-12 -1.75485e-12 0 7.52067e-16
1133 14 0.001 -0.0101984 -0.000715364 -0.0430451 8.67836e-14 -5.0435e-12 -1.75231e-12 0 7.52067e-16
1529 16 0.001 0.00980159 -0.000715364 -0.0430451 8.55419e-14 -5.04224e-12 -1.75257e-12 0 7.52067e-16
1925 18 0.001 0.0298016 -0.000715364 -0.0430451 8.7675e-14 -5.04326e-12 -1.75337e-12 0 7.52067e-16
362 11 0.001 -0.05014 0.000247161 -0.0433061 1.29e-12 -5.4103e-12 -2.65719e-12 0 8.68432e-16
363 11 0.001 -0.0503216 0.00119351 -0.0435697 2.51376e-12 -5.41742e-12 -3.28654e-12 0 1.02044e-15
738 12 0.001 -0.03014 0.000247161 -0.0433061 1.34315e-12 -5.40875e-12 -2.65455e-12 0 8.68432e-16
739 12 0.001 -0.0303216 0.00119351 -0.0435697 2.44798e-12 -5.41433e-12 -3.2936e-12 0 1.02044e-15
1134 14 0.001 -0.01014 0.000247161 -0.0433061 1.28425e-12 -5.40511e-12 -2.65913e-12 0 8.68432e-16
1135 14 0.001 -0.0103216 0.00119351 -0.0435697 2.53145e-12 -5.4142e-12 -3.2854e-12 0 1.02044e-15
1530 16 0.001 0.00986003 0.000247161 -0.0433061 1.28137e-12 -5.40915e-12 -2.65817e-12 0 8.68432e-16
1531 16 0.001 0.00967842 0.00119351 -0.0435697 2.53276e-12 -5.41248e-12 -3.28619e-12 0 1.02044e-15
1926 18 0.001 0.02986 0.000247161 -0.0433061 1.29947e-12 -5.41005e-12 -2.65702e-12 0 8.68432e-16
1927 18 0.001 0.0296784 0.00119351 -0.0435697 2.51336e-12 -5.41457e-12 -3.28722e-12 0 1.02044e-15
365 11 0.001 -0.051344 0.00280525 -0.0441092 4.51525e-12 -4.23795e-12 -3.18079e-12 0 1.34735e-15
364 11 0.001 -0.0507316 0.00206438 -0.0438371 3.6341e-12 -4.99377e-12 -3.49151e-12 0 1.18729e-15
740 12 0.001 -0.0307316 0.00206438 -0.0438371 3.67355e-12 -4.99007e-12 -3.48657e-12 0 1.18729e-15
741 12 0.001 -0.031344 0.00280525 -0.0441092 4.481e-12 -4.2388e-12 -3.18848e-12 0 1.34735e-15
1136 14 0.001 -0.0107316 0.00206438 -0.0438371 3.60934e-12 -5.00466e-12 -3.49283e-12 0 1.18729e-15
1137 14 0.001 -0.011344 0.00280525 -0.0441092 4.53478e-12 -4.22714e-12 -3.17954e-12 0 1.34735e-15
1533 16 0.001 0.00865598 0.00280525 -0.0441092 4.52871e-12 -4.23418e-12 -3.17932e-12 0 1.34735e-15
1532 16 0.001 0.0092684 0.00206438 -0.0438371 3.61553e-12 -4.99974e-12 -3.49253e-12 0 1.18729e-15
1928 18 0.001 0.0292684 0.00206438 -0.0438371 3.63956e-12 -4.99499e-12 -3.48937e-12 0 1.18729e-15
1929 18 0.001 0.028656 0.00280525 -0.0441092 4.48729e-12 -4.23815e-12 -3.18787e-12 0 1.34735e-15
366 11 0.001 -0.0521201 0.00336982 -0.0443867 5.07966e-12 -3.15481e-12 -2.40337e-12 0 1.48581e-15
742 12 0.001 -0.0321201 0.00336982 -0.0443867 5.11147e-12 -3.157e-12 -2.3948e-12 0 1.48581e-15
1138 14 0.001 -0.0121201 0.00336982 -0.0443867 5.07202e-12 -3.16063e-12 -2.40375e-12 0 1.48581e-15
1534 16 0.001 0.00787992 0.00336982 -0.0443867 5.07618e-12 -3.15628e-12 -2.40341e-12 0 1.48581e-15
1930 18 0.001 0.0278799 0.00336982 -0.0443867 5.10604e-12 -3.1511e-12 -2.39717e-12 0 1.48581e-15
355 11 0.001 -0.0544421 -0.00384189 -0.0414768 -4.05374e-12 1.60616e-12 -4.1818e-13 0 1.4699e-15
356 11 0.001 -0.0534786 -0.00383295 -0.0417407 -3.8143e-12 2.34801e-13 2.65466e-13 0 1.14098e-15
357 11 0.001 -0.0525471 -0.00358557 -0.0420035 -3.5117e-12 -1.03821e-12 6.44917e-13 0 9.01999e-16
358 11 0.001 -0.0517055 -0.00311507 -0.0422651 -2.86292e-12 -2.33853e-12 5.59797e-13 0 7.52357e-16
731 12 0.001 -0.0344421 -0.00384189 -0.0414768 -4.00508e-12 1.59487e-12 -4.30998e-13 0 1.4699e-15
732 12 0.001 -0.0334786 -0.00383295 -0.0417407 -3.89266e-12 2.62105e-13 2.84683e-13 0 1.14098e-15
733 12 0.001 -0.0325471 -0.00358557 -0.0420035 -3.42306e-12 -1.06819e-12 6.25617e-13 0 9.01999e-16
734 12 0.001 -0.0317055 -0.00311507 -0.0422651 -2.93591e-12 -2.31345e-12 5.72435e-13 0 7.52357e-16
1127 14 0.001 -0.0144421 -0.00384189 -0.0414768 -4.05665e-12 1.58783e-12 -4.18125e-13 0 1.4699e-15
1128 14 0.001 -0.0134786 -0.00383295 -0.0417407 -3.84864e-12 2.54929e-13 2.74409e-13 0 1.14098e-15
1129 14 0.001 -0.0125471 -0.00358557 -0.0420035 -3.47553e-12 -1.05159e-12 6.35554e-13 0 9.01999e-16
1130 14 0.001 -0.0117055 -0.00311507 -0.0422651 -2.852e-12 -2.32809e-12 5.58232e-13 0 7.52357e-16
1523 16 0.001 0.00555786 -0.00384189 -0.0414768 -4.04057e-12 1.59391e-12 -4.21848e-13 0 1.4699e-15
1524 16 0.001 0.00652136 -0.00383295 -0.0417407 -3.85278e-12 2.57495e-13 2.74496e-13 0 1.14098e-15
1525 16 0.001 0.0074529 -0.00358557 -0.0420035 -3.45219e-12 -1.06101e-12 6.31694e-13 0 9.01999e-16
1526 16 0.001 0.00829445 -0.00311507 -0.0422651 -2.88877e-12 -2.32279e-12 5.65009e-13 0 7.52357e-16
1919 18 0.001 0.0255579 -0.00384189 -0.0414768 -4.07833e-12 1.58711e-12 -4.11935e-13 0 1.4699e-15
1920 18 0.001 0.0265214 -0.00383295 -0.0417407 -3.83601e-12 2.6021e-13 2.70149e-13 0 1.14098e-15
1921 18 0.001 0.0274529 -0.00358557 -0.0420035 -3.46914e-12 -1.05603e-12 6.35068e-13 0 9.01999e-16
1922 18 0.001 0.0282945 -0.00311507 -0.0422651 -2.86483e-12 -2.32126e-12 5.59172e-13 0 7.52357e-16
359 11 0.001 -0.0510064 -0.00245069 -0.0425255 -1.9852e-12 -3.3972e-12 3.58789e-14 0 6.83932e-16
360 11 0.001 -0.0504934 -0.00163379 -0.0427853 -1.09698e-12 -4.38982e-12 -7.6388e-13 0 6.86946e-16
735 12 0.001 -0.0310064 -0.00245069 -0.0425255 -1.94143e-12 -3.41352e-12 3.081e-14 0 6.83932e-16
736 12 0.001 -0.0304934 -0.00163379 -0.0427853 -1.11553e-12 -4.385e-12 -7.62035e-13 0 6.86946e-16
1131 14 0.001 -0.0110064 -0.00245069 -0.0425255 -2.03507e-12 -3.40206e-12 4.3922e-14 0 6.83932e-16
1132 14 0.001 -0.0104934 -0.00163379 -0.0427853 -1.0555e-12 -4.39184e-12 -7.684e-13 0 6.86946e-16
1527 16 0.001 0.00899358 -0.00245069 -0.0425255 -2.01833e-12 -3.40753e-12 4.20201e-14 0 6.83932e-16
1528 16 0.001 0.00950664 -0.00163379 -0.0427853 -1.05535e-12 -4.38759e-12 -7.69253e-13 0 6.86946e-16
1923 18 0.001 0.0289936 -0.00245069 -0.0425255 -2.0176e-12 -3.41325e-12 4.38634e-14 0 6.83932e-16
1924 18 0.001 0.0295066 -0.00163379 -0.0427853 -1.07369e-12 -4.38573e-12 -7.67518e-13 0 6.86946e-16
353 11 0.001 -0.056227 -0.0031573 -0.0409478 -3.47788e-12 4.05101e-12 -2.26994e-12 0 2.32814e-15
354 11 0.001 -0.0553777 -0.00361189 -0.0412124 -3.92478e-12 2.84781e-12 -1.34562e-12 0 1.87554e-15
729 12 0.001 -0.036227 -0.0031573 -0.0409478 -3.50404e-12 4.03626e-12 -2.26976e-12 0 2.32814e-15
730 12 0.001 -0.0353777 -0.00361189 -0.0412124 -3.95275e-12 2.85942e-12 -1.33608e-12 0 1.87554e-15
1125 14 0.001 -0.016227 -0.0031573 -0.0409478 -3.56897e-12 4.0243e-12 -2.25601e-12 0 2.32814e-15
1126 14 0.001 -0.0153777 -0.00361189 -0.0412124 -3.8843e-12 2.87021e-12 -1.35259e-12 0 1.87554e-15
1521 16 0.001 0.00377303 -0.0031573 -0.0409478 -3.53565e-12 4.0318e-12 -2.26146e-12 0 2.32814e-15
1522 16 0.001 0.00462235 -0.00361189 -0.0412124 -3.91174e-12 2.86492e-12 -1.34642e-12 0 1.87554e-15
1917 18 0.001 0.023773 -0.0031573 -0.0409478 -3.56896e-12 4.02788e-12 -2.25526e-12 0 2.32814e-15
1918 18 0.001 0.0246223 -0.00361189 -0.0412124 -3.86592e-12 2.86717e-12 -1.35731e-12 0 1.87554e-15
351 11 0.001 -0.0574642 -0.00169977 -0.0404194 -1.9387e-12 5.62554e-12 -3.44857e-12 0 3.19873e-15
352 11 0.001 -0.0569372 -0.00250642 -0.0406834 -2.97024e-12 4.96242e-12 -3.0033e-12 0 2.78483e-15
727 12 0.001 -0.0374642 -0.00169977 -0.0404194 -2.01517e-12 5.6312e-12 -3.43854e-12 0 3.19873e-15
728 12 0.001 -0.0369372 -0.00250642 -0.0406834 -2.88061e-12 4.95878e-12 -3.018e-12 0 2.78483e-15
1123 14 0.001 -0.0174642 -0.00169977 -0.0404194 -2.04794e-12 5.61484e-12 -3.43771e-12 0 3.19873e-15
1124 14 0.001 -0.0169372 -0.00250642 -0.0406834 -2.83899e-12 4.97603e-12 -3.02277e-12 0 2.78483e-15
1519 16 0.001 0.00253584 -0.00169977 -0.0404194 -2.00896e-12 5.62671e-12 -3.43954e-12 0 3.19873e-15
1520 16 0.001 0.00306278 -0.00250642 -0.0406834 -2.88022e-12 4.96306e-12 -3.01867e-12 0 2.78483e-15
1915 18 0.001 0.0225358 -0.00169977 -0.0404194 -2.02999e-12 5.62229e-12 -3.43845e-12 0 3.19873e-15
1916 18 0.001 0.0230628 -0.00250642 -0.0406834 -2.86121e-12 4.97161e-12 -3.0198e-12 0 2.78483e-15
350 11 0.001 -0.0577749 -0.000787595 -0.040156 -1.05119e-12 5.9325e-12 -3.46208e-12 0 3.53022e-15
726 12 0.001 -0.0377749 -0.000787595 -0.040156 -9.92816e-13 5.93338e-12 -3.46331e-12 0 3.53022e-15
1122 14 0.001 -0.0177749 -0.000787595 -0.040156 -9.59645e-13 5.94189e-12 -3.46328e-12 0 3.53022e-15
1518 16 0.001 0.00222507 -0.000787595 -0.040156 -9.91851e-13 5.93901e-12 -3.46234e-12 0 3.53022e-15
1914 18 0.001 0.0222251 -0.000787595 -0.040156 -9.72258e-13 5.93939e-12 -3.46373e-12 0 3.53022e-15
348 11 0.001 -0.057685 0.00112285 -0.0396303 1.02046e-12 5.45065e-12 -2.42297e-12 0 3.87427e-15
349 11 0.001 -0.0578501 0.000173247 -0.0398931 1.83757e-13 5.87513e-12 -3.09079e-12 0 3.75625e-15
724 12 0.001 -0.037685 0.00112285 -0.0396303 1.09214e-12 5.44861e-12 -2.41727e-12 0 3.87427e-15
725 12 0.001 -0.0378501 0.000173247 -0.0398931 1.12511e-13 5.87614e-12 -3.09334e-12 0 3.75625e-15
1120 14 0.001 -0.017685 0.00112285 -0.0396303 1.14729e-12 5.45492e-12 -2.4121e-12 0 3.87427e-15
1121 14 0.001 -0.0178501 0.000173247 -0.0398931 6.24309e-14 5.87516e-12 -3.09486e-12 0 3.75625e-15
1516 16 0.001 0.00231496 0.00112285 -0.0396303 1.12933e-12 5.45777e-12 -2.41288e-12 0 3.87427e-15
1517 16 0.001 0.00214987 0.000173247 -0.0398931 8.71313e-14 5.87141e-12 -3.09545e-12 0 3.75625e-15
1912 18 0.001 0.022315 0.00112285 -0.0396303 1.12644e-12 5.45596e-12 -2.41325e-12 0 3.87427e-15
1913 18 0.001 0.0221499 0.000173247 -0.0398931 8.37335e-14 5.86971e-12 -3.09526e-12 0 3.75625e-15
347 11 0.001 -0.05729 0.00200198 -0.0393675 2.09375e-12 4.74939e-12 -1.56558e-12 0 3.90006e-15
346 11 0.001 -0.0566896 0.00275581 -0.0391043 2.8556e-12 3.81236e-12 -7.16431e-13 0 3.86125e-15
722 12 0.001 -0.0366896 0.00275581 -0.0391043 2.85509e-12 3.80554e-12 -7.1567e-13 0 3.86125e-15
723 12 0.001 -0.03729 0.00200198 -0.0393675 2.05542e-12 4.75605e-12 -1.56938e-12 0 3.90006e-15
1118 14 0.001 -0.0166896 0.00275581 -0.0391043 2.81875e-12 3.79825e-12 -7.25458e-13 0 3.86125e-15
1119 14 0.001 -0.01729 0.00200198 -0.0393675 2.04534e-12 4.75301e-12 -1.56938e-12 0 3.90006e-15
1515 16 0.001 0.00271003 0.00200198 -0.0393675 2.06234e-12 4.75365e-12 -1.5668e-12 0 3.90006e-15
1514 16 0.001 0.00331043 0.00275581 -0.0391043 2.81214e-12 3.80241e-12 -7.25648e-13 0 3.86125e-15
1910 18 0.001 0.0233104 0.00275581 -0.0391043 2.82726e-12 3.8014e-12 -7.23281e-13 0 3.86125e-15
1911 18 0.001 0.02271 0.00200198 -0.0393675 2.04951e-12 4.75521e-12 -1.56882e-12 0 3.90006e-15
345 11 0.001 -0.0559213 0.00333737 -0.0388405 3.36602e-12 2.68576e-12 -5.6724e-14 0 3.78935e-15
344 11 0.001 -0.0550331 0.00371043 -0.038576 3.66994e-12 1.47842e-12 3.14615e-13 0 3.71294e-15
720 12 0.001 -0.0350331 0.00371043 -0.038576 3.66183e-12 1.46801e-12 3.15269e-13 0 3.71294e-15
721 12 0.001 -0.0359213 0.00333737 -0.0388405 3.37088e-12 2.69132e-12 -5.93552e-14 0 3.78935e-15
1117 14 0.001 -0.0159213 0.00333737 -0.0388405 3.37707e-12 2.69248e-12 -5.73739e-14 0 3.78935e-15
1116 14 0.001 -0.0150331 0.00371043 -0.038576 3.72249e-12 1.46926e-12 3.30796e-13 0 3.71294e-15
1513 16 0.001 0.00407869 0.00333737 -0.0388405 3.3732e-12 2.68433e-12 -5.97417e-14 0 3.78935e-15
1512 16 0.001 0.00496687 0.00371043 -0.038576 3.71629e-12 1.47242e-12 3.30094e-13 0 3.71294e-15
1908 18 0.001 0.0249669 0.00371043 -0.038576 3.72377e-12 1.47404e-12 3.32259e-13 0 3.71294e-15
1909 18 0.001 0.0240787 0.00333737 -0.0388405 3.37044e-12 2.68607e-12 -5.98758e-14 0 3.78935e-15
338 11 0.001 -0.0503624 0.00128608 -0.0369783 1.21895e-12 -4.61037e-12 -2.10129e-12 0 3.81695e-15
714 12 0.001 -0.0303624 0.00128608 -0.0369783 1.22876e-12 -4.60695e-12 -2.10056e-12 0 3.81695e-15
1110 14 0.001 -0.0103624 0.00128608 -0.0369783 1.20522e-12 -4.60563e-12 -2.10318e-12 0 3.81695e-15
1506 16 0.001 0.00963761 0.00128608 -0.0369783 1.20951e-12 -4.60803e-12 -2.10243e-12 0 3.81695e-15
1902 18 0.001 0.0296376 0.00128608 -0.0369783 1.18516e-12 -4.60389e-12 -2.10579e-12 0 3.81695e-15
340 11 0.001 -0.051427 0.00287246 -0.0375115 2.91043e-12 -3.22143e-12 -1.03951e-12 0 3.66711e-15
339 11 0.001 -0.0507948 0.00214631 -0.0372448 2.11334e-12 -4.05924e-12 -1.64422e-12 0 3.73237e-15
715 12 0.001 -0.0307948 0.00214631 -0.0372448 2.09177e-12 -4.05649e-12 -1.64824e-12 0 3.73237e-15
716 12 0.001 -0.031427 0.00287246 -0.0375115 2.93137e-12 -3.22589e-12 -1.03441e-12 0 3.66711e-15
1111 14 0.001 -0.0107948 0.00214631 -0.0372448 2.13761e-12 -4.05124e-12 -1.64377e-12 0 3.73237e-15
1112 14 0.001 -0.011427 0.00287246 -0.0375115 2.88203e-12 -3.23115e-12 -1.0402e-12 0 3.66711e-15
1508 16 0.001 0.00857304 0.00287246 -0.0375115 2.86821e-12 -3.2321e-12 -1.04304e-12 0 3.66711e-15
1507 16 0.001 0.00920516 0.00214631 -0.0372448 2.14265e-12 -4.05066e-12 -1.64289e-12 0 3.73237e-15
1903 18 0.001 0.0292052 0.00214631 -0.0372448 2.15026e-12 -4.05572e-12 -1.64127e-12 0 3.73237e-15
1904 18 0.001 0.028573 0.00287246 -0.0375115 2.89628e-12 -3.23253e-12 -1.0369e-12 0 3.66711e-15
343 11 0.001 -0.0540804 0.00385177 -0.0383107 3.89096e-12 2.12966e-13 3.86228e-13 0 3.6535e-15
342 11 0.001 -0.0531226 0.00375265 -0.0380447 3.75147e-12 -1.02628e-12 9.66979e-14 0 3.62391e-15
341 11 0.001 -0.0522193 0.00341928 -0.0377782 3.4335e-12 -2.19727e-12 -4.10986e-13 0 3.629e-15
719 12 0.001 -0.0340804 0.00385177 -0.0383107 3.92694e-12 2.18976e-13 3.9478e-13 0 3.6535e-15
718 12 0.001 -0.0331226 0.00375265 -0.0380447 3.72571e-12 -1.02367e-12 8.9939e-14 0 3.62391e-15
717 12 0.001 -0.0322193 0.00341928 -0.0377782 3.42372e-12 -2.19618e-12 -4.13671e-13 0 3.629e-15
1115 14 0.001 -0.0140804 0.00385177 -0.0383107 3.86447e-12 2.21328e-13 3.7815e-13 0 3.6535e-15
1113 14 0.001 -0.0122193 0.00341928 -0.0377782 3.44563e-12 -2.19857e-12 -4.11103e-13 0 3.629e-15
1114 14 0.001 -0.0131226 0.00375265 -0.0380447 3.74502e-12 -1.02306e-12 9.6038e-14 0 3.62391e-15
1511 16 0.001 0.00591957 0.00385177 -0.0383107 3.87336e-12 2.19874e-13 3.79752e-13 0 3.6535e-15
1510 16 0.001 0.0068774 0.00375265 -0.0380447 3.73965e-12 -1.02375e-12 9.54703e-14 0 3.62391e-15
1509 16 0.001 0.00778065 0.00341928 -0.0377782 3.45769e-12 -2.19432e-12 -4.09128e-13 0 3.629e-15
1907 18 0.001 0.0259196 0.00385177 -0.0383107 3.86748e-12 2.17388e-13 3.78049e-13 0 3.6535e-15
1906 18 0.001 0.0268774 0.00375265 -0.0380447 3.74149e-12 -1.01518e-12 9.49717e-14 0 3.62391e-15
1905 18 0.001 0.0277807 0.00341928 -0.0377782 3.43284e-12 -2.20251e-12 -4.13603e-13 0 3.629e-15
333 11 0.001 -0.0516348 -0.00305022 -0.0356517 -3.20147e-12 -2.86815e-12 -1.17853e-12 0 4.34622e-15
709 12 0.001 -0.0316348 -0.00305022 -0.0356517 -3.19226e-12 -2.85988e-12 -1.18242e-12 0 4.34622e-15
1105 14 0.001 -0.0116348 -0.00305022 -0.0356517 -3.18721e-12 -2.8763e-12 -1.18034e-12 0 4.34622e-15
1501 16 0.001 0.00836516 -0.00305022 -0.0356517 -3.22454e-12 -2.85922e-12 -1.17436e-12 0 4.34622e-15
1897 18 0.001 0.0283652 -0.00305022 -0.0356517 -3.18981e-12 -2.85273e-12 -1.18578e-12 0 4.34622e-15
334 11 0.001 -0.0509532 -0.0023695 -0.0359163 -2.5886e-12 -3.72672e-12 -1.63281e-12 0 4.23064e-15
335 11 0.001 -0.0504615 -0.00154121 -0.0361812 -1.72804e-12 -4.38159e-12 -2.04604e-12 0 4.12132e-15
710 12 0.001 -0.0309532 -0.0023695 -0.0359163 -2.56654e-12 -3.73339e-12 -1.63443e-12 0 4.23064e-15
711 12 0.001 -0.0304615 -0.00154121 -0.0361812 -1.75592e-12 -4.37548e-12 -2.04431e-12 0 4.12132e-15
1106 14 0.001 -0.0109532 -0.0023695 -0.0359163 -2.59324e-12 -3.7176e-12 -1.63346e-12 0 4.23064e-15
1107 14 0.001 -0.0104615 -0.00154121 -0.0361812 -1.7352e-12 -4.38524e-12 -2.04491e-12 0 4.12132e-15
1502 16 0.001 0.00904678 -0.0023695 -0.0359163 -2.54216e-12 -3.73541e-12 -1.6393e-12 0 4.23064e-15
1503 16 0.001 0.0095385 -0.00154121 -0.0361812 -1.77307e-12 -4.37316e-12 -2.04258e-12 0 4.12132e-15
1898 18 0.001 0.0290468 -0.0023695 -0.0359163 -2.55836e-12 -3.73785e-12 -1.63428e-12 0 4.23064e-15
1899 18 0.001 0.0295385 -0.00154121 -0.0361812 -1.75992e-12 -4.37227e-12 -2.04451e-12 0 4.12132e-15
336 11 0.001 -0.0501903 -0.000617025 -0.0364465 -8.25e-13 -4.77924e-12 -2.29498e-12 0 4.01563e-15
712 12 0.001 -0.0301903 -0.000617025 -0.0364465 -8.14911e-13 -4.77912e-12 -2.29611e-12 0 4.01563e-15
1108 14 0.001 -0.0101903 -0.000617025 -0.0364465 -8.15813e-13 -4.77663e-12 -2.2962e-12 0 4.01563e-15
1504 16 0.001 0.00980967 -0.000617025 -0.0364465 -7.97967e-13 -4.77762e-12 -2.29736e-12 0 4.01563e-15
1900 18 0.001 0.0298097 -0.000617025 -0.0364465 -8.14689e-13 -4.78025e-12 -2.29594e-12 0 4.01563e-15
337 11 0.001 -0.0501566 0.000345416 -0.0367121 2.15436e-13 -4.84616e-12 -2.32748e-12 0 3.91325e-15
713 12 0.001 -0.0301566 0.000345416 -0.0367121 2.16872e-13 -4.85349e-12 -2.32568e-12 0 3.91325e-15
1109 14 0.001 -0.0101566 0.000345416 -0.0367121 2.17917e-13 -4.853e-12 -2.32537e-12 0 3.91325e-15
1505 16 0.001 0.0098434 0.000345416 -0.0367121 2.09755e-13 -4.85491e-12 -2.32499e-12 0 3.91325e-15
1901 18 0.001 0.0298434 0.000345416 -0.0367121 2.28327e-13 -4.85123e-12 -2.32533e-12 0 3.91325e-15
328 11 0.001 -0.0561526 -0.00320332 -0.034329 -3.08679e-12 2.30745e-12 -7.09435e-13 0 5.1173e-15
329 11 0.001 -0.0552923 -0.00363676 -0.0345937 -3.5233e-12 1.33743e-12 -4.90747e-13 0 4.93532e-15
330 11 0.001 -0.0543514 -0.00384362 -0.0348583 -3.82544e-12 2.90669e-13 -3.97475e-13 0 4.76558e-15
331 11 0.001 -0.0533886 -0.00381099 -0.0351227 -3.82247e-12 -7.92608e-13 -4.97915e-13 0 4.61096e-15
332 11 0.001 -0.0524639 -0.00354092 -0.0353872 -3.60367e-12 -1.87258e-12 -7.77364e-13 0 4.47183e-15
704 12 0.001 -0.0361526 -0.00320332 -0.034329 -3.05172e-12 2.30563e-12 -7.16522e-13 0 5.1173e-15
705 12 0.001 -0.0352923 -0.00363676 -0.0345937 -3.5269e-12 1.328e-12 -4.9383e-13 0 4.93532e-15
706 12 0.001 -0.0343514 -0.00384362 -0.0348583 -3.86451e-12 3.01169e-13 -3.8324e-13 0 4.76558e-15
707 12 0.001 -0.0333886 -0.00381099 -0.0351227 -3.78938e-12 -7.9342e-13 -5.08295e-13 0 4.61096e-15
708 12 0.001 -0.0324639 -0.00354092 -0.0353872 -3.62924e-12 -1.87753e-12 -7.70165e-13 0 4.47183e-15
1100 14 0.001 -0.0161526 -0.00320332 -0.034329 -3.08769e-12 2.29532e-12 -7.12265e-13 0 5.1173e-15
1101 14 0.001 -0.0152923 -0.00363676 -0.0345937 -3.55356e-12 1.34353e-12 -4.8313e-13 0 4.93532e-15
1102 14 0.001 -0.0143514 -0.00384362 -0.0348583 -3.82035e-12 2.9636e-13 -3.96404e-13 0 4.76558e-15
1104 14 0.001 -0.0124639 -0.00354092 -0.0353872 -3.6243e-12 -1.87348e-12 -7.7167e-13 0 4.47183e-15
1103 14 0.001 -0.0133886 -0.00381099 -0.0351227 -3.80145e-12 -7.92912e-13 -5.05548e-13 0 4.61096e-15
1496 16 0.001 0.00384742 -0.00320332 -0.034329 -3.08025e-12 2.29754e-12 -7.12175e-13 0 5.1173e-15
1497 16 0.001 0.00470772 -0.00363676 -0.0345937 -3.55877e-12 1.34448e-12 -4.83458e-13 0 4.93532e-15
1498 16 0.001 0.00564859 -0.00384362 -0.0348583 -3.81151e-12 2.94486e-13 -3.97865e-13 0 4.76558e-15
1499 16 0.001 0.0066114 -0.00381099 -0.0351227 -3.80884e-12 -7.93083e-13 -5.0352e-13 0 4.61096e-15
1500 16 0.001 0.00753614 -0.00354092 -0.0353872 -3.61142e-12 -1.88145e-12 -7.74377e-13 0 4.47183e-15
1892 18 0.001 0.0238474 -0.00320332 -0.034329 -3.07216e-12 2.2926e-12 -7.14824e-13 0 5.1173e-15
1893 18 0.001 0.0247077 -0.00363676 -0.0345937 -3.59738e-12 1.34349e-12 -4.72703e-13 0 4.93532e-15
1894 18 0.001 0.0256486 -0.00384362 -0.0348583 -3.77748e-12 3.0197e-13 -4.07816e-13 0 4.76558e-15
1895 18 0.001 0.0266114 -0.00381099 -0.0351227 -3.79206e-12 -7.97687e-13 -5.08173e-13 0 4.61096e-15
1896 18 0.001 0.0275361 -0.00354092 -0.0353872 -3.65813e-12 -1.88625e-12 -7.60167e-13 0 4.47183e-15
327 11 0.001 -0.0568787 -0.00257031 -0.0340643 -2.49179e-12 3.11402e-12 -9.92588e-13 0 5.30642e-15
703 12 0.001 -0.0368787 -0.00257031 -0.0340643 -2.50853e-12 3.11101e-12 -9.89723e-13 0 5.30642e-15
1099 14 0.001 -0.0168787 -0.00257031 -0.0340643 -2.44508e-12 3.11856e-12 -9.98309e-13 0 5.30642e-15