ITEM: TIMESTEP
9800000
ITEM: NUMBER OF ATOMS
1970
ITEM: BOX BOUNDS ff ff ff
-6.0000000000000005e-02 6.0000000000000005e-02
-6.0000000000000001e-03 6.0000000000000001e-03
-5.5000000000000000e-02 5.5000000000000000e-02
ITEM: ATOMS id type radius x y z fx fy fz c_bendingE c_stretchingE
384 11 0.001 -0.0508077 -0.00264373 -0.0490018 7.90432e-14 3.22907e-14 -6.90723e-15 0 1.53535e-17
385 11 0.001 -0.050312 -0.00183846 -0.0493241 -2.48982e-13 4.86057e-14 3.51686e-14 0 1.01547e-14
760 12 0.001 -0.0308065 -0.00264362 -0.0490005 -1.44754e-13 2.37655e-14 1.86615e-14 0 1.44468e-17
761 12 0.001 -0.0303112 -0.00183827 -0.0493232 -6.29466e-14 4.26237e-14 1.40699e-14 0 1.00261e-14
1156 14 0.001 -0.0108065 -0.00264362 -0.0490005 -1.22362e-13 1.47929e-14 1.89314e-14 0 1.44468e-17
1157 14 0.001 -0.0103112 -0.00183827 -0.0493232 -7.71007e-14 5.55841e-14 9.41519e-15 0 1.00261e-14
1552 16 0.001 0.00919351 -0.00264362 -0.0490005 -1.17397e-13 2.02057e-14 1.69191e-14 0 1.44468e-17
1553 16 0.001 0.0096888 -0.00183827 -0.0493232 -8.28918e-14 5.31229e-14 1.07737e-14 0 1.00261e-14
1948 18 0.001 0.0291935 -0.00264362 -0.0490005 -1.4716e-13 2.20577e-14 2.12229e-14 0 1.44468e-17
1949 18 0.001 0.0296888 -0.00183827 -0.0493232 -6.74564e-14 5.31649e-14 8.91216e-15 0 1.00261e-14
2 2 0.001 -0.05 -4.31175e-17 -0.05 -2.00135e-06 2.13542e-06 1.77886e-06 0 9.28681e-15
386 11 0.001 -0.0500372 -0.000938061 -0.0496584 4.81985e-14 -1.4953e-14 1.90372e-14 0 1.94398e-14
762 12 0.001 -0.0300368 -0.000937905 -0.0496579 -4.69714e-14 -8.54045e-15 2.04204e-14 0 1.9163e-14
4 4 0.001 -0.03 -4.31175e-17 -0.05 -2.04915e-06 2.23283e-06 1.76325e-06 0 9.14025e-15
6 6 0.001 -0.01 -4.31175e-17 -0.05 -2.04915e-06 2.23283e-06 1.76325e-06 0 9.14025e-15
1158 14 0.001 -0.0100368 -0.000937905 -0.0496579 -3.74304e-14 -1.50986e-14 2.31576e-14 0 1.9163e-14
8 8 0.001 0.01 -4.31175e-17 -0.05 -2.04915e-06 2.23283e-06 1.76325e-06 0 9.14025e-15
1554 16 0.001 0.00996323 -0.000937905 -0.0496579 -3.32766e-14 -1.5863e-14 2.33075e-14 0 1.9163e-14
10 10 0.001 0.03 -4.31175e-17 -0.05 -2.04915e-06 2.23283e-06 1.76325e-06 0 9.14025e-15
1950 18 0.001 0.0299632 -0.000937905 -0.0496579 -3.97683e-14 -1.69352e-14 2.39908e-14 0 1.9163e-14
379 11 0.001 -0.0551668 -0.00380579 -0.0476503 -1.54811e-13 1.90687e-13 -1.20159e-13 0 6.27358e-16
380 11 0.001 -0.0542228 -0.00403278 -0.0478857 -2.01867e-13 1.4058e-13 -7.71368e-14 0 5.42886e-16
381 11 0.001 -0.053256 -0.00402066 -0.0481371 -2.17196e-13 1.33666e-13 -4.84304e-14 0 3.94906e-16
382 11 0.001 -0.0523269 -0.0037715 -0.0484067 -1.2584e-13 7.95659e-14 -2.41993e-14 0 2.25114e-16
383 11 0.001 -0.0514935 -0.00330226 -0.0486952 -2.54311e-13 8.80344e-14 1.4804e-14 0 8.41398e-17
755 12 0.001 -0.0351651 -0.00380708 -0.0476486 -1.89085e-13 1.95736e-13 -1.16937e-13 0 6.40994e-16
756 12 0.001 -0.034221 -0.00403374 -0.0478839 -2.36571e-13 1.58539e-13 -7.42414e-14 0 5.49953e-16
757 12 0.001 -0.0332543 -0.00402129 -0.0481353 -1.49749e-13 1.24078e-13 -7.10086e-14 0 3.94992e-16
758 12 0.001 -0.0323252 -0.00377182 -0.048405 -1.64626e-13 1.09269e-13 -3.45076e-14 0 2.20094e-16
759 12 0.001 -0.031492 -0.00330233 -0.0486937 -1.31152e-13 5.61875e-14 -2.13346e-15 0 7.82459e-17
1151 14 0.001 -0.0151651 -0.00380708 -0.0476486 -1.95559e-13 1.94062e-13 -1.14733e-13 0 6.40994e-16
1152 14 0.001 -0.014221 -0.00403374 -0.0478839 -1.77154e-13 1.50081e-13 -8.88876e-14 0 5.49953e-16
1153 14 0.001 -0.0132543 -0.00402129 -0.0481353 -2.03337e-13 1.31072e-13 -5.83214e-14 0 3.94992e-16
1154 14 0.001 -0.0123252 -0.00377182 -0.048405 -1.48592e-13 9.68979e-14 -3.53516e-14 0 2.20094e-16
1155 14 0.001 -0.011492 -0.00330233 -0.0486937 -1.52732e-13 6.81318e-14 -1.1914e-15 0 7.82459e-17
1547 16 0.001 0.00483489 -0.00380708 -0.0476486 -1.94585e-13 1.83262e-13 -1.15688e-13 0 6.40994e-16
1548 16 0.001 0.00577897 -0.00403374 -0.0478839 -2.09159e-13 1.57237e-13 -7.9687e-14 0 5.49953e-16
1549 16 0.001 0.00674575 -0.00402129 -0.0481353 -1.67386e-13 1.3695e-13 -6.98989e-14 0 3.94992e-16
1550 16 0.001 0.00767476 -0.00377182 -0.048405 -1.64536e-13 9.19492e-14 -2.9773e-14 0 2.20094e-16
1551 16 0.001 0.00850798 -0.00330233 -0.0486937 -1.52694e-13 6.35525e-14 -5.61627e-16 0 7.82459e-17
1943 18 0.001 0.0248349 -0.00380708 -0.0476486 -1.90092e-13 1.83626e-13 -1.15589e-13 0 6.40994e-16
1944 18 0.001 0.025779 -0.00403374 -0.0478839 -1.87077e-13 1.67209e-13 -8.7187e-14 0 5.49953e-16
1945 18 0.001 0.0267457 -0.00402129 -0.0481353 -1.94766e-13 1.17428e-13 -5.92977e-14 0 3.94992e-16
1946 18 0.001 0.0276748 -0.00377182 -0.048405 -1.58615e-13 1.10302e-13 -3.56451e-14 0 2.20094e-16
1947 18 0.001 0.028508 -0.00330233 -0.0486937 -1.27118e-13 5.56582e-14 -3.30128e-15 0 7.82459e-17
378 11 0.001 -0.0560289 -0.0033528 -0.0474274 -1.7562e-13 2.21966e-13 -1.26104e-13 0 6.27845e-16
754 12 0.001 -0.0360274 -0.00335439 -0.047426 -1.58704e-13 2.13574e-13 -1.31533e-13 0 6.45998e-16
1150 14 0.001 -0.0160274 -0.00335439 -0.047426 -1.91486e-13 2.16195e-13 -1.27111e-13 0 6.45998e-16
1546 16 0.001 0.00397262 -0.00335439 -0.047426 -1.70927e-13 2.18112e-13 -1.31626e-13 0 6.45998e-16
1942 18 0.001 0.0239726 -0.00335439 -0.047426 -1.97933e-13 2.18073e-13 -1.26367e-13 0 6.45998e-16
376 11 0.001 -0.0573003 -0.00189114 -0.0470018 -2.39646e-13 2.71328e-13 -1.13296e-13 0 4.18656e-16
377 11 0.001 -0.0567551 -0.00270124 -0.0472128 -1.24501e-13 2.31616e-13 -1.39292e-13 0 5.49494e-16
753 12 0.001 -0.0367539 -0.00270308 -0.0472116 -2.02795e-13 2.30678e-13 -1.34644e-13 0 5.69367e-16
752 12 0.001 -0.0372994 -0.00189315 -0.0470008 -8.21538e-14 2.81908e-13 -1.27011e-13 0 4.37536e-16
1149 14 0.001 -0.0167539 -0.00270308 -0.0472116 -1.48114e-13 2.42599e-13 -1.39821e-13 0 5.69367e-16
1148 14 0.001 -0.0172994 -0.00189315 -0.0470008 -1.29461e-13 2.59491e-13 -1.25565e-13 0 4.37536e-16
1544 16 0.001 0.00270056 -0.00189315 -0.0470008 -1.43179e-13 2.59981e-13 -1.25384e-13 0 4.37536e-16
1545 16 0.001 0.00324608 -0.00270308 -0.0472116 -1.56768e-13 2.44084e-13 -1.37213e-13 0 5.69367e-16
1941 18 0.001 0.0232461 -0.00270308 -0.0472116 -1.4216e-13 2.40612e-13 -1.40592e-13 0 5.69367e-16
1940 18 0.001 0.0227006 -0.00189315 -0.0470008 -1.27864e-13 2.61105e-13 -1.25627e-13 0 4.37536e-16
375 11 0.001 -0.0576306 -0.000972518 -0.0467896 1.11751e-14 2.32304e-13 -1.19524e-13 0 2.72012e-16
374 11 0.001 -0.0577259 -2.20636e-06 -0.0465718 -1.27657e-13 2.87278e-13 -6.98261e-14 0 1.43723e-16
751 12 0.001 -0.0376301 -0.000974614 -0.0467888 -1.5913e-13 2.28715e-13 -1.15089e-13 0 2.87825e-16
750 12 0.001 -0.0377258 -4.29173e-06 -0.0465713 -8.89053e-15 2.70285e-13 -7.37179e-14 0 1.55284e-16
1147 14 0.001 -0.0176301 -0.000974614 -0.0467888 -1.22901e-13 2.47202e-13 -1.13486e-13 0 2.87825e-16
1146 14 0.001 -0.0177258 -4.29173e-06 -0.0465713 -6.16593e-14 2.64447e-13 -7.62234e-14 0 1.55284e-16
1543 16 0.001 0.00236985 -0.000974614 -0.0467888 -1.03235e-13 2.43637e-13 -1.14395e-13 0 2.87825e-16
1542 16 0.001 0.00227416 -4.29173e-06 -0.0465713 -6.61873e-14 2.72058e-13 -7.43411e-14 0 1.55284e-16
1939 18 0.001 0.0223699 -0.000974614 -0.0467888 -1.31483e-13 2.4673e-13 -1.13309e-13 0 2.87825e-16
1938 18 0.001 0.0222742 -4.29173e-06 -0.0465713 -5.37341e-14 2.68346e-13 -7.52722e-14 0 1.55284e-16
373 11 0.001 -0.0575807 0.000959807 -0.0463449 -1.0127e-13 2.42277e-13 -4.61522e-14 0 5.53544e-17
749 12 0.001 -0.0375811 0.00095783 -0.0463445 -7.26473e-14 2.64209e-13 -3.69743e-14 0 6.23513e-17
1145 14 0.001 -0.0175811 0.00095783 -0.0463445 -2.36233e-14 2.65823e-13 -3.36823e-14 0 6.23513e-17
1541 16 0.001 0.00241887 0.00095783 -0.0463445 -3.20475e-14 2.58104e-13 -3.62052e-14 0 6.23513e-17
1937 18 0.001 0.0224189 0.00095783 -0.0463445 -2.68758e-14 2.62874e-13 -3.46257e-14 0 6.23513e-17
372 11 0.001 -0.0572049 0.00185415 -0.0461063 1.16511e-13 2.01494e-13 2.00538e-14 0 1.1697e-17
748 12 0.001 -0.0372057 0.00185238 -0.0461062 -4.3227e-14 2.02363e-13 -5.26882e-15 0 1.45186e-17
1144 14 0.001 -0.0172057 0.00185238 -0.0461062 -2.9857e-14 2.03077e-13 -2.00358e-16 0 1.45186e-17
1540 16 0.001 0.00279431 0.00185238 -0.0461062 -3.31438e-14 2.06429e-13 -4.19008e-16 0 1.45186e-17
1936 18 0.001 0.0227943 0.00185238 -0.0461062 -2.89912e-14 2.03318e-13 5.1108e-16 0 1.45186e-17
371 11 0.001 -0.0566224 0.00262579 -0.0458548 -6.52326e-14 2.19924e-13 3.86168e-14 0 3.04414e-18
747 12 0.001 -0.0366235 0.00262431 -0.0458547 8.75041e-14 1.93064e-13 5.78214e-14 0 2.55602e-18
1143 14 0.001 -0.0166235 0.00262431 -0.0458547 2.16488e-14 1.99568e-13 4.40384e-14 0 2.55602e-18
1539 16 0.001 0.00337649 0.00262431 -0.0458547 3.55189e-14 1.9889e-13 4.61893e-14 0 2.55602e-18
1935 18 0.001 0.0233765 0.00262431 -0.0458547 2.69997e-14 2.02582e-13 4.42211e-14 0 2.55602e-18
370 11 0.001 -0.05587 0.00322736 -0.0455902 -1.15498e-16 1.16819e-13 6.56479e-14 0 1.207e-17
369 11 0.001 -0.054995 0.00362213 -0.0453134 4.56525e-14 1.19695e-13 1.05786e-13 0 2.20585e-17
368 11 0.001 -0.0540522 0.00378614 -0.0450266 -9.7244e-15 7.10742e-14 9.97909e-14 0 2.32442e-17
367 11 0.001 -0.0531006 0.00370972 -0.0447322 9.49786e-14 7.3243e-15 1.23837e-13 0 1.52031e-17
745 12 0.001 -0.0349966 0.00362144 -0.0453134 7.49532e-14 9.778e-14 1.10291e-13 0 1.83719e-17
746 12 0.001 -0.0358714 0.00322625 -0.0455901 -2.86215e-14 1.58103e-13 6.36204e-14 0 9.3921e-18
744 12 0.001 -0.0340539 0.00378591 -0.0450265 4.55095e-14 8.73316e-14 1.10151e-13 0 1.96313e-17
743 12 0.001 -0.0331023 0.00370994 -0.0447321 -3.62353e-14 1.03303e-14 7.90274e-14 0 1.25197e-17
1142 14 0.001 -0.0158714 0.00322625 -0.0455901 2.76248e-15 1.36031e-13 6.83869e-14 0 9.3921e-18
1140 14 0.001 -0.0140539 0.00378591 -0.0450265 3.64048e-14 6.57815e-14 1.06818e-13 0 1.96313e-17
1141 14 0.001 -0.0149966 0.00362144 -0.0453134 6.15094e-14 1.193e-13 1.07392e-13 0 1.8372e-17
1139 14 0.001 -0.0131023 0.00370994 -0.0447321 4.13846e-14 1.87774e-14 1.04984e-13 0 1.25197e-17
1538 16 0.001 0.00412861 0.00322625 -0.0455901 9.95863e-15 1.40695e-13 7.25141e-14 0 9.3921e-18
1537 16 0.001 0.0050034 0.00362144 -0.0453134 3.78974e-14 1.1523e-13 9.87554e-14 0 1.8372e-17
1536 16 0.001 0.00594608 0.00378591 -0.0450265 5.00616e-14 6.5336e-14 1.12314e-13 0 1.96313e-17
1535 16 0.001 0.00689769 0.00370994 -0.0447321 4.36175e-14 1.85131e-14 1.04564e-13 0 1.25197e-17
1933 18 0.001 0.0250034 0.00362144 -0.0453134 2.57659e-14 1.16616e-13 9.36394e-14 0 1.8372e-17
1934 18 0.001 0.0241286 0.00322625 -0.0455901 9.95288e-15 1.35634e-13 7.31489e-14 0 9.3921e-18
1932 18 0.001 0.0259461 0.00378591 -0.0450265 5.92634e-14 6.62892e-14 1.16203e-13 0 1.96313e-17
1931 18 0.001 0.0268977 0.00370994 -0.0447321 4.247e-14 1.67844e-14 1.0295e-13 0 1.25197e-17
361 11 0.001 -0.0501401 -0.000577736 -0.0429744 -6.4957e-14 -1.54148e-13 -1.01386e-13 0 1.15005e-16
737 12 0.001 -0.0301399 -0.000576033 -0.0429738 -9.96636e-14 -1.42178e-13 -1.10382e-13 0 1.19245e-16
1133 14 0.001 -0.0101399 -0.000576033 -0.0429738 -9.16831e-14 -1.44021e-13 -1.10802e-13 0 1.19245e-16
1529 16 0.001 0.00986007 -0.000576033 -0.0429738 -8.69201e-14 -1.45587e-13 -1.09991e-13 0 1.19245e-16
1925 18 0.001 0.0298601 -0.000576033 -0.0429738 -9.79474e-14 -1.40909e-13 -1.10879e-13 0 1.19245e-16
362 11 0.001 -0.0501153 0.000380912 -0.0432544 -1.06958e-13 -1.23278e-13 -7.94323e-14 0 7.90704e-17
363 11 0.001 -0.0503297 0.00131336 -0.0435418 7.00848e-15 -1.22262e-13 -2.23477e-14 0 4.20542e-17
738 12 0.001 -0.0301155 0.000382614 -0.0432539 -6.27811e-14 -1.60563e-13 -6.62461e-14 0 8.2991e-17
739 12 0.001 -0.0303303 0.00131495 -0.0435414 -4.02433e-14 -9.98238e-14 -3.65878e-14 0 4.52363e-17
1134 14 0.001 -0.0101155 0.000382614 -0.0432539 -5.11465e-14 -1.63855e-13 -6.39914e-14 0 8.2991e-17
1135 14 0.001 -0.0103303 0.00131495 -0.0435414 -3.98967e-14 -1.01676e-13 -3.53505e-14 0 4.52363e-17
1530 16 0.001 0.00988447 0.000382614 -0.0432539 -5.95607e-14 -1.62892e-13 -6.46645e-14 0 8.2991e-17
1531 16 0.001 0.00966971 0.00131495 -0.0435414 -4.21712e-14 -9.66937e-14 -3.73804e-14 0 4.52363e-17
1926 18 0.001 0.0298845 0.000382614 -0.0432539 -6.37658e-14 -1.61266e-13 -6.57933e-14 0 8.2991e-17
1927 18 0.001 0.0296697 0.00131495 -0.0435414 -4.25132e-14 -1.02212e-13 -3.65046e-14 0 4.52363e-17
365 11 0.001 -0.051406 0.00287075 -0.0441336 2.34228e-14 -5.81619e-14 4.92928e-14 0 2.36886e-18
364 11 0.001 -0.0507692 0.00216103 -0.0438355 -5.91145e-14 -9.01361e-14 1.36457e-14 0 1.44564e-17
740 12 0.001 -0.0307702 0.00216239 -0.0438351 1.4955e-14 -1.00932e-13 1.5548e-14 0 1.64498e-17
741 12 0.001 -0.0314073 0.0028718 -0.0441333 6.5833e-15 -6.90837e-14 5.59196e-14 0 2.82171e-18
1136 14 0.001 -0.0107702 0.00216239 -0.0438351 -1.37686e-14 -9.0112e-14 6.92432e-15 0 1.64498e-17
1137 14 0.001 -0.0114073 0.0028718 -0.0441333 3.76993e-14 -7.44567e-14 6.56755e-14 0 2.82171e-18
1533 16 0.001 0.00859271 0.0028718 -0.0441333 3.8186e-14 -7.16531e-14 6.49538e-14 0 2.82171e-18
1532 16 0.001 0.00922978 0.00216239 -0.0438351 -4.55231e-15 -9.8265e-14 1.0607e-14 0 1.64498e-17
1928 18 0.001 0.0292298 0.00216239 -0.0438351 1.67196e-14 -9.11802e-14 1.34698e-14 0 1.64498e-17
1929 18 0.001 0.0285927 0.0028718 -0.0441333 1.36236e-14 -7.57237e-14 5.98179e-14 0 2.82171e-18
366 11 0.001 -0.0521997 0.00339801 -0.0444335 3.85891e-14 -1.21033e-14 9.78862e-14 0 4.98943e-18
742 12 0.001 -0.0322013 0.00339867 -0.0444333 8.80075e-14 -2.59213e-14 1.03886e-13 0 3.77731e-18
1138 14 0.001 -0.0122013 0.00339867 -0.0444333 2.55735e-14 -1.93877e-14 8.22111e-14 0 3.77731e-18
1534 16 0.001 0.00779872 0.00339867 -0.0444333 1.58444e-14 -1.75676e-14 8.011e-14 0 3.77731e-18
1930 18 0.001 0.0277987 0.00339867 -0.0444333 2.95636e-14 -1.81767e-14 8.51709e-14 0 3.77731e-18
356 11 0.001 -0.0533189 -0.00380072 -0.0416755 -1.81941e-13 -5.50206e-14 -1.07672e-13 0 7.18138e-17
357 11 0.001 -0.052393 -0.00352111 -0.0419257 -1.68168e-13 -1.12053e-13 -1.32913e-13 0 1.0447e-16
358 11 0.001 -0.0515656 -0.00302187 -0.0421791 -1.46929e-13 -1.09221e-13 -1.51108e-13 0 1.31639e-16
732 12 0.001 -0.0333172 -0.00380047 -0.041675 -1.90774e-13 -7.25454e-14 -1.04783e-13 0 7.52562e-17
733 12 0.001 -0.0323914 -0.00352042 -0.0419252 -1.536e-13 -1.003e-13 -1.3718e-13 0 1.08196e-16
734 12 0.001 -0.0315643 -0.0030208 -0.0421786 -1.96881e-13 -1.25267e-13 -1.40733e-13 0 1.35578e-16
1128 14 0.001 -0.0133172 -0.00380047 -0.041675 -1.88e-13 -7.68398e-14 -1.06238e-13 0 7.52562e-17
1129 14 0.001 -0.0123914 -0.00352042 -0.0419252 -1.61498e-13 -8.80989e-14 -1.36835e-13 0 1.08196e-16
1130 14 0.001 -0.0115643 -0.0030208 -0.0421786 -1.6568e-13 -1.25551e-13 -1.46809e-13 0 1.35578e-16
1524 16 0.001 0.00668281 -0.00380047 -0.041675 -1.85225e-13 -7.34143e-14 -1.0742e-13 0 7.52562e-17
1525 16 0.001 0.00760855 -0.00352042 -0.0419252 -1.65447e-13 -9.78435e-14 -1.34802e-13 0 1.08196e-16
1526 16 0.001 0.00843571 -0.0030208 -0.0421786 -1.66908e-13 -1.21263e-13 -1.46912e-13 0 1.35578e-16
1920 18 0.001 0.0266828 -0.00380047 -0.041675 -2.19869e-13 -6.44571e-14 -9.95892e-14 0 7.52562e-17
1921 18 0.001 0.0276086 -0.00352042 -0.0419252 -1.34362e-13 -1.0247e-13 -1.41216e-13 0 1.08196e-16
1922 18 0.001 0.0284357 -0.0030208 -0.0421786 -1.76676e-13 -1.16194e-13 -1.45651e-13 0 1.35578e-16
359 11 0.001 -0.0508883 -0.00233447 -0.0424375 -1.61659e-13 -1.43033e-13 -1.45658e-13 0 1.44942e-16
360 11 0.001 -0.0504031 -0.00150228 -0.0427022 -8.90885e-14 -1.36025e-13 -1.40633e-13 0 1.39204e-16
735 12 0.001 -0.0308873 -0.0023331 -0.0424369 -1.28938e-13 -1.37606e-13 -1.51046e-13 0 1.49068e-16
736 12 0.001 -0.0304025 -0.00150069 -0.0427016 -9.83661e-14 -1.54249e-13 -1.34518e-13 0 1.43464e-16
1131 14 0.001 -0.0108873 -0.0023331 -0.0424369 -1.412e-13 -1.40654e-13 -1.47983e-13 0 1.49068e-16
1132 14 0.001 -0.0104025 -0.00150069 -0.0427016 -1.10517e-13 -1.53213e-13 -1.34418e-13 0 1.43464e-16
1527 16 0.001 0.00911273 -0.0023331 -0.0424369 -1.42485e-13 -1.39781e-13 -1.48358e-13 0 1.49068e-16
1528 16 0.001 0.00959751 -0.00150069 -0.0427016 -1.07352e-13 -1.53179e-13 -1.3474e-13 0 1.43464e-16
1923 18 0.001 0.0291127 -0.0023331 -0.0424369 -1.51492e-13 -1.42018e-13 -1.47214e-13 0 1.49068e-16
1924 18 0.001 0.0295975 -0.00150069 -0.0427016 -9.0162e-14 -1.57107e-13 -1.3463e-13 0 1.43464e-16
353 11 0.001 -0.056101 -0.00322049 -0.0409264 -1.26063e-13 1.04219e-14 -1.07278e-14 0 7.19159e-18
355 11 0.001 -0.0542855 -0.0038431 -0.0414267 -2.01858e-13 -4.38297e-14 -6.81322e-14 0 4.18679e-17
354 11 0.001 -0.0552325 -0.00364557 -0.0411775 -7.42223e-14 -2.90419e-14 -5.80858e-14 0 1.99038e-17
729 12 0.001 -0.0360996 -0.00322153 -0.0409259 -1.30087e-13 1.88322e-14 -1.0964e-14 0 8.88166e-18
730 12 0.001 -0.0352309 -0.0036462 -0.0411769 -1.81228e-13 -6.84405e-15 -3.12648e-14 0 2.23207e-17
731 12 0.001 -0.0342838 -0.00384329 -0.0414261 -1.01913e-13 -3.62788e-14 -9.70621e-14 0 4.48854e-17
1125 14 0.001 -0.0160996 -0.00322153 -0.0409259 -1.38531e-13 1.43482e-15 -1.10461e-14 0 8.88166e-18
1126 14 0.001 -0.0152309 -0.0036462 -0.0411769 -1.59932e-13 8.29397e-16 -3.88148e-14 0 2.23207e-17
1127 14 0.001 -0.0142838 -0.00384329 -0.0414261 -1.44863e-13 -3.91629e-14 -8.29904e-14 0 4.48854e-17
1521 16 0.001 0.0039004 -0.00322153 -0.0409259 -1.19607e-13 8.50256e-15 -1.35326e-14 0 8.88166e-18
1523 16 0.001 0.00571624 -0.00384329 -0.0414261 -1.42071e-13 -3.56636e-14 -8.35535e-14 0 4.48854e-17
1522 16 0.001 0.00476911 -0.0036462 -0.0411769 -1.66246e-13 -5.43892e-15 -3.80973e-14 0 2.23207e-17
1917 18 0.001 0.0239004 -0.00322153 -0.0409259 -6.97257e-14 1.13583e-14 -2.33966e-14 0 8.88167e-18
1918 18 0.001 0.0247691 -0.0036462 -0.0411769 -1.96002e-13 -7.02137e-15 -3.19571e-14 0 2.23207e-17
1919 18 0.001 0.0257162 -0.00384329 -0.0414261 -1.22326e-13 -4.14615e-14 -8.77715e-14 0 4.48854e-17
351 11 0.001 -0.0573948 -0.00180669 -0.0404152 4.06677e-14 8.09547e-14 4.16167e-14 0 2.3274e-19
352 11 0.001 -0.056837 -0.00259449 -0.0406725 -1.46082e-13 3.66451e-14 2.8705e-14 0 1.7415e-18
727 12 0.001 -0.0373941 -0.00180833 -0.0404146 -7.24112e-14 7.25294e-14 4.55282e-14 0 7.36967e-19
728 12 0.001 -0.0368359 -0.00259587 -0.040672 -9.85568e-14 2.96054e-14 1.77489e-14 0 2.72395e-18
1123 14 0.001 -0.0173941 -0.00180833 -0.0404146 -9.87336e-14 6.62869e-14 4.78059e-14 0 7.36967e-19
1124 14 0.001 -0.0168359 -0.00259587 -0.040672 -5.57771e-14 3.63351e-14 1.16661e-14 0 2.72395e-18
1519 16 0.001 0.00260595 -0.00180833 -0.0404146 -7.26124e-14 7.01475e-14 4.5566e-14 0 7.36967e-19
1520 16 0.001 0.00316412 -0.00259587 -0.040672 -8.50585e-14 3.17666e-14 1.55711e-14 0 2.72395e-18
1915 18 0.001 0.0226059 -0.00180833 -0.0404146 -3.39204e-14 7.54731e-14 4.18159e-14 0 7.36967e-19
1916 18 0.001 0.0231641 -0.00259587 -0.040672 -1.32634e-13 2.54745e-14 2.24096e-14 0 2.72395e-18
350 11 0.001 -0.0577399 -0.00090625 -0.0401541 -1.54288e-13 -1.09905e-14 3.70396e-14 0 9.29589e-20
726 12 0.001 -0.0377396 -0.000908053 -0.0401536 -1.60252e-14 3.52139e-14 3.52392e-14 0 5.60372e-19
1122 14 0.001 -0.0177396 -0.000908053 -0.0401536 -5.61525e-16 4.59186e-14 3.81541e-14 0 5.60372e-19
1518 16 0.001 0.00226043 -0.000908053 -0.0401536 -2.35574e-14 4.25797e-14 3.84866e-14 0 5.60372e-19
1914 18 0.001 0.0222604 -0.000908053 -0.0401536 -3.662e-14 4.10479e-14 4.00669e-14 0 5.60372e-19
348 11 0.001 -0.0577215 0.00100452 -0.0396224 5.11829e-14 2.34992e-14 2.69178e-14 0 3.84521e-18
349 11 0.001 -0.057851 5.06911e-05 -0.0398897 7.77675e-14 1.2132e-13 5.95923e-14 0 7.86867e-19
724 12 0.001 -0.0377221 0.00100272 -0.0396219 6.17448e-14 5.66126e-14 3.60566e-14 0 6.01381e-18
725 12 0.001 -0.0378512 4.88322e-05 -0.0398892 1.45399e-14 9.16385e-14 4.89152e-14 0 1.80182e-18
1120 14 0.001 -0.0177221 0.00100272 -0.0396219 5.70783e-14 5.50175e-14 3.35334e-14 0 6.01381e-18
1121 14 0.001 -0.0178512 4.88322e-05 -0.0398892 -1.25603e-14 8.58965e-14 4.69191e-14 0 1.80182e-18
1516 16 0.001 0.00227793 0.00100272 -0.0396219 3.7572e-14 5.5585e-14 3.30336e-14 0 6.01381e-18
1517 16 0.001 0.00214884 4.88322e-05 -0.0398892 1.16447e-14 8.70834e-14 4.75186e-14 0 1.80182e-18
1912 18 0.001 0.0222779 0.00100272 -0.0396219 7.48223e-14 5.72345e-14 3.69731e-14 0 6.01381e-18
1913 18 0.001 0.0221488 4.88322e-05 -0.0398892 -8.92435e-15 8.36627e-14 4.54133e-14 0 1.80182e-18
347 11 0.001 -0.0573595 0.00189582 -0.039353 8.06288e-14 7.55582e-14 1.69205e-14 0 1.17705e-17
346 11 0.001 -0.0567877 0.00266906 -0.0390824 5.19989e-14 5.12749e-14 -2.25877e-14 0 2.64291e-17
722 12 0.001 -0.0367891 0.0026677 -0.0390819 1.29612e-13 3.53172e-14 -1.10054e-14 0 3.21567e-17
723 12 0.001 -0.0373605 0.00189419 -0.0393525 5.57522e-14 7.31166e-14 -1.35969e-15 0 1.55845e-17
1118 14 0.001 -0.0167891 0.0026677 -0.0390819 9.96394e-14 4.0857e-14 -1.39728e-14 0 3.21567e-17
1119 14 0.001 -0.0173605 0.00189419 -0.0393525 9.35692e-14 7.39796e-14 3.75871e-15 0 1.55845e-17
1515 16 0.001 0.0026395 0.00189419 -0.0393525 9.43368e-14 6.75366e-14 2.51684e-16 0 1.55845e-17
1514 16 0.001 0.00321088 0.0026677 -0.0390819 1.26822e-13 4.87439e-14 -4.34588e-15 0 3.21567e-17
1910 18 0.001 0.0232109 0.0026677 -0.0390819 1.39116e-13 2.9454e-14 -5.34673e-15 0 3.21567e-17
1911 18 0.001 0.0226395 0.00189419 -0.0393525 5.69731e-14 7.81094e-14 -3.4685e-15 0 1.55845e-17
345 11 0.001 -0.0560419 0.00327603 -0.0388116 2.1831e-13 -3.00549e-15 -3.46576e-14 0 4.77071e-17
344 11 0.001 -0.0551686 0.00367883 -0.0385412 1.00081e-13 2.74051e-15 -7.70732e-14 0 7.30315e-17
721 12 0.001 -0.0360436 0.00327503 -0.038811 1.38114e-13 2.43842e-14 -5.01748e-14 0 5.53404e-17
720 12 0.001 -0.0351705 0.00367824 -0.0385406 1.47057e-13 -7.05396e-15 -7.6908e-14 0 8.23033e-17
1117 14 0.001 -0.0160436 0.00327503 -0.038811 1.80356e-13 2.25628e-14 -4.12194e-14 0 5.53404e-17
1116 14 0.001 -0.0151705 0.00367824 -0.0385406 1.03934e-13 3.66995e-15 -8.69999e-14 0 8.23033e-17
1513 16 0.001 0.0039564 0.00327503 -0.038811 1.34354e-13 2.24107e-14 -5.40842e-14 0 5.53404e-17
1512 16 0.001 0.00482951 0.00367824 -0.0385406 1.39099e-13 -5.511e-15 -7.70631e-14 0 8.23033e-17
1909 18 0.001 0.0239564 0.00327503 -0.038811 1.60166e-13 4.01287e-14 -4.54629e-14 0 5.53404e-17
1908 18 0.001 0.0248295 0.00367824 -0.0385406 1.10933e-13 -1.0165e-14 -8.53117e-14 0 8.23033e-17
338 11 0.001 -0.0504199 0.00140995 -0.0369473 8.95541e-14 -9.17222e-14 -6.86672e-14 0 9.91331e-17
714 12 0.001 -0.0304206 0.00141167 -0.0369468 8.51118e-14 -9.5431e-14 -7.41027e-14 0 1.08469e-16
1110 14 0.001 -0.0104206 0.00141167 -0.0369468 9.55812e-14 -9.24504e-14 -7.31591e-14 0 1.08469e-16
1506 16 0.001 0.00957936 0.00141167 -0.0369468 7.50414e-14 -9.6664e-14 -7.38816e-14 0 1.08469e-16
1902 18 0.001 0.0295794 0.00141167 -0.0369468 9.46938e-14 -9.63024e-14 -7.34005e-14 0 1.08469e-16
340 11 0.001 -0.0515378 0.00296173 -0.0374731 1.96757e-13 -1.03666e-13 -8.94423e-14 0 1.27214e-16
339 11 0.001 -0.0508813 0.00225629 -0.0372097 8.25419e-14 -1.32675e-13 -8.06119e-14 0 1.16659e-16
716 12 0.001 -0.0315392 0.00296289 -0.0374727 1.18632e-13 -9.73003e-14 -1.06197e-13 0 1.38086e-16
715 12 0.001 -0.0308824 0.00225777 -0.0372093 1.60026e-13 -1.45988e-13 -6.87706e-14 0 1.26866e-16
1111 14 0.001 -0.0108824 0.00225777 -0.0372093 1.36639e-13 -1.53614e-13 -7.09179e-14 0 1.26866e-16
1112 14 0.001 -0.0115392 0.00296289 -0.0374727 1.38947e-13 -8.61431e-14 -1.04716e-13 0 1.38086e-16
1508 16 0.001 0.00846075 0.00296289 -0.0374727 1.48153e-13 -8.62303e-14 -1.02066e-13 0 1.38086e-16
1507 16 0.001 0.0091176 0.00225777 -0.0372093 1.42859e-13 -1.51217e-13 -7.11273e-14 0 1.26866e-16
1904 18 0.001 0.0284608 0.00296289 -0.0374727 1.45944e-13 -9.05558e-14 -1.01429e-13 0 1.38086e-16
1903 18 0.001 0.0291176 0.00225777 -0.0372093 1.52614e-13 -1.52094e-13 -6.87927e-14 0 1.26866e-16
343 11 0.001 -0.0542224 0.00385225 -0.0382719 1.84624e-13 -2.51425e-14 -8.75159e-14 0 9.79508e-17
342 11 0.001 -0.0532623 0.00378536 -0.038004 1.58512e-13 -5.10971e-14 -1.03789e-13 0 1.17505e-16
341 11 0.001 -0.0523483 0.00348224 -0.0377378 1.40455e-13 -7.13577e-14 -1.07707e-13 0 1.27808e-16
719 12 0.001 -0.0342243 0.00385211 -0.0382713 1.71987e-13 -1.64523e-14 -9.05897e-14 0 1.08406e-16
718 12 0.001 -0.0332642 0.00378569 -0.0380035 2.02982e-13 -6.32253e-14 -9.42256e-14 0 1.28602e-16
717 12 0.001 -0.0323501 0.00348301 -0.0377373 1.59161e-13 -6.83698e-14 -1.0958e-13 0 1.39016e-16
1115 14 0.001 -0.0142243 0.00385211 -0.0382713 2.02558e-13 -3.3399e-14 -8.26495e-14 0 1.08406e-16
1113 14 0.001 -0.0123501 0.00348301 -0.0377373 1.57099e-13 -7.61136e-14 -1.07876e-13 0 1.39016e-16
1114 14 0.001 -0.0132642 0.00378569 -0.0380035 1.76977e-13 -5.35687e-14 -1.02638e-13 0 1.28602e-16
1511 16 0.001 0.00577569 0.00385211 -0.0382713 1.95115e-13 -1.94403e-14 -8.59969e-14 0 1.08406e-16
1510 16 0.001 0.00673584 0.00378569 -0.0380035 1.72941e-13 -6.11197e-14 -1.02245e-13 0 1.28602e-16
1509 16 0.001 0.00764992 0.00348301 -0.0377373 1.52075e-13 -7.69699e-14 -1.09568e-13 0 1.39016e-16
1907 18 0.001 0.0257757 0.00385211 -0.0382713 1.98589e-13 -2.43096e-14 -8.44361e-14 0 1.08406e-16
1906 18 0.001 0.0267358 0.00378569 -0.0380035 1.84466e-13 -5.76287e-14 -9.95941e-14 0 1.28602e-16
1905 18 0.001 0.0276499 0.00348301 -0.0377373 1.37257e-13 -7.2645e-14 -1.13874e-13 0 1.39016e-16
333 11 0.001 -0.0515473 -0.00296967 -0.0356335 -8.43547e-14 -3.77995e-14 3.16677e-14 0 2.18008e-17
334 11 0.001 -0.0508886 -0.00226656 -0.0358976 5.39297e-14 -7.93159e-14 9.1865e-15 0 2.97108e-17
709 12 0.001 -0.0315458 -0.00296851 -0.035633 -1.68741e-13 -5.01754e-14 5.63041e-14 0 2.69169e-17
710 12 0.001 -0.0308874 -0.00226507 -0.0358971 7.17013e-14 -7.95901e-14 -6.88393e-15 0 3.5385e-17
1105 14 0.001 -0.0115458 -0.00296851 -0.035633 -4.9427e-14 -6.60346e-14 3.41115e-14 0 2.69169e-17
1106 14 0.001 -0.0108874 -0.00226507 -0.0358971 -2.16977e-14 -6.3333e-14 6.42386e-15 0 3.5385e-17
1501 16 0.001 0.00845418 -0.00296851 -0.035633 -5.48479e-14 -7.05725e-14 3.62536e-14 0 2.69169e-17
1502 16 0.001 0.00911257 -0.00226507 -0.0358971 -3.01702e-14 -5.60081e-14 5.62824e-15 0 3.5385e-17
1897 18 0.001 0.0284542 -0.00296851 -0.035633 -4.79695e-14 -7.06776e-14 3.26041e-14 0 2.69169e-17
1898 18 0.001 0.0291126 -0.00226507 -0.0358971 -6.91976e-16 -5.93556e-14 4.86814e-15 0 3.5385e-17
335 11 0.001 -0.0504245 -0.00142191 -0.0361607 1.60184e-14 -1.10235e-13 1.61751e-14 0 4.20025e-17
336 11 0.001 -0.0501842 -0.000488431 -0.0364232 -2.42391e-14 -1.10315e-13 -1.20101e-14 0 5.86777e-17
711 12 0.001 -0.0304238 -0.00142019 -0.0361602 -3.2332e-14 -1.06235e-13 2.39421e-14 0 4.84554e-17
712 12 0.001 -0.030184 -0.000486601 -0.0364227 4.93922e-14 -1.08058e-13 -2.72542e-14 0 6.60523e-17
1107 14 0.001 -0.0104238 -0.00142019 -0.0361602 1.2626e-14 -1.21457e-13 2.05775e-14 0 4.84554e-17
1108 14 0.001 -0.010184 -0.000486601 -0.0364227 3.77448e-14 -1.06912e-13 -2.62168e-14 0 6.60523e-17
1503 16 0.001 0.00957619 -0.00142019 -0.0361602 4.03518e-14 -1.27828e-13 1.99355e-14 0 4.84554e-17
1504 16 0.001 0.00981605 -0.000486601 -0.0364227 3.92826e-15 -1.06336e-13 -2.50397e-14 0 6.60523e-17
1899 18 0.001 0.0295762 -0.00142019 -0.0361602 -1.92675e-14 -1.24245e-13 2.31438e-14 0 4.84554e-17
1900 18 0.001 0.029816 -0.000486601 -0.0364227 6.49435e-14 -1.08714e-13 -2.61382e-14 0 6.60522e-17
337 11 0.001 -0.0501826 0.000475592 -0.0366852 1.10957e-13 -1.18067e-13 -3.57918e-14 0 7.85774e-17
713 12 0.001 -0.0301829 0.000477423 -0.0366847 5.58457e-14 -1.42863e-13 -2.70083e-14 0 8.69393e-17
1109 14 0.001 -0.0101829 0.000477423 -0.0366847 5.97205e-14 -1.39739e-13 -2.78544e-14 0 8.69393e-17
1505 16 0.001 0.00981713 0.000477423 -0.0366847 8.69662e-14 -1.34537e-13 -2.85993e-14 0 8.69393e-17
1901 18 0.001 0.0298171 0.000477423 -0.0366847 3.80819e-14 -1.35365e-13 -2.94294e-14 0 8.69393e-17
328 11 0.001 -0.0560549 -0.00326891 -0.0343032 6.83798e-14 9.90719e-14 -6.49156e-14 0 2.97989e-17
329 11 0.001 -0.0551818 -0.0036747 -0.0345699 -1.17709e-13 3.74346e-14 -4.79949e-15 0 2.27775e-17
330 11 0.001 -0.0542354 -0.00385123 -0.0348366 -1.06619e-13 5.1402e-14 1.62071e-14 0 1.8384e-17
331 11 0.001 -0.0532747 -0.00378749 -0.0351029 -1.89362e-15 -9.71909e-15 -1.80905e-15 0 1.66512e-17
332 11 0.001 -0.0523596 -0.0034874 -0.0353686 -9.29505e-14 -4.03792e-14 4.67496e-14 0 1.76654e-17
704 12 0.001 -0.0360532 -0.00327003 -0.0343026 -2.15207e-13 9.81887e-14 -1.22449e-14 0 3.68798e-17
705 12 0.001 -0.03518 -0.00367537 -0.0345694 -1.96073e-14 5.83347e-14 -2.7736e-14 0 2.88696e-17
706 12 0.001 -0.0342335 -0.00385142 -0.0348361 -7.3245e-14 4.49297e-14 -2.27489e-15 0 2.37311e-17
707 12 0.001 -0.0332728 -0.00378719 -0.0351024 -1.57499e-13 -7.97099e-15 3.59778e-14 0 2.15731e-17
708 12 0.001 -0.0323578 -0.00348665 -0.0353681 5.15753e-14 -4.44915e-14 1.61124e-15 0 2.25145e-17
1100 14 0.001 -0.0160532 -0.00327003 -0.0343026 -3.61915e-14 1.02353e-13 -4.88616e-14 0 3.68798e-17
1101 14 0.001 -0.01518 -0.00367537 -0.0345694 -8.47739e-14 4.9734e-14 -1.5061e-14 0 2.88696e-17
1102 14 0.001 -0.0142335 -0.00385142 -0.0348361 -8.40666e-14 3.76144e-14 1.29283e-15 0 2.37311e-17
1104 14 0.001 -0.0123578 -0.00348665 -0.0353681 -7.50894e-14 -4.19819e-14 3.07096e-14 0 2.25145e-17
1103 14 0.001 -0.0132728 -0.00378719 -0.0351024 -7.72463e-14 4.10357e-15 1.55796e-14 0 2.15731e-17
1496 16 0.001 0.00394678 -0.00327003 -0.0343026 -7.19071e-14 9.40519e-14 -4.35405e-14 0 3.68798e-17
1497 16 0.001 0.00482002 -0.00367537 -0.0345694 -7.3136e-14 5.68311e-14 -1.43999e-14 0 2.88696e-17
1498 16 0.001 0.00576654 -0.00385142 -0.0348361 -7.5505e-14 4.15155e-14 -4.34463e-15 0 2.37311e-17
1499 16 0.001 0.00672725 -0.00378719 -0.0351024 -8.42393e-14 -5.10245e-15 1.97563e-14 0 2.15731e-17
1500 16 0.001 0.00764217 -0.00348665 -0.0353681 -6.83886e-14 -3.73761e-14 2.79973e-14 0 2.25145e-17
1892 18 0.001 0.0239468 -0.00327003 -0.0343026 -1.01834e-14 8.67159e-14 -5.80257e-14 0 3.68798e-17
1893 18 0.001 0.02482 -0.00367537 -0.0345694 -1.14983e-13 6.48443e-14 -5.96415e-15 0 2.88696e-17
1894 18 0.001 0.0257665 -0.00385142 -0.0348361 -8.28737e-14 2.38527e-14 1.18001e-16 0 2.37311e-17
1895 18 0.001 0.0267272 -0.00378719 -0.0351024 -6.47438e-14 6.87929e-15 1.29869e-14 0 2.15731e-17
1896 18 0.001 0.0276422 -0.00348665 -0.0353681 -8.20838e-14 -3.47989e-14 3.17678e-14 0 2.25145e-17
327 11 0.001 -0.0568 -0.00265922 -0.0340366 -2.30319e-13 1.52351e-13 -6.65169e-15 0 3.9162e-17
703 12 0.001 -0.0367987 -0.00266071 -0.034036 6.43321e-14 1.1579e-13 -7.77035e-14 0 4.73679e-17
1099 14 0.001 -0.0167987 -0.00266071 -0.034036 -1.09022e-13 1.17518e-13 -4.4519e-14 0 4.73679e-17