ITEM: TIMESTEP
4300000
ITEM: NUMBER OF ATOMS
1970
ITEM: BOX BOUNDS ff ff ff
-6.0000000000000005e-02 6.0000000000000005e-02
-6.0000000000000001e-03 6.0000000000000001e-03
-5.5000000000000000e-02 5.5000000000000000e-02
ITEM: ATOMS id type radius x y z fx fy fz c_bendingE c_stretchingE
384 11 0.001 -0.0508452 -0.00262808 -0.0489916 -1.20071e-12 6.90689e-14 -9.1421e-13 0 1.50879e-16
385 11 0.001 -0.0503379 -0.00183005 -0.0493138 -8.03194e-13 -7.52644e-14 -6.02031e-13 0 7.16742e-15
760 12 0.001 -0.0308452 -0.00262808 -0.0489916 -1.19839e-12 4.69245e-14 -9.04425e-13 0 1.51034e-16
761 12 0.001 -0.0303379 -0.00183005 -0.0493138 -8.0618e-13 -5.8267e-14 -6.03316e-13 0 7.1664e-15
1156 14 0.001 -0.0108452 -0.00262808 -0.0489916 -1.19445e-12 5.11776e-14 -9.06986e-13 0 1.51034e-16
1157 14 0.001 -0.0103379 -0.00183005 -0.0493138 -8.11545e-13 -5.89724e-14 -6.02151e-13 0 7.1664e-15
1552 16 0.001 0.00915479 -0.00262808 -0.0489916 -1.18598e-12 5.1634e-14 -9.08089e-13 0 1.51034e-16
1553 16 0.001 0.00966206 -0.00183005 -0.0493138 -8.13012e-13 -5.60418e-14 -6.02878e-13 0 7.1664e-15
1948 18 0.001 0.0291548 -0.00262808 -0.0489916 -1.18412e-12 5.03851e-14 -9.07527e-13 0 1.51034e-16
1949 18 0.001 0.0296621 -0.00183005 -0.0493138 -8.17961e-13 -5.77096e-14 -6.02002e-13 0 7.1664e-15
2 2 0.001 -0.05 -4.31175e-17 -0.05 -4.36885e-06 5.36259e-06 2.01143e-06 0 5.47644e-15
386 11 0.001 -0.0500504 -0.000934922 -0.0496516 -4.21886e-13 -8.29128e-14 -2.89246e-13 0 1.24941e-14
762 12 0.001 -0.0300504 -0.000934922 -0.0496516 -4.17655e-13 -8.87661e-14 -2.86215e-13 0 1.24918e-14
4 4 0.001 -0.03 -4.31175e-17 -0.05 -4.36912e-06 5.36351e-06 2.01112e-06 0 5.47529e-15
6 6 0.001 -0.01 -4.31175e-17 -0.05 -4.36912e-06 5.36351e-06 2.01112e-06 0 5.47529e-15
1158 14 0.001 -0.0100504 -0.000934922 -0.0496516 -4.18188e-13 -8.5482e-14 -2.87501e-13 0 1.24918e-14
8 8 0.001 0.01 -4.31175e-17 -0.05 -4.36912e-06 5.36351e-06 2.01112e-06 0 5.47529e-15
1554 16 0.001 0.00994962 -0.000934922 -0.0496516 -4.19814e-13 -8.69857e-14 -2.86998e-13 0 1.24918e-14
10 10 0.001 0.03 -4.31175e-17 -0.05 -4.36912e-06 5.36351e-06 2.01112e-06 0 5.47529e-15
1950 18 0.001 0.0299496 -0.000934922 -0.0496516 -4.18342e-13 -8.73903e-14 -2.86903e-13 0 1.24918e-14
379 11 0.001 -0.0552286 -0.00373651 -0.0476736 -1.74294e-12 1.4249e-12 -1.68889e-12 0 1.8183e-15
380 11 0.001 -0.0542856 -0.00397487 -0.0479013 -1.83787e-12 1.12221e-12 -1.69298e-12 0 1.47936e-15
381 11 0.001 -0.0533166 -0.00397443 -0.0481443 -1.75336e-12 8.04363e-13 -1.62383e-12 0 9.55843e-16
382 11 0.001 -0.0523822 -0.00373655 -0.048406 -1.72109e-12 4.86828e-13 -1.42603e-12 0 4.19825e-16
383 11 0.001 -0.051541 -0.00327765 -0.0486884 -1.46518e-12 2.30166e-13 -1.19646e-12 0 8.86623e-17
755 12 0.001 -0.0352286 -0.00373651 -0.0476736 -1.76354e-12 1.43434e-12 -1.68162e-12 0 1.81832e-15
756 12 0.001 -0.0342856 -0.00397487 -0.0479013 -1.81059e-12 1.10807e-12 -1.69377e-12 0 1.47928e-15
757 12 0.001 -0.0333166 -0.00397443 -0.0481443 -1.84705e-12 7.92442e-13 -1.59032e-12 0 9.55696e-16
758 12 0.001 -0.0323822 -0.00373655 -0.048406 -1.6159e-12 5.21579e-13 -1.45291e-12 0 4.19675e-16
759 12 0.001 -0.031541 -0.00327765 -0.0486884 -1.48617e-12 2.23989e-13 -1.18475e-12 0 8.86069e-17
1151 14 0.001 -0.0152286 -0.00373651 -0.0476736 -1.74245e-12 1.43813e-12 -1.68504e-12 0 1.81832e-15
1152 14 0.001 -0.0142856 -0.00397487 -0.0479013 -1.82038e-12 1.1059e-12 -1.69283e-12 0 1.47928e-15
1153 14 0.001 -0.0133166 -0.00397443 -0.0481443 -1.81723e-12 7.94188e-13 -1.59483e-12 0 9.55696e-16
1154 14 0.001 -0.0123822 -0.00373655 -0.048406 -1.66319e-12 5.1943e-13 -1.44548e-12 0 4.19675e-16
1155 14 0.001 -0.011541 -0.00327765 -0.0486884 -1.46056e-12 2.21624e-13 -1.18702e-12 0 8.86069e-17
1547 16 0.001 0.00477137 -0.00373651 -0.0476736 -1.73334e-12 1.42769e-12 -1.68684e-12 0 1.81832e-15
1548 16 0.001 0.00571443 -0.00397487 -0.0479013 -1.82549e-12 1.11654e-12 -1.69215e-12 0 1.47928e-15
1549 16 0.001 0.00668345 -0.00397443 -0.0481443 -1.81393e-12 7.89084e-13 -1.59586e-12 0 9.55696e-16
1550 16 0.001 0.00761775 -0.00373655 -0.048406 -1.65521e-12 5.20123e-13 -1.44629e-12 0 4.19675e-16
1551 16 0.001 0.00845899 -0.00327765 -0.0486884 -1.47468e-12 2.19458e-13 -1.18449e-12 0 8.86069e-17
1943 18 0.001 0.0247714 -0.00373651 -0.0476736 -1.73148e-12 1.43192e-12 -1.6872e-12 0 1.81832e-15
1944 18 0.001 0.0257144 -0.00397487 -0.0479013 -1.84401e-12 1.11259e-12 -1.68771e-12 0 1.47928e-15
1945 18 0.001 0.0266834 -0.00397443 -0.0481443 -1.80151e-12 7.90672e-13 -1.59884e-12 0 9.55696e-16
1946 18 0.001 0.0276178 -0.00373655 -0.048406 -1.64879e-12 5.21084e-13 -1.44805e-12 0 4.19675e-16
1947 18 0.001 0.028459 -0.00327765 -0.0486884 -1.47685e-12 2.21165e-13 -1.18471e-12 0 8.86069e-17
378 11 0.001 -0.0560867 -0.0032732 -0.0474566 -1.53632e-12 1.72005e-12 -1.59643e-12 0 1.89135e-15
754 12 0.001 -0.0360867 -0.00327321 -0.0474566 -1.4934e-12 1.70162e-12 -1.59531e-12 0 1.89146e-15
1150 14 0.001 -0.0160867 -0.00327321 -0.0474566 -1.53721e-12 1.69323e-12 -1.58901e-12 0 1.89146e-15
1546 16 0.001 0.00391331 -0.00327321 -0.0474566 -1.54223e-12 1.70127e-12 -1.5871e-12 0 1.89146e-15
1942 18 0.001 0.0239133 -0.00327321 -0.0474566 -1.53926e-12 1.69979e-12 -1.58774e-12 0 1.89146e-15
376 11 0.001 -0.0573423 -0.00179724 -0.0470333 -9.33646e-13 2.06968e-12 -1.14294e-12 0 1.37089e-15
377 11 0.001 -0.0568061 -0.0026132 -0.0472449 -1.33891e-12 1.93069e-12 -1.38712e-12 0 1.71402e-15
753 12 0.001 -0.0368061 -0.0026132 -0.0472449 -1.35231e-12 1.93073e-12 -1.38793e-12 0 1.7142e-15
752 12 0.001 -0.0373423 -0.00179725 -0.0470333 -9.00801e-13 2.05671e-12 -1.13904e-12 0 1.37111e-15
1149 14 0.001 -0.0168061 -0.0026132 -0.0472449 -1.28973e-12 1.94233e-12 -1.39362e-12 0 1.7142e-15
1148 14 0.001 -0.0173423 -0.00179725 -0.0470333 -9.8124e-13 2.04675e-12 -1.1356e-12 0 1.37111e-15
1544 16 0.001 0.00265773 -0.00179725 -0.0470333 -9.60023e-13 2.04693e-12 -1.13741e-12 0 1.37111e-15
1545 16 0.001 0.00319386 -0.0026132 -0.0472449 -1.30473e-12 1.93872e-12 -1.39255e-12 0 1.7142e-15
1941 18 0.001 0.0231939 -0.0026132 -0.0472449 -1.30596e-12 1.9397e-12 -1.39211e-12 0 1.7142e-15
1940 18 0.001 0.0226577 -0.00179725 -0.0470333 -9.62112e-13 2.0468e-12 -1.13735e-12 0 1.37111e-15
375 11 0.001 -0.057662 -0.000875909 -0.0468167 -6.11849e-13 2.11827e-12 -8.23812e-13 0 9.71348e-16
751 12 0.001 -0.037662 -0.000875911 -0.0468167 -6.74581e-13 2.11319e-12 -8.22414e-13 0 9.71569e-16
1147 14 0.001 -0.017662 -0.000875911 -0.0468167 -5.92313e-13 2.11804e-12 -8.22269e-13 0 9.71569e-16
1543 16 0.001 0.00233795 -0.000875911 -0.0468167 -6.02742e-13 2.11826e-12 -8.21754e-13 0 9.71569e-16
1939 18 0.001 0.022338 -0.000875911 -0.0468167 -6.03427e-13 2.11749e-12 -8.22142e-13 0 9.71569e-16
373 11 0.001 -0.0575902 0.00105152 -0.0463541 1.75201e-13 1.92722e-12 -1.82249e-13 0 3.35967e-16
374 11 0.001 -0.0577462 9.36813e-05 -0.0465912 -2.40187e-13 2.06184e-12 -5.00224e-13 0 6.08617e-16
749 12 0.001 -0.0375902 0.00105152 -0.0463541 1.15879e-13 1.90578e-12 -1.90748e-13 0 3.36123e-16
750 12 0.001 -0.0377462 9.36798e-05 -0.0465912 -1.62895e-13 2.06991e-12 -4.92404e-13 0 6.08813e-16
1145 14 0.001 -0.0175902 0.00105152 -0.0463541 1.22349e-13 1.90411e-12 -1.91846e-13 0 3.36123e-16
1146 14 0.001 -0.0177462 9.36798e-05 -0.0465912 -2.20565e-13 2.07045e-12 -4.94522e-13 0 6.08813e-16
1541 16 0.001 0.00240979 0.00105152 -0.0463541 1.42406e-13 1.90279e-12 -1.89241e-13 0 3.36123e-16
1542 16 0.001 0.00225381 9.36798e-05 -0.0465912 -2.24539e-13 2.06991e-12 -4.9529e-13 0 6.08813e-16
1937 18 0.001 0.0224098 0.00105152 -0.0463541 1.26823e-13 1.8966e-12 -1.92467e-13 0 3.36123e-16
1938 18 0.001 0.0222538 9.36798e-05 -0.0465912 -2.15633e-13 2.07265e-12 -4.94082e-13 0 6.08813e-16
372 11 0.001 -0.0572046 0.00193849 -0.0461039 4.92669e-13 1.67904e-12 7.89383e-14 0 1.63927e-16
748 12 0.001 -0.0372046 0.00193848 -0.0461039 4.96658e-13 1.68912e-12 8.44855e-14 0 1.64039e-16
1144 14 0.001 -0.0172046 0.00193848 -0.0461039 5.49463e-13 1.68896e-12 9.4801e-14 0 1.64039e-16
1540 16 0.001 0.00279541 0.00193848 -0.0461039 5.13586e-13 1.69599e-12 8.95017e-14 0 1.64039e-16
1936 18 0.001 0.0227954 0.00193848 -0.0461039 5.40494e-13 1.69999e-12 9.52045e-14 0 1.64039e-16
371 11 0.001 -0.056614 0.00269998 -0.0458406 7.99146e-13 1.37532e-12 2.76978e-13 0 7.3385e-17
747 12 0.001 -0.036614 0.00269998 -0.0458406 8.23127e-13 1.36037e-12 2.78771e-13 0 7.34601e-17
1143 14 0.001 -0.016614 0.00269998 -0.0458406 7.38574e-13 1.36572e-12 2.61086e-13 0 7.34601e-17
1539 16 0.001 0.00338603 0.00269998 -0.0458406 7.7857e-13 1.35439e-12 2.67874e-13 0 7.34601e-17
1935 18 0.001 0.023386 0.00269998 -0.0458406 7.42814e-13 1.35493e-12 2.60135e-13 0 7.34601e-17
370 11 0.001 -0.0558556 0.00328926 -0.0455655 1.02398e-12 1.00189e-12 3.75567e-13 0 3.48386e-17
369 11 0.001 -0.0549771 0.00367022 -0.0452808 1.22672e-12 5.71861e-13 3.98788e-13 0 2.44116e-17
368 11 0.001 -0.0540333 0.00381962 -0.0449895 1.30444e-12 1.59555e-13 3.11857e-13 0 3.11156e-17
367 11 0.001 -0.0530831 0.00372843 -0.0446947 1.27695e-12 -3.07526e-13 1.57973e-13 0 5.48723e-17
745 12 0.001 -0.0349771 0.00367022 -0.0452808 1.27005e-12 5.87498e-13 4.12256e-13 0 2.44513e-17
746 12 0.001 -0.0358556 0.00328926 -0.0455655 9.86038e-13 9.96414e-13 3.70485e-13 0 3.48892e-17
744 12 0.001 -0.0340333 0.00381962 -0.0449895 1.23322e-12 1.32648e-13 2.95203e-13 0 3.11553e-17
743 12 0.001 -0.0330831 0.00372843 -0.0446947 1.35207e-12 -2.78111e-13 1.79e-13 0 5.49172e-17
1142 14 0.001 -0.0158556 0.00328926 -0.0455655 1.06288e-12 9.91899e-13 3.88575e-13 0 3.48892e-17
1140 14 0.001 -0.0140333 0.00381962 -0.0449895 1.29103e-12 1.46466e-13 3.11037e-13 0 3.11553e-17
1141 14 0.001 -0.0149771 0.00367022 -0.0452808 1.21299e-12 5.84067e-13 3.97078e-13 0 2.44513e-17
1139 14 0.001 -0.0130831 0.00372843 -0.0446947 1.28585e-12 -2.9642e-13 1.61323e-13 0 5.49172e-17
1538 16 0.001 0.00414437 0.00328926 -0.0455655 1.04355e-12 1.00229e-12 3.85695e-13 0 3.48892e-17
1537 16 0.001 0.00502291 0.00367022 -0.0452808 1.20936e-12 5.81028e-13 3.9511e-13 0 2.44513e-17
1536 16 0.001 0.00596673 0.00381962 -0.0449895 1.29013e-12 1.42753e-13 3.1103e-13 0 3.11553e-17
1535 16 0.001 0.00691689 0.00372843 -0.0446947 1.29816e-12 -2.92052e-13 1.64754e-13 0 5.49172e-17
1933 18 0.001 0.0250229 0.00367022 -0.0452808 1.20315e-12 5.81668e-13 3.92674e-13 0 2.44513e-17
1934 18 0.001 0.0241444 0.00328926 -0.0455655 1.0681e-12 9.98981e-13 3.91471e-13 0 3.48892e-17
1932 18 0.001 0.0259667 0.00381962 -0.0449895 1.29488e-12 1.43555e-13 3.14214e-13 0 3.11553e-17
1931 18 0.001 0.0269169 0.00372843 -0.0446947 1.28794e-12 -2.89059e-13 1.6002e-13 0 5.49172e-17
361 11 0.001 -0.0501715 -0.000615692 -0.0429944 -2.57139e-13 -1.66544e-12 -8.5763e-13 0 3.52968e-16
737 12 0.001 -0.0301715 -0.00061569 -0.0429944 -2.13321e-13 -1.6672e-12 -8.5502e-13 0 3.5298e-16
1133 14 0.001 -0.0101715 -0.00061569 -0.0429944 -2.34178e-13 -1.66157e-12 -8.54769e-13 0 3.5298e-16
1529 16 0.001 0.00982854 -0.00061569 -0.0429944 -2.22839e-13 -1.6678e-12 -8.53816e-13 0 3.5298e-16
1925 18 0.001 0.0298285 -0.00061569 -0.0429944 -2.39716e-13 -1.66472e-12 -8.54174e-13 0 3.5298e-16
362 11 0.001 -0.0501358 0.00034594 -0.0432628 1.3255e-13 -1.6788e-12 -8.04015e-13 0 3.42573e-16
363 11 0.001 -0.0503396 0.00128451 -0.0435377 4.78553e-13 -1.5708e-12 -6.80477e-13 0 2.99713e-16
738 12 0.001 -0.0301358 0.000345941 -0.0432628 1.21174e-13 -1.66493e-12 -8.03761e-13 0 3.42593e-16
739 12 0.001 -0.0303396 0.00128451 -0.0435377 4.50114e-13 -1.56928e-12 -6.80595e-13 0 2.99745e-16
1134 14 0.001 -0.0101358 0.000345941 -0.0432628 1.25998e-13 -1.67133e-12 -8.0441e-13 0 3.42593e-16
1135 14 0.001 -0.0103396 0.00128451 -0.0435377 4.60726e-13 -1.56935e-12 -6.77314e-13 0 2.99745e-16
1530 16 0.001 0.00986422 0.000345941 -0.0432628 1.11313e-13 -1.66611e-12 -8.05411e-13 0 3.42593e-16
1531 16 0.001 0.00966041 0.00128451 -0.0435377 4.71725e-13 -1.57363e-12 -6.75734e-13 0 2.99745e-16
1926 18 0.001 0.0298642 0.000345941 -0.0432628 1.43012e-13 -1.67086e-12 -8.033e-13 0 3.42593e-16
1927 18 0.001 0.0296604 0.00128451 -0.0435377 4.35309e-13 -1.56403e-12 -6.81715e-13 0 2.99745e-16
365 11 0.001 -0.0513983 0.00286214 -0.0441071 1.00434e-12 -1.06765e-12 -2.82423e-13 0 1.61869e-16
364 11 0.001 -0.0507696 0.00214112 -0.0438193 7.76691e-13 -1.37602e-12 -4.96795e-13 0 2.34112e-16
740 12 0.001 -0.0307696 0.00214113 -0.0438193 8.0018e-13 -1.36871e-12 -4.93575e-13 0 2.34154e-16
741 12 0.001 -0.0313983 0.00286214 -0.0441071 1.01295e-12 -1.06095e-12 -2.7612e-13 0 1.61917e-16
1136 14 0.001 -0.0107696 0.00214113 -0.0438193 7.81393e-13 -1.36489e-12 -4.99034e-13 0 2.34154e-16
1137 14 0.001 -0.0113983 0.00286214 -0.0441071 1.02677e-12 -1.06811e-12 -2.71796e-13 0 1.61917e-16
1533 16 0.001 0.00860165 0.00286214 -0.0441071 1.02265e-12 -1.06176e-12 -2.73323e-13 0 1.61917e-16
1532 16 0.001 0.00923041 0.00214113 -0.0438193 7.79856e-13 -1.36729e-12 -4.98667e-13 0 2.34154e-16
1928 18 0.001 0.0292304 0.00214113 -0.0438193 8.06806e-13 -1.37057e-12 -4.93389e-13 0 2.34154e-16
1929 18 0.001 0.0286017 0.00286214 -0.0441071 1.00746e-12 -1.0625e-12 -2.76918e-13 0 1.61917e-16
366 11 0.001 -0.0521861 0.00340248 -0.0443996 1.23932e-12 -6.96965e-13 -4.63907e-14 0 9.89067e-17
742 12 0.001 -0.0321861 0.00340248 -0.0443996 1.16588e-12 -7.09456e-13 -6.28277e-14 0 9.89559e-17
1138 14 0.001 -0.0121861 0.00340248 -0.0443996 1.19625e-12 -6.96713e-13 -5.52323e-14 0 9.89559e-17
1534 16 0.001 0.00781395 0.00340248 -0.0443996 1.19078e-12 -7.01052e-13 -5.68624e-14 0 9.89559e-17
1930 18 0.001 0.0278139 0.00340248 -0.0443996 1.20253e-12 -7.04558e-13 -5.25262e-14 0 9.89559e-17
355 11 0.001 -0.0543482 -0.00384435 -0.0414539 -1.32545e-12 2.08476e-14 -1.79334e-13 0 1.15376e-16
356 11 0.001 -0.053383 -0.00381175 -0.0417096 -1.25413e-12 -3.57275e-13 -3.26503e-13 0 1.39781e-16
357 11 0.001 -0.0524555 -0.00354144 -0.041964 -1.27605e-12 -7.362e-13 -4.56348e-13 0 1.79669e-16
358 11 0.001 -0.0516236 -0.00305024 -0.0422182 -1.04537e-12 -1.08009e-12 -6.26765e-13 0 2.31252e-16
731 12 0.001 -0.0343482 -0.00384435 -0.0414539 -1.27241e-12 5.88707e-15 -1.91939e-13 0 1.15417e-16
732 12 0.001 -0.033383 -0.00381175 -0.0417096 -1.31302e-12 -3.61373e-13 -3.06997e-13 0 1.39814e-16
733 12 0.001 -0.0324555 -0.00354144 -0.041964 -1.21276e-12 -7.24652e-13 -4.69065e-13 0 1.79694e-16
734 12 0.001 -0.0316236 -0.00305024 -0.0422182 -1.07355e-12 -1.07904e-12 -6.18688e-13 0 2.3127e-16
1127 14 0.001 -0.0143482 -0.00384435 -0.0414539 -1.26962e-12 2.30371e-14 -1.91121e-13 0 1.15417e-16
1128 14 0.001 -0.013383 -0.00381175 -0.0417096 -1.28999e-12 -3.62328e-13 -3.13859e-13 0 1.39814e-16
1129 14 0.001 -0.0124555 -0.00354144 -0.041964 -1.22231e-12 -7.32193e-13 -4.6532e-13 0 1.79694e-16
1130 14 0.001 -0.0116236 -0.00305024 -0.0422182 -1.09759e-12 -1.07198e-12 -6.15051e-13 0 2.3127e-16
1523 16 0.001 0.00565181 -0.00384435 -0.0414539 -1.2673e-12 1.57518e-14 -1.91547e-13 0 1.15417e-16
1524 16 0.001 0.00661698 -0.00381175 -0.0417096 -1.29673e-12 -3.64073e-13 -3.11534e-13 0 1.39814e-16
1525 16 0.001 0.00754448 -0.00354144 -0.041964 -1.23233e-12 -7.29536e-13 -4.63829e-13 0 1.79694e-16
1526 16 0.001 0.00837642 -0.00305024 -0.0422182 -1.07821e-12 -1.06953e-12 -6.19089e-13 0 2.3127e-16
1919 18 0.001 0.0256518 -0.00384435 -0.0414539 -1.27965e-12 1.87876e-14 -1.88541e-13 0 1.15417e-16
1920 18 0.001 0.026617 -0.00381175 -0.0417096 -1.27998e-12 -3.63156e-13 -3.16158e-13 0 1.39814e-16
1921 18 0.001 0.0275445 -0.00354144 -0.041964 -1.23825e-12 -7.29175e-13 -4.62346e-13 0 1.79694e-16
1922 18 0.001 0.0283764 -0.00305024 -0.0422182 -1.06869e-12 -1.07127e-12 -6.2079e-13 0 2.3127e-16
359 11 0.001 -0.0509391 -0.00236885 -0.0424736 -9.01774e-13 -1.35231e-12 -7.4333e-13 0 2.85983e-16
360 11 0.001 -0.0504448 -0.00153998 -0.0427318 -5.40074e-13 -1.57294e-12 -8.36443e-13 0 3.31075e-16
735 12 0.001 -0.0309391 -0.00236884 -0.0424736 -8.75504e-13 -1.34749e-12 -7.43752e-13 0 2.85994e-16
736 12 0.001 -0.0304448 -0.00153998 -0.0427318 -5.77816e-13 -1.56881e-12 -8.31997e-13 0 3.31083e-16
1131 14 0.001 -0.0109391 -0.00236884 -0.0424736 -8.58248e-13 -1.35875e-12 -7.45226e-13 0 2.85994e-16
1132 14 0.001 -0.0104448 -0.00153998 -0.0427318 -5.64546e-13 -1.56112e-12 -8.34149e-13 0 3.31083e-16
1527 16 0.001 0.00906089 -0.00236884 -0.0424736 -8.68585e-13 -1.36081e-12 -7.43091e-13 0 2.85994e-16
1528 16 0.001 0.00955517 -0.00153998 -0.0427318 -5.65944e-13 -1.55681e-12 -8.35218e-13 0 3.31083e-16
1923 18 0.001 0.0290609 -0.00236884 -0.0424736 -8.74901e-13 -1.35719e-12 -7.42648e-13 0 2.85994e-16
1924 18 0.001 0.0295552 -0.00153998 -0.0427318 -5.63037e-13 -1.56366e-12 -8.33812e-13 0 3.31083e-16
353 11 0.001 -0.0561525 -0.00320376 -0.0409359 -9.26709e-13 7.48615e-13 -1.04399e-13 0 1.15917e-16
354 11 0.001 -0.0552909 -0.00363734 -0.0411961 -1.17692e-12 3.88227e-13 -1.13165e-13 0 1.07302e-16
729 12 0.001 -0.0361525 -0.00320376 -0.0409359 -1.06172e-12 7.16789e-13 -7.72324e-14 0 1.15981e-16
730 12 0.001 -0.0352909 -0.00363734 -0.0411961 -1.12667e-12 4.13465e-13 -1.17328e-13 0 1.07354e-16
1125 14 0.001 -0.0161525 -0.00320376 -0.0409359 -9.55573e-13 7.32877e-13 -9.87711e-14 0 1.15981e-16
1126 14 0.001 -0.0152909 -0.00363734 -0.0411961 -1.1812e-12 3.87897e-13 -1.06776e-13 0 1.07354e-16
1521 16 0.001 0.00384754 -0.00320376 -0.0409359 -9.71446e-13 7.29017e-13 -9.50094e-14 0 1.15981e-16
1522 16 0.001 0.0047091 -0.00363734 -0.0411961 -1.16846e-12 3.96445e-13 -1.10144e-13 0 1.07354e-16
1917 18 0.001 0.0238475 -0.00320376 -0.0409359 -9.7678e-13 7.34039e-13 -9.28522e-14 0 1.15981e-16
1918 18 0.001 0.0247091 -0.00363734 -0.0411961 -1.17216e-12 3.93254e-13 -1.09211e-13 0 1.07354e-16
351 11 0.001 -0.0574263 -0.00177782 -0.0404085 -3.19089e-13 1.28263e-12 -2.24106e-13 0 1.88708e-16
352 11 0.001 -0.0568793 -0.00257074 -0.0406732 -8.1215e-13 1.01221e-12 -1.19275e-13 0 1.42479e-16
727 12 0.001 -0.0374263 -0.00177782 -0.0404085 -4.12944e-13 1.2506e-12 -2.12494e-13 0 1.88812e-16
728 12 0.001 -0.0368793 -0.00257075 -0.0406732 -6.57273e-13 1.03634e-12 -1.38671e-13 0 1.42561e-16
1123 14 0.001 -0.0174263 -0.00177782 -0.0404085 -4.18817e-13 1.25287e-12 -2.15411e-13 0 1.88812e-16
1124 14 0.001 -0.0168793 -0.00257075 -0.0406732 -7.41292e-13 1.03086e-12 -1.21803e-13 0 1.42561e-16
1519 16 0.001 0.00257366 -0.00177782 -0.0404085 -4.22773e-13 1.25141e-12 -2.14896e-13 0 1.88812e-16
1520 16 0.001 0.00312067 -0.00257075 -0.0406732 -7.32364e-13 1.03215e-12 -1.23711e-13 0 1.42561e-16
1915 18 0.001 0.0225737 -0.00177782 -0.0404085 -4.3938e-13 1.24538e-12 -2.14119e-13 0 1.88812e-16
1916 18 0.001 0.0231207 -0.00257075 -0.0406732 -7.18439e-13 1.03233e-12 -1.26507e-13 0 1.42561e-16
350 11 0.001 -0.0577595 -0.000874406 -0.0401424 -1.85284e-13 1.41389e-12 -3.25321e-13 0 2.5489e-16
726 12 0.001 -0.0377595 -0.000874408 -0.0401424 -1.59931e-13 1.41398e-12 -3.26781e-13 0 2.55019e-16
1122 14 0.001 -0.0177595 -0.000874408 -0.0401424 -8.45444e-14 1.41269e-12 -3.29862e-13 0 2.55019e-16
1518 16 0.001 0.00224046 -0.000874408 -0.0401424 -8.31456e-14 1.41322e-12 -3.30133e-13 0 2.55019e-16
1914 18 0.001 0.0222405 -0.000874408 -0.0401424 -5.54821e-14 1.41521e-12 -3.31301e-13 0 2.55019e-16
348 11 0.001 -0.0577164 0.00103529 -0.0396082 5.78041e-13 1.48037e-12 -5.84857e-13 0 4.29645e-16
349 11 0.001 -0.0578583 8.3189e-05 -0.0398754 3.29113e-13 1.48111e-12 -4.6795e-13 0 3.37786e-16
724 12 0.001 -0.0377164 0.00103529 -0.0396082 6.0355e-13 1.46413e-12 -5.80434e-13 0 4.2982e-16
725 12 0.001 -0.0378583 8.31865e-05 -0.0398754 3.39305e-13 1.47803e-12 -4.62454e-13 0 3.37939e-16
1120 14 0.001 -0.0177164 0.00103529 -0.0396082 6.26034e-13 1.45481e-12 -5.83893e-13 0 4.2982e-16
1121 14 0.001 -0.0178583 8.31865e-05 -0.0398754 2.64018e-13 1.48807e-12 -4.58845e-13 0 3.37939e-16
1516 16 0.001 0.00228364 0.00103529 -0.0396082 6.19932e-13 1.46527e-12 -5.81087e-13 0 4.2982e-16
1517 16 0.001 0.00214175 8.31865e-05 -0.0398754 2.67833e-13 1.48255e-12 -4.60251e-13 0 3.37939e-16
1912 18 0.001 0.0222836 0.00103529 -0.0396082 6.37552e-13 1.45779e-12 -5.8387e-13 0 4.2982e-16
1913 18 0.001 0.0221417 8.31865e-05 -0.0398754 2.36487e-13 1.48589e-12 -4.58449e-13 0 3.37939e-16
347 11 0.001 -0.0573427 0.00192253 -0.0393413 9.89741e-13 1.35009e-12 -6.74671e-13 0 5.19103e-16
346 11 0.001 -0.0567606 0.00268955 -0.0390752 1.22214e-12 1.16296e-12 -7.23194e-13 0 5.93753e-16
722 12 0.001 -0.0367606 0.00268955 -0.0390752 1.24065e-12 1.1457e-12 -7.19394e-13 0 5.93955e-16
723 12 0.001 -0.0373427 0.00192253 -0.0393413 9.12156e-13 1.34805e-12 -6.8202e-13 0 5.19295e-16
1118 14 0.001 -0.0167606 0.00268955 -0.0390752 1.21132e-12 1.15139e-12 -7.21917e-13 0 5.93955e-16
1119 14 0.001 -0.0173427 0.00192253 -0.0393413 9.3714e-13 1.34571e-12 -6.78604e-13 0 5.19295e-16
1515 16 0.001 0.00265729 0.00192253 -0.0393413 9.3963e-13 1.34088e-12 -6.79944e-13 0 5.19295e-16
1514 16 0.001 0.00323942 0.00268955 -0.0390752 1.21512e-12 1.15294e-12 -7.20916e-13 0 5.93955e-16
1910 18 0.001 0.0232394 0.00268955 -0.0390752 1.19954e-12 1.15213e-12 -7.25947e-13 0 5.93955e-16
1911 18 0.001 0.0226573 0.00192253 -0.0393413 9.39084e-13 1.34348e-12 -6.77288e-13 0 5.19295e-16
345 11 0.001 -0.0560063 0.00328843 -0.03881 1.38064e-12 8.89854e-13 -7.37869e-13 0 6.43417e-16
344 11 0.001 -0.0551268 0.00368174 -0.0385456 1.5165e-12 5.80787e-13 -6.77131e-13 0 6.62819e-16
721 12 0.001 -0.0360063 0.00328843 -0.03881 1.38312e-12 8.96022e-13 -7.31526e-13 0 6.43623e-16
720 12 0.001 -0.0351268 0.00368174 -0.0385456 1.57514e-12 5.74846e-13 -6.58422e-13 0 6.63024e-16
1117 14 0.001 -0.0160063 0.00328843 -0.03881 1.41254e-12 8.89406e-13 -7.27379e-13 0 6.43623e-16
1116 14 0.001 -0.0151268 0.00368174 -0.0385456 1.5187e-12 5.85393e-13 -6.70967e-13 0 6.63024e-16
1513 16 0.001 0.00399374 0.00328843 -0.03881 1.40118e-12 8.87739e-13 -7.29979e-13 0 6.43623e-16
1512 16 0.001 0.00487319 0.00368174 -0.0385456 1.52824e-12 5.83484e-13 -6.68909e-13 0 6.63024e-16
1909 18 0.001 0.0239937 0.00328843 -0.03881 1.44665e-12 8.91216e-13 -7.17178e-13 0 6.43623e-16
1908 18 0.001 0.0248732 0.00368174 -0.0385456 1.46776e-12 5.89326e-13 -6.845e-13 0 6.63024e-16
338 11 0.001 -0.050398 0.00136332 -0.0369631 5.69545e-13 -1.07987e-12 -5.04463e-14 0 4.30325e-16
714 12 0.001 -0.030398 0.00136332 -0.0369631 5.43573e-13 -1.0688e-12 -4.90563e-14 0 4.30512e-16
1110 14 0.001 -0.010398 0.00136332 -0.0369631 5.52132e-13 -1.06839e-12 -4.84382e-14 0 4.30512e-16
1506 16 0.001 0.009602 0.00136332 -0.0369631 5.50886e-13 -1.07017e-12 -4.83603e-14 0 4.30512e-16
1902 18 0.001 0.029602 0.00136332 -0.0369631 5.42027e-13 -1.07292e-12 -4.84376e-14 0 4.30512e-16
340 11 0.001 -0.0514996 0.00292573 -0.0374918 1.10989e-12 -6.82171e-13 -2.06728e-13 0 5.18144e-16
339 11 0.001 -0.0508504 0.00221379 -0.0372278 8.24609e-13 -8.65669e-13 -1.25104e-13 0 4.69296e-16
715 12 0.001 -0.0308504 0.00221379 -0.0372278 8.05519e-13 -8.55793e-13 -1.30016e-13 0 4.69482e-16
716 12 0.001 -0.0314996 0.00292574 -0.0374918 1.17935e-12 -6.62532e-13 -1.88039e-13 0 5.18332e-16
1111 14 0.001 -0.0108504 0.00221379 -0.0372278 8.15874e-13 -8.54817e-13 -1.27843e-13 0 4.69482e-16
1112 14 0.001 -0.0114996 0.00292574 -0.0374918 1.13743e-12 -6.65306e-13 -1.97382e-13 0 5.18332e-16
1508 16 0.001 0.0085004 0.00292574 -0.0374918 1.13818e-12 -6.65884e-13 -1.9715e-13 0 5.18332e-16
1507 16 0.001 0.00914959 0.00221379 -0.0372278 8.15081e-13 -8.54547e-13 -1.27962e-13 0 4.69482e-16
1903 18 0.001 0.0291496 0.00221379 -0.0372278 8.17277e-13 -8.50937e-13 -1.2836e-13 0 4.69482e-16
1904 18 0.001 0.0285004 0.00292574 -0.0374918 1.12448e-12 -6.6874e-13 -1.99642e-13 0 5.18332e-16
343 11 0.001 -0.0541771 0.00384486 -0.0382819 1.61335e-12 2.49522e-13 -5.66819e-13 0 6.52679e-16
342 11 0.001 -0.0532166 0.00376757 -0.0380185 1.47856e-12 -8.95549e-14 -4.56983e-13 0 6.18975e-16
341 11 0.001 -0.0523051 0.00345468 -0.0377553 1.37472e-12 -3.77518e-13 -3.24491e-13 0 5.70856e-16
719 12 0.001 -0.0341772 0.00384486 -0.0382819 1.48277e-12 2.58768e-13 -5.94346e-13 0 6.5288e-16
718 12 0.001 -0.0332166 0.00376757 -0.0380185 1.58199e-12 -8.42171e-14 -4.28668e-13 0 6.1917e-16
717 12 0.001 -0.0323051 0.00345468 -0.0377553 1.25965e-12 -3.93302e-13 -3.44754e-13 0 5.71047e-16
1115 14 0.001 -0.0141772 0.00384486 -0.0382819 1.5613e-12 2.45428e-13 -5.738e-13 0 6.5288e-16
1113 14 0.001 -0.0123051 0.00345468 -0.0377553 1.33517e-12 -3.96476e-13 -3.25139e-13 0 5.71047e-16
1114 14 0.001 -0.0132166 0.00376757 -0.0380185 1.49541e-12 -7.34279e-14 -4.52494e-13 0 6.1917e-16
1511 16 0.001 0.00582285 0.00384486 -0.0382819 1.56466e-12 2.49953e-13 -5.72759e-13 0 6.5288e-16
1510 16 0.001 0.00678343 0.00376757 -0.0380185 1.48561e-12 -7.60501e-14 -4.54961e-13 0 6.1917e-16
1509 16 0.001 0.00769491 0.00345468 -0.0377553 1.33886e-12 -3.94788e-13 -3.2443e-13 0 5.71047e-16
1907 18 0.001 0.0258228 0.00384486 -0.0382819 1.60496e-12 2.3759e-13 -5.63066e-13 0 6.5288e-16
1906 18 0.001 0.0267834 0.00376757 -0.0380185 1.45701e-12 -6.81733e-14 -4.61863e-13 0 6.1917e-16
1905 18 0.001 0.0276949 0.00345468 -0.0377553 1.369e-12 -3.98525e-13 -3.17281e-13 0 5.71047e-16
333 11 0.001 -0.0515712 -0.00299915 -0.0356322 -1.08096e-12 -6.86189e-13 -3.9592e-13 0 4.412e-16
334 11 0.001 -0.0509052 -0.00230393 -0.0358988 -7.80177e-13 -9.06751e-13 -2.92567e-13 0 4.13705e-16
709 12 0.001 -0.0315712 -0.00299915 -0.0356322 -1.07283e-12 -6.91221e-13 -3.88423e-13 0 4.41437e-16
710 12 0.001 -0.0309052 -0.00230392 -0.0358988 -7.73073e-13 -9.01397e-13 -2.91303e-13 0 4.13927e-16
1105 14 0.001 -0.0115712 -0.00299915 -0.0356322 -1.0635e-12 -7.0438e-13 -3.87125e-13 0 4.41437e-16
1106 14 0.001 -0.0109052 -0.00230392 -0.0358988 -8.1205e-13 -8.88471e-13 -2.87837e-13 0 4.13927e-16
1501 16 0.001 0.00842877 -0.00299915 -0.0356322 -1.06581e-12 -7.01628e-13 -3.86795e-13 0 4.41437e-16
1502 16 0.001 0.00909481 -0.00230392 -0.0358988 -8.03163e-13 -8.89159e-13 -2.89282e-13 0 4.13927e-16
1897 18 0.001 0.0284288 -0.00299915 -0.0356322 -1.02844e-12 -7.05115e-13 -3.94397e-13 0 4.41437e-16
1898 18 0.001 0.0290948 -0.00230392 -0.0358988 -8.27902e-13 -8.93045e-13 -2.83947e-13 0 4.13927e-16
335 11 0.001 -0.0504324 -0.00146525 -0.0361654 -5.33381e-13 -1.04232e-12 -1.87156e-13 0 3.97122e-16
336 11 0.001 -0.0501823 -0.000535457 -0.0364318 -1.83405e-13 -1.15966e-12 -9.55422e-14 0 3.93675e-16
711 12 0.001 -0.0304324 -0.00146525 -0.0361654 -5.28056e-13 -1.02217e-12 -1.87165e-13 0 3.97331e-16
712 12 0.001 -0.0301823 -0.000535454 -0.0364318 -1.63221e-13 -1.14414e-12 -9.59132e-14 0 3.93874e-16
1107 14 0.001 -0.0104324 -0.00146525 -0.0361654 -4.99362e-13 -1.03475e-12 -1.87738e-13 0 3.97331e-16
1108 14 0.001 -0.0101823 -0.000535454 -0.0364318 -1.71929e-13 -1.13785e-12 -9.61874e-14 0 3.93874e-16
1503 16 0.001 0.00956763 -0.00146525 -0.0361654 -5.11864e-13 -1.03839e-12 -1.84426e-13 0 3.97331e-16
1504 16 0.001 0.00981771 -0.000535454 -0.0364318 -1.68673e-13 -1.13142e-12 -9.98368e-14 0 3.93874e-16
1899 18 0.001 0.0295676 -0.00146525 -0.0361654 -5.06228e-13 -1.03757e-12 -1.85507e-13 0 3.97331e-16
1900 18 0.001 0.0298177 -0.000535454 -0.0364318 -1.68959e-13 -1.13264e-12 -1.00019e-13 0 3.93874e-16
337 11 0.001 -0.0501706 0.000427429 -0.0366978 1.62891e-13 -1.06901e-12 -8.40227e-14 0 4.04676e-16
713 12 0.001 -0.0301706 0.000427433 -0.0366978 1.68448e-13 -1.06983e-12 -7.68925e-14 0 4.04867e-16
1109 14 0.001 -0.0101706 0.000427433 -0.0366978 1.59825e-13 -1.071e-12 -7.75889e-14 0 4.04867e-16
1505 16 0.001 0.00982942 0.000427433 -0.0366978 1.64168e-13 -1.073e-12 -7.59316e-14 0 4.04867e-16
1901 18 0.001 0.0298294 0.000427433 -0.0366978 1.72226e-13 -1.0676e-12 -7.63989e-14 0 4.04867e-16
328 11 0.001 -0.0560831 -0.00324793 -0.0343054 -1.17212e-12 7.11027e-13 -5.51199e-13 0 6.2381e-16
329 11 0.001 -0.0552138 -0.00366336 -0.0345697 -1.2967e-12 4.28593e-13 -6.02257e-13 0 5.92863e-16
330 11 0.001 -0.0542689 -0.00385036 -0.0348346 -1.40494e-12 1.51536e-13 -5.91279e-13 0 5.56101e-16
331 11 0.001 -0.0533073 -0.0037973 -0.0351 -1.39496e-12 -1.58442e-13 -5.50672e-13 0 5.16158e-16
332 11 0.001 -0.0523889 -0.00350753 -0.0353659 -1.22981e-12 -4.38679e-13 -4.98002e-13 0 4.76568e-16
704 12 0.001 -0.0360831 -0.00324793 -0.0343054 -1.1805e-12 6.89677e-13 -5.49328e-13 0 6.24132e-16
705 12 0.001 -0.0352138 -0.00366336 -0.0345697 -1.27381e-12 4.34258e-13 -5.98069e-13 0 5.93169e-16
706 12 0.001 -0.0342689 -0.00385037 -0.0348345 -1.49685e-12 1.59001e-13 -5.61125e-13 0 5.5639e-16
707 12 0.001 -0.0333073 -0.0037973 -0.0350999 -1.21665e-12 -1.56115e-13 -5.91306e-13 0 5.1643e-16
708 12 0.001 -0.0323889 -0.00350753 -0.0353659 -1.30678e-12 -4.40482e-13 -4.73898e-13 0 4.76822e-16
1100 14 0.001 -0.0160831 -0.00324793 -0.0343054 -1.1829e-12 6.94633e-13 -5.47631e-13 0 6.24132e-16
1101 14 0.001 -0.0152138 -0.00366336 -0.0345697 -1.30601e-12 4.35931e-13 -5.91089e-13 0 5.93169e-16
1102 14 0.001 -0.0142689 -0.00385037 -0.0348345 -1.37213e-12 1.4332e-13 -5.94084e-13 0 5.5639e-16
1104 14 0.001 -0.0123889 -0.00350753 -0.0353659 -1.23653e-12 -4.27452e-13 -4.93747e-13 0 4.76822e-16
1103 14 0.001 -0.0133073 -0.0037973 -0.0350999 -1.36449e-12 -1.53954e-13 -5.51866e-13 0 5.1643e-16
1496 16 0.001 0.00391694 -0.00324793 -0.0343054 -1.17192e-12 6.93405e-13 -5.50158e-13 0 6.24132e-16
1497 16 0.001 0.00478617 -0.00366336 -0.0345697 -1.3142e-12 4.36592e-13 -5.88719e-13 0 5.93169e-16
1498 16 0.001 0.0057311 -0.00385037 -0.0348345 -1.37453e-12 1.44597e-13 -5.94103e-13 0 5.5639e-16
1499 16 0.001 0.00669275 -0.0037973 -0.0350999 -1.34996e-12 -1.51443e-13 -5.55209e-13 0 5.1643e-16
1500 16 0.001 0.00761108 -0.00350753 -0.0353659 -1.2451e-12 -4.33088e-13 -4.91518e-13 0 4.76822e-16
1892 18 0.001 0.0239169 -0.00324793 -0.0343054 -1.20393e-12 6.90873e-13 -5.44075e-13 0 6.24132e-16
1893 18 0.001 0.0247862 -0.00366336 -0.0345697 -1.28268e-12 4.32502e-13 -5.96542e-13 0 5.93169e-16
1894 18 0.001 0.0257311 -0.00385037 -0.0348345 -1.40488e-12 1.49108e-13 -5.86105e-13 0 5.5639e-16
1895 18 0.001 0.0266927 -0.0037973 -0.0350999 -1.32224e-12 -1.60098e-13 -5.61629e-13 0 5.1643e-16
1896 18 0.001 0.0276111 -0.00350753 -0.0353659 -1.27779e-12 -4.20715e-13 -4.85115e-13 0 4.76822e-16
327 11 0.001 -0.0568223 -0.00262997 -0.0340415 -1.00867e-12 9.03433e-13 -4.8468e-13 0 6.47595e-16
703 12 0.001 -0.0368223 -0.00262997 -0.0340415 -9.7211e-13 9.04779e-13 -4.81663e-13 0 6.47933e-16