ITEM: TIMESTEP
1600000
ITEM: NUMBER OF ATOMS
1970
ITEM: BOX BOUNDS ff ff ff
-6.0000000000000005e-02 6.0000000000000005e-02
-6.0000000000000001e-03 6.0000000000000001e-03
-5.5000000000000000e-02 5.5000000000000000e-02
ITEM: ATOMS id type radius x y z fx fy fz c_bendingE c_stretchingE
384 11 0.001 -0.050917 -0.00261726 -0.0490268 -4.00366e-12 5.12963e-13 -2.95543e-12 0 2.87642e-15
385 11 0.001 -0.0503878 -0.001828 -0.0493351 -2.62532e-12 6.29958e-14 -1.8059e-12 0 3.61237e-15
760 12 0.001 -0.030917 -0.00261726 -0.0490268 -3.88171e-12 4.95587e-13 -2.96494e-12 0 2.87642e-15
761 12 0.001 -0.0303878 -0.001828 -0.0493351 -2.77046e-12 6.5773e-14 -1.79443e-12 0 3.61237e-15
1156 14 0.001 -0.010917 -0.00261726 -0.0490268 -3.92222e-12 5.11309e-13 -2.96275e-12 0 2.87642e-15
1157 14 0.001 -0.0103878 -0.001828 -0.0493351 -2.73984e-12 5.89422e-14 -1.7958e-12 0 3.61237e-15
1552 16 0.001 0.00908296 -0.00261726 -0.0490268 -3.90957e-12 4.98591e-13 -2.96076e-12 0 2.87642e-15
1553 16 0.001 0.00961216 -0.001828 -0.0493351 -2.75495e-12 6.40387e-14 -1.79603e-12 0 3.61237e-15
1948 18 0.001 0.029083 -0.00261726 -0.0490268 -3.92946e-12 4.92454e-13 -2.95447e-12 0 2.87642e-15
1949 18 0.001 0.0296122 -0.001828 -0.0493351 -2.73538e-12 7.00767e-14 -1.80082e-12 0 3.61237e-15
2 2 0.001 -0.05 -4.31175e-17 -0.05 -8.23722e-06 1.29857e-05 9.97048e-07 0 2.77468e-16
386 11 0.001 -0.0500759 -0.000936599 -0.0496608 -1.4834e-12 -1.1658e-13 -7.86392e-13 0 1.60455e-15
762 12 0.001 -0.0300759 -0.000936599 -0.0496608 -1.40541e-12 -1.04489e-13 -7.94556e-13 0 1.60455e-15
4 4 0.001 -0.03 -4.31175e-17 -0.05 -8.23722e-06 1.29857e-05 9.97048e-07 0 2.77468e-16
6 6 0.001 -0.01 -4.31175e-17 -0.05 -8.23722e-06 1.29857e-05 9.97048e-07 0 2.77468e-16
1158 14 0.001 -0.0100759 -0.000936599 -0.0496608 -1.41373e-12 -1.01882e-13 -7.94627e-13 0 1.60455e-15
8 8 0.001 0.01 -4.31175e-17 -0.05 -8.23722e-06 1.29857e-05 9.97048e-07 0 2.77468e-16
1554 16 0.001 0.00992411 -0.000936599 -0.0496608 -1.40617e-12 -1.04732e-13 -7.94049e-13 0 1.60455e-15
10 10 0.001 0.03 -4.31175e-17 -0.05 -8.23722e-06 1.29857e-05 9.97048e-07 0 2.77468e-16
1950 18 0.001 0.0299241 -0.000936599 -0.0496608 -1.41904e-12 -1.0599e-13 -7.92559e-13 0 1.60455e-15
378 11 0.001 -0.0561857 -0.0031557 -0.0475432 -5.01714e-12 5.72406e-12 -5.88005e-12 0 5.15995e-15
379 11 0.001 -0.0553377 -0.00363654 -0.047762 -5.8578e-12 4.92576e-12 -6.40411e-12 0 4.31618e-15
380 11 0.001 -0.054399 -0.0038946 -0.0479859 -5.9835e-12 3.98013e-12 -6.48616e-12 0 2.9105e-15
381 11 0.001 -0.0534281 -0.0039144 -0.0482204 -6.05069e-12 2.97564e-12 -6.02503e-12 0 1.34085e-15
382 11 0.001 -0.0524858 -0.00369572 -0.04847 -5.58515e-12 1.96468e-12 -5.21101e-12 0 2.97439e-16
383 11 0.001 -0.0516311 -0.00325361 -0.0487383 -4.90409e-12 1.17178e-12 -4.1318e-12 0 5.95702e-16
754 12 0.001 -0.0361857 -0.0031557 -0.0475432 -5.0376e-12 5.70009e-12 -5.88175e-12 0 5.15995e-15
755 12 0.001 -0.0353377 -0.00363654 -0.047762 -5.84295e-12 4.93812e-12 -6.40589e-12 0 4.31618e-15
756 12 0.001 -0.034399 -0.0038946 -0.0479859 -6.0292e-12 3.97648e-12 -6.47577e-12 0 2.9105e-15
757 12 0.001 -0.0334281 -0.0039144 -0.0482204 -6.01778e-12 2.97011e-12 -6.03129e-12 0 1.34085e-15
758 12 0.001 -0.0324858 -0.00369572 -0.04847 -5.59733e-12 1.97156e-12 -5.20982e-12 0 2.97439e-16
759 12 0.001 -0.0316311 -0.00325361 -0.0487383 -4.93703e-12 1.18174e-12 -4.12975e-12 0 5.95702e-16
1151 14 0.001 -0.0153377 -0.00363654 -0.047762 -5.7892e-12 4.93683e-12 -6.41729e-12 0 4.31618e-15
1150 14 0.001 -0.0161857 -0.0031557 -0.0475432 -5.0795e-12 5.71817e-12 -5.87066e-12 0 5.15995e-15
1152 14 0.001 -0.014399 -0.0038946 -0.0479859 -6.04805e-12 3.97656e-12 -6.47179e-12 0 2.9105e-15
1153 14 0.001 -0.0134281 -0.0039144 -0.0482204 -5.99735e-12 2.95551e-12 -6.03499e-12 0 1.34085e-15
1154 14 0.001 -0.0124858 -0.00369572 -0.04847 -5.63548e-12 1.9924e-12 -5.20382e-12 0 2.97439e-16
1155 14 0.001 -0.0116311 -0.00325361 -0.0487383 -4.89825e-12 1.15904e-12 -4.13299e-12 0 5.95702e-16
1546 16 0.001 0.00381435 -0.0031557 -0.0475432 -5.10244e-12 5.7139e-12 -5.86658e-12 0 5.15995e-15
1547 16 0.001 0.00466225 -0.00363654 -0.047762 -5.76922e-12 4.94015e-12 -6.42152e-12 0 4.31618e-15
1548 16 0.001 0.00560102 -0.0038946 -0.0479859 -6.042e-12 3.97162e-12 -6.47264e-12 0 2.9105e-15
1549 16 0.001 0.00657192 -0.0039144 -0.0482204 -6.01915e-12 2.96491e-12 -6.03153e-12 0 1.34085e-15
1550 16 0.001 0.00751418 -0.00369572 -0.04847 -5.6233e-12 1.9786e-12 -5.20381e-12 0 2.97439e-16
1551 16 0.001 0.00836892 -0.00325361 -0.0487383 -4.9043e-12 1.17619e-12 -4.13615e-12 0 5.95702e-16
1942 18 0.001 0.0238143 -0.0031557 -0.0475432 -5.08463e-12 5.71077e-12 -5.87078e-12 0 5.15995e-15
1943 18 0.001 0.0246623 -0.00363654 -0.047762 -5.78656e-12 4.94181e-12 -6.41759e-12 0 4.31618e-15
1944 18 0.001 0.025601 -0.0038946 -0.0479859 -6.03526e-12 3.9693e-12 -6.47407e-12 0 2.9105e-15
1945 18 0.001 0.0265719 -0.0039144 -0.0482204 -6.02072e-12 2.96542e-12 -6.03103e-12 0 1.34085e-15
1946 18 0.001 0.0275142 -0.00369572 -0.04847 -5.63071e-12 1.98145e-12 -5.20239e-12 0 2.97439e-16
1947 18 0.001 0.0283689 -0.00325361 -0.0487383 -4.88688e-12 1.17634e-12 -4.14078e-12 0 5.95702e-16
376 11 0.001 -0.0574068 -0.00165689 -0.0470999 -3.02845e-12 6.5497e-12 -3.45024e-12 0 5.02085e-15
377 11 0.001 -0.0568899 -0.00248182 -0.0473241 -4.27434e-12 6.28868e-12 -4.82671e-12 0 5.35205e-15
753 12 0.001 -0.0368899 -0.00248182 -0.0473241 -4.18872e-12 6.3164e-12 -4.82906e-12 0 5.35205e-15
752 12 0.001 -0.0374068 -0.00165689 -0.0470999 -3.16529e-12 6.53198e-12 -3.44691e-12 0 5.02085e-15
1149 14 0.001 -0.0168899 -0.00248182 -0.0473241 -4.22271e-12 6.29697e-12 -4.8304e-12 0 5.35205e-15
1148 14 0.001 -0.0174068 -0.00165689 -0.0470999 -3.09066e-12 6.53829e-12 -3.45031e-12 0 5.02085e-15
1544 16 0.001 0.00259319 -0.00165689 -0.0470999 -3.07354e-12 6.53943e-12 -3.45008e-12 0 5.02085e-15
1545 16 0.001 0.00311014 -0.00248182 -0.0473241 -4.21406e-12 6.30042e-12 -4.83169e-12 0 5.35205e-15
1941 18 0.001 0.0231101 -0.00248182 -0.0473241 -4.21264e-12 6.30371e-12 -4.83027e-12 0 5.35205e-15
1940 18 0.001 0.0225932 -0.00165689 -0.0470999 -3.0994e-12 6.53674e-12 -3.44965e-12 0 5.02085e-15
375 11 0.001 -0.0577049 -0.000732348 -0.0468667 -1.87322e-12 6.46742e-12 -1.89192e-12 0 4.38752e-15
751 12 0.001 -0.0377049 -0.000732348 -0.0468667 -1.75854e-12 6.4675e-12 -1.89339e-12 0 4.38752e-15
1147 14 0.001 -0.0177049 -0.000732348 -0.0468667 -1.81212e-12 6.47495e-12 -1.89076e-12 0 4.38752e-15
1543 16 0.001 0.00229511 -0.000732348 -0.0468667 -1.85006e-12 6.47002e-12 -1.89203e-12 0 4.38752e-15
1939 18 0.001 0.0222951 -0.000732348 -0.0468667 -1.81918e-12 6.47082e-12 -1.8925e-12 0 4.38752e-15
373 11 0.001 -0.0575881 0.00118321 -0.0463655 7.33501e-13 5.43576e-12 9.00808e-13 0 2.99569e-15
374 11 0.001 -0.0577663 0.000234324 -0.0466222 -5.98513e-13 6.09053e-12 -3.79858e-13 0 3.66337e-15
749 12 0.001 -0.0375881 0.00118321 -0.0463655 7.15685e-13 5.42949e-12 8.97028e-13 0 2.99569e-15
750 12 0.001 -0.0377663 0.000234324 -0.0466222 -6.33048e-13 6.09756e-12 -3.7799e-13 0 3.66337e-15
1145 14 0.001 -0.0175881 0.00118321 -0.0463655 6.92633e-13 5.4379e-12 8.95641e-13 0 2.99569e-15
1146 14 0.001 -0.0177663 0.000234324 -0.0466222 -6.04224e-13 6.08696e-12 -3.78741e-13 0 3.66337e-15
1541 16 0.001 0.00241192 0.00118321 -0.0463655 6.84944e-13 5.43332e-12 8.94192e-13 0 2.99569e-15
1542 16 0.001 0.00223368 0.000234324 -0.0466222 -5.75923e-13 6.09267e-12 -3.767e-13 0 3.66337e-15
1937 18 0.001 0.0224119 0.00118321 -0.0463655 6.86451e-13 5.43141e-12 8.93797e-13 0 2.99569e-15
1938 18 0.001 0.0222337 0.000234324 -0.0466222 -5.88168e-13 6.0935e-12 -3.76105e-13 0 3.66337e-15
372 11 0.001 -0.057182 0.00205567 -0.0460974 1.82268e-12 4.53806e-12 1.72774e-12 0 2.4582e-15
748 12 0.001 -0.037182 0.00205567 -0.0460974 1.82433e-12 4.5404e-12 1.72708e-12 0 2.4582e-15
1144 14 0.001 -0.017182 0.00205567 -0.0460974 1.84009e-12 4.52424e-12 1.72741e-12 0 2.4582e-15
1540 16 0.001 0.00281804 0.00205567 -0.0460974 1.85267e-12 4.532e-12 1.7316e-12 0 2.4582e-15
1936 18 0.001 0.022818 0.00205567 -0.0460974 1.83729e-12 4.53254e-12 1.72857e-12 0 2.4582e-15
371 11 0.001 -0.0565737 0.00279791 -0.0458197 2.91389e-12 3.45997e-12 2.04861e-12 0 2.06749e-15
747 12 0.001 -0.0365737 0.00279791 -0.0458197 2.93589e-12 3.45112e-12 2.05242e-12 0 2.06749e-15
1143 14 0.001 -0.0165737 0.00279791 -0.0458197 2.93478e-12 3.4753e-12 2.05466e-12 0 2.06749e-15
1539 16 0.001 0.00342629 0.00279791 -0.0458197 2.90642e-12 3.46567e-12 2.0464e-12 0 2.06749e-15
1935 18 0.001 0.0234263 0.00279791 -0.0458197 2.93221e-12 3.47006e-12 2.05276e-12 0 2.06749e-15
370 11 0.001 -0.0558015 0.00336419 -0.045535 3.81858e-12 2.24576e-12 1.82032e-12 0 1.80629e-15
369 11 0.001 -0.0549135 0.00371955 -0.0452465 4.46899e-12 9.38186e-13 1.11368e-12 0 1.6419e-15
367 11 0.001 -0.0530157 0.00372383 -0.04467 5.009e-12 -1.74591e-12 -1.04039e-12 0 1.45642e-15
368 11 0.001 -0.0539652 0.00384199 -0.0449573 4.94097e-12 -4.10597e-13 1.07841e-13 0 1.53713e-15
745 12 0.001 -0.0349135 0.00371955 -0.0452465 4.51551e-12 9.37098e-13 1.12458e-12 0 1.6419e-15
746 12 0.001 -0.0358015 0.00336419 -0.045535 3.79179e-12 2.25798e-12 1.81609e-12 0 1.80629e-15
744 12 0.001 -0.0339652 0.00384199 -0.0449573 4.88146e-12 -4.12354e-13 9.29955e-14 0 1.53713e-15
743 12 0.001 -0.0330157 0.00372383 -0.04467 5.07395e-12 -1.75062e-12 -1.02349e-12 0 1.45642e-15
1142 14 0.001 -0.0158015 0.00336419 -0.045535 3.79988e-12 2.24255e-12 1.81806e-12 0 1.80629e-15
1140 14 0.001 -0.0139652 0.00384199 -0.0449573 4.91563e-12 -4.15486e-13 1.00566e-13 0 1.53713e-15
1141 14 0.001 -0.0149135 0.00371955 -0.0452465 4.49142e-12 9.41472e-13 1.118e-12 0 1.6419e-15
1139 14 0.001 -0.0130157 0.00372383 -0.04467 5.02933e-12 -1.74954e-12 -1.03207e-12 0 1.45642e-15
1538 16 0.001 0.00419851 0.00336419 -0.045535 3.82109e-12 2.24492e-12 1.82362e-12 0 1.80629e-15
1537 16 0.001 0.00508649 0.00371955 -0.0452465 4.48509e-12 9.42141e-13 1.11647e-12 0 1.6419e-15
1535 16 0.001 0.00698432 0.00372383 -0.04467 5.0147e-12 -1.7449e-12 -1.03784e-12 0 1.45642e-15
1536 16 0.001 0.00603484 0.00384199 -0.0449573 4.92071e-12 -4.15472e-13 1.02553e-13 0 1.53713e-15
1933 18 0.001 0.0250865 0.00371955 -0.0452465 4.48927e-12 9.43533e-13 1.11797e-12 0 1.6419e-15
1934 18 0.001 0.0241985 0.00336419 -0.045535 3.80878e-12 2.24012e-12 1.82017e-12 0 1.80629e-15
1932 18 0.001 0.0260348 0.00384199 -0.0449573 4.92432e-12 -4.15483e-13 1.03053e-13 0 1.53713e-15
1931 18 0.001 0.0269843 0.00372383 -0.04467 5.00379e-12 -1.74289e-12 -1.04034e-12 0 1.45642e-15
361 11 0.001 -0.0501973 -0.000709391 -0.0430422 -3.24069e-15 -4.91986e-12 -1.81754e-12 0 7.32551e-16
737 12 0.001 -0.0301973 -0.000709391 -0.0430422 2.82992e-14 -4.9166e-12 -1.81884e-12 0 7.32551e-16
1133 14 0.001 -0.0101973 -0.000709391 -0.0430422 6.25706e-16 -4.91523e-12 -1.81789e-12 0 7.32551e-16
1529 16 0.001 0.00980268 -0.000709391 -0.0430422 -3.72675e-15 -4.9099e-12 -1.81856e-12 0 7.32551e-16
1925 18 0.001 0.0298027 -0.000709391 -0.0430422 2.64682e-14 -4.91277e-12 -1.81856e-12 0 7.32551e-16
362 11 0.001 -0.0501402 0.000253193 -0.0433034 1.17396e-12 -5.22621e-12 -2.5896e-12 0 8.45311e-16
363 11 0.001 -0.0503232 0.00119918 -0.0435673 2.3271e-12 -5.18147e-12 -3.08326e-12 0 9.84888e-16
738 12 0.001 -0.0301402 0.000253193 -0.0433034 1.16033e-12 -5.22952e-12 -2.58879e-12 0 8.45311e-16
739 12 0.001 -0.0303232 0.00119918 -0.0435673 2.31204e-12 -5.1791e-12 -3.08602e-12 0 9.84888e-16
1134 14 0.001 -0.0101402 0.000253193 -0.0433034 1.16661e-12 -5.2297e-12 -2.58957e-12 0 8.45311e-16
1135 14 0.001 -0.0103232 0.00119918 -0.0435673 2.32454e-12 -5.17858e-12 -3.08383e-12 0 9.84888e-16
1530 16 0.001 0.00985975 0.000253193 -0.0433034 1.1683e-12 -5.23175e-12 -2.58998e-12 0 8.45311e-16
1531 16 0.001 0.00967682 0.00119918 -0.0435673 2.3323e-12 -5.17841e-12 -3.08289e-12 0 9.84888e-16
1926 18 0.001 0.0298598 0.000253193 -0.0433034 1.15726e-12 -5.23089e-12 -2.58867e-12 0 8.45311e-16
1927 18 0.001 0.0296768 0.00119918 -0.0435673 2.3049e-12 -5.18024e-12 -3.08616e-12 0 9.84888e-16
365 11 0.001 -0.0513478 0.00280907 -0.0441082 4.26846e-12 -4.0179e-12 -2.8247e-12 0 1.26312e-15
364 11 0.001 -0.0507344 0.0020693 -0.0438352 3.35827e-12 -4.7706e-12 -3.18684e-12 0 1.13069e-15
740 12 0.001 -0.0307344 0.0020693 -0.0438352 3.37472e-12 -4.76385e-12 -3.18607e-12 0 1.13069e-15
741 12 0.001 -0.0313478 0.00280907 -0.0441082 4.28632e-12 -4.03252e-12 -2.81714e-12 0 1.26312e-15
1136 14 0.001 -0.0107344 0.0020693 -0.0438352 3.37667e-12 -4.76747e-12 -3.18623e-12 0 1.13069e-15
1137 14 0.001 -0.0113478 0.00280907 -0.0441082 4.25756e-12 -4.03263e-12 -2.82026e-12 0 1.26312e-15
1533 16 0.001 0.00865219 0.00280907 -0.0441082 4.24885e-12 -4.02753e-12 -2.82449e-12 0 1.26312e-15
1532 16 0.001 0.00926559 0.0020693 -0.0438352 3.37152e-12 -4.7675e-12 -3.18618e-12 0 1.13069e-15
1928 18 0.001 0.0292656 0.0020693 -0.0438352 3.39738e-12 -4.76547e-12 -3.18275e-12 0 1.13069e-15
1929 18 0.001 0.0286522 0.00280907 -0.0441082 4.24933e-12 -4.0323e-12 -2.82349e-12 0 1.26312e-15
366 11 0.001 -0.0521246 0.00337226 -0.0443866 4.79056e-12 -2.9796e-12 -2.07554e-12 0 1.37086e-15
742 12 0.001 -0.0321246 0.00337226 -0.0443866 4.73445e-12 -2.969e-12 -2.09127e-12 0 1.37086e-15
1138 14 0.001 -0.0121246 0.00337226 -0.0443866 4.77603e-12 -2.96481e-12 -2.08557e-12 0 1.37086e-15
1534 16 0.001 0.00787544 0.00337226 -0.0443866 4.79595e-12 -2.97446e-12 -2.07745e-12 0 1.37086e-15
1930 18 0.001 0.0278754 0.00337226 -0.0443866 4.79242e-12 -2.97187e-12 -2.0792e-12 0 1.37086e-15
355 11 0.001 -0.054437 -0.00384241 -0.0414759 -3.7775e-12 1.42036e-12 -3.33442e-13 0 1.31641e-15
356 11 0.001 -0.0534734 -0.00383202 -0.0417395 -3.77013e-12 1.2689e-13 2.59755e-13 0 1.02669e-15
357 11 0.001 -0.0525422 -0.00358323 -0.042002 -3.33133e-12 -1.13323e-12 4.68293e-13 0 8.21502e-16
358 11 0.001 -0.0517012 -0.00311145 -0.0422631 -2.81103e-12 -2.32931e-12 3.25698e-13 0 6.98224e-16
731 12 0.001 -0.034437 -0.00384241 -0.0414759 -3.7768e-12 1.43258e-12 -3.34027e-13 0 1.31641e-15
732 12 0.001 -0.0334734 -0.00383202 -0.0417395 -3.77161e-12 1.27905e-13 2.597e-13 0 1.02669e-15
733 12 0.001 -0.0325422 -0.00358323 -0.042002 -3.27725e-12 -1.13731e-12 4.57506e-13 0 8.21502e-16
734 12 0.001 -0.0317012 -0.00311145 -0.0422631 -2.88955e-12 -2.32448e-12 3.39389e-13 0 6.98224e-16
1127 14 0.001 -0.014437 -0.00384241 -0.0414759 -3.84369e-12 1.40907e-12 -3.15153e-13 0 1.31641e-15
1128 14 0.001 -0.0134734 -0.00383202 -0.0417395 -3.72722e-12 1.38192e-13 2.4773e-13 0 1.02669e-15
1129 14 0.001 -0.0125422 -0.00358323 -0.042002 -3.35887e-12 -1.13647e-12 4.76023e-13 0 8.21502e-16
1130 14 0.001 -0.0117012 -0.00311145 -0.0422631 -2.77782e-12 -2.32564e-12 3.16421e-13 0 6.98224e-16
1523 16 0.001 0.00556305 -0.00384241 -0.0414759 -3.84061e-12 1.41841e-12 -3.16667e-13 0 1.31641e-15
1524 16 0.001 0.0065266 -0.00383202 -0.0417395 -3.7128e-12 1.35018e-13 2.4414e-13 0 1.02669e-15
1525 16 0.001 0.00745785 -0.00358323 -0.042002 -3.36253e-12 -1.13975e-12 4.77534e-13 0 8.21502e-16
1526 16 0.001 0.00829882 -0.00311145 -0.0422631 -2.7936e-12 -2.32127e-12 3.18726e-13 0 6.98224e-16
1919 18 0.001 0.025563 -0.00384241 -0.0414759 -3.83736e-12 1.42332e-12 -3.17613e-13 0 1.31641e-15
1920 18 0.001 0.0265266 -0.00383202 -0.0417395 -3.69843e-12 1.30284e-13 2.40616e-13 0 1.02669e-15
1921 18 0.001 0.0274578 -0.00358323 -0.042002 -3.38713e-12 -1.13945e-12 4.83584e-13 0 8.21502e-16
1922 18 0.001 0.0282988 -0.00311145 -0.0422631 -2.7755e-12 -2.32487e-12 3.15788e-13 0 6.98224e-16
359 11 0.001 -0.0510029 -0.00244598 -0.0425232 -2.00698e-12 -3.39604e-12 -1.9519e-13 0 6.48524e-16
360 11 0.001 -0.050491 -0.00162827 -0.0427826 -1.0896e-12 -4.28157e-12 -9.61539e-13 0 6.63076e-16
735 12 0.001 -0.0310029 -0.00244598 -0.0425232 -1.94649e-12 -3.40098e-12 -2.02972e-13 0 6.48524e-16
736 12 0.001 -0.030491 -0.00162827 -0.0427826 -1.13125e-12 -4.28127e-12 -9.58124e-13 0 6.63076e-16
1131 14 0.001 -0.0110029 -0.00244598 -0.0425232 -2.02446e-12 -3.39525e-12 -1.90916e-13 0 6.48524e-16
1132 14 0.001 -0.010491 -0.00162827 -0.0427826 -1.08732e-12 -4.28778e-12 -9.61294e-13 0 6.63076e-16
1527 16 0.001 0.00899707 -0.00244598 -0.0425232 -2.00636e-12 -3.39886e-12 -1.92889e-13 0 6.48524e-16
1528 16 0.001 0.00950902 -0.00162827 -0.0427826 -1.09516e-12 -4.28981e-12 -9.60189e-13 0 6.63076e-16
1923 18 0.001 0.0289971 -0.00244598 -0.0425232 -2.02867e-12 -3.40033e-12 -1.88901e-13 0 6.48524e-16
1924 18 0.001 0.029509 -0.00162827 -0.0427826 -1.09254e-12 -4.2821e-12 -9.63741e-13 0 6.63076e-16
353 11 0.001 -0.0562228 -0.00316052 -0.0409468 -3.31674e-12 3.78393e-12 -1.92478e-12 0 2.09763e-15
354 11 0.001 -0.0553728 -0.00361382 -0.0412115 -3.74685e-12 2.65879e-12 -1.08791e-12 0 1.68153e-15
729 12 0.001 -0.0362228 -0.00316052 -0.0409468 -3.29303e-12 3.79334e-12 -1.93036e-12 0 2.09763e-15
730 12 0.001 -0.0353728 -0.00361382 -0.0412115 -3.78398e-12 2.64377e-12 -1.07861e-12 0 1.68153e-15
1125 14 0.001 -0.0162228 -0.00316052 -0.0409468 -3.32447e-12 3.78352e-12 -1.92186e-12 0 2.09763e-15
1126 14 0.001 -0.0153728 -0.00361382 -0.0412115 -3.70889e-12 2.66308e-12 -1.09888e-12 0 1.68153e-15
1521 16 0.001 0.00377719 -0.00316052 -0.0409468 -3.31975e-12 3.77969e-12 -1.92511e-12 0 2.09763e-15
1522 16 0.001 0.00462717 -0.00361382 -0.0412115 -3.72417e-12 2.65905e-12 -1.0936e-12 0 1.68153e-15
1917 18 0.001 0.0237772 -0.00316052 -0.0409468 -3.33144e-12 3.78135e-12 -1.92236e-12 0 2.09763e-15
1918 18 0.001 0.0246272 -0.00361382 -0.0412115 -3.72185e-12 2.6578e-12 -1.09402e-12 0 1.68153e-15
351 11 0.001 -0.0574621 -0.0017049 -0.040418 -1.82482e-12 5.35808e-12 -3.10883e-12 0 2.92509e-15
352 11 0.001 -0.056934 -0.00251072 -0.0406822 -2.70531e-12 4.69931e-12 -2.6427e-12 0 2.52682e-15
727 12 0.001 -0.0374621 -0.0017049 -0.040418 -1.83375e-12 5.35774e-12 -3.10603e-12 0 2.92509e-15
728 12 0.001 -0.036934 -0.00251072 -0.0406822 -2.69034e-12 4.69131e-12 -2.64672e-12 0 2.52682e-15
1123 14 0.001 -0.0174621 -0.0017049 -0.040418 -1.83361e-12 5.3548e-12 -3.10846e-12 0 2.92509e-15
1124 14 0.001 -0.016934 -0.00251072 -0.0406822 -2.69727e-12 4.6978e-12 -2.64473e-12 0 2.52682e-15
1519 16 0.001 0.00253794 -0.0017049 -0.040418 -1.83909e-12 5.35702e-12 -3.10679e-12 0 2.92509e-15
1520 16 0.001 0.00306601 -0.00251072 -0.0406822 -2.68915e-12 4.69911e-12 -2.64544e-12 0 2.52682e-15
1915 18 0.001 0.0225379 -0.0017049 -0.040418 -1.8212e-12 5.3618e-12 -3.10739e-12 0 2.92509e-15
1916 18 0.001 0.023066 -0.00251072 -0.0406822 -2.68574e-12 4.69462e-12 -2.6474e-12 0 2.52682e-15
350 11 0.001 -0.0577741 -0.000793245 -0.0401543 -8.55769e-13 5.67715e-12 -3.23017e-12 0 3.25268e-15
726 12 0.001 -0.0377741 -0.000793245 -0.0401543 -8.70111e-13 5.67987e-12 -3.23055e-12 0 3.25268e-15
1122 14 0.001 -0.0177741 -0.000793245 -0.0401543 -8.53526e-13 5.6812e-12 -3.22951e-12 0 3.25268e-15
1518 16 0.001 0.00222588 -0.000793245 -0.0401543 -8.51313e-13 5.68008e-12 -3.23042e-12 0 3.25268e-15
1914 18 0.001 0.0222259 -0.000793245 -0.0401543 -8.83471e-13 5.67716e-12 -3.22884e-12 0 3.25268e-15
348 11 0.001 -0.0576869 0.00111723 -0.0396283 1.22202e-12 5.28285e-12 -2.45805e-12 0 3.61094e-15
349 11 0.001 -0.0578507 0.000167435 -0.0398912 1.79842e-13 5.68492e-12 -2.98643e-12 0 3.48366e-15
724 12 0.001 -0.0376869 0.00111723 -0.0396283 1.19599e-12 5.29313e-12 -2.45863e-12 0 3.61094e-15
725 12 0.001 -0.0378507 0.000167435 -0.0398912 2.00578e-13 5.68444e-12 -2.98519e-12 0 3.48366e-15
1120 14 0.001 -0.0176869 0.00111723 -0.0396283 1.19122e-12 5.288e-12 -2.45962e-12 0 3.61094e-15
1121 14 0.001 -0.0178507 0.000167435 -0.0398912 1.9159e-13 5.68234e-12 -2.98649e-12 0 3.48366e-15
1516 16 0.001 0.0023131 0.00111723 -0.0396283 1.19939e-12 5.28746e-12 -2.46007e-12 0 3.61094e-15
1517 16 0.001 0.00214934 0.000167435 -0.0398912 1.83029e-13 5.6817e-12 -2.98596e-12 0 3.48366e-15
1912 18 0.001 0.0223131 0.00111723 -0.0396283 1.19315e-12 5.29125e-12 -2.45838e-12 0 3.61094e-15
1913 18 0.001 0.0221493 0.000167435 -0.0398912 2.09614e-13 5.68383e-12 -2.98659e-12 0 3.48366e-15
347 11 0.001 -0.057293 0.00199691 -0.0393655 2.06595e-12 4.6612e-12 -1.73027e-12 0 3.64579e-15
346 11 0.001 -0.0566937 0.00275159 -0.0391025 2.86198e-12 3.7403e-12 -9.56379e-13 0 3.61247e-15
722 12 0.001 -0.0366937 0.00275159 -0.0391025 2.80356e-12 3.74489e-12 -9.65973e-13 0 3.61247e-15
723 12 0.001 -0.037293 0.00199691 -0.0393655 2.11412e-12 4.64908e-12 -1.72542e-12 0 3.64579e-15
1118 14 0.001 -0.0166937 0.00275159 -0.0391025 2.83274e-12 3.75501e-12 -9.58914e-13 0 3.61247e-15
1119 14 0.001 -0.017293 0.00199691 -0.0393655 2.10512e-12 4.65044e-12 -1.72722e-12 0 3.64579e-15
1515 16 0.001 0.00270696 0.00199691 -0.0393655 2.1025e-12 4.65714e-12 -1.72579e-12 0 3.64579e-15
1514 16 0.001 0.00330634 0.00275159 -0.0391025 2.82954e-12 3.7432e-12 -9.61714e-13 0 3.61247e-15
1910 18 0.001 0.0233063 0.00275159 -0.0391025 2.8378e-12 3.74409e-12 -9.60042e-13 0 3.61247e-15
1911 18 0.001 0.022707 0.00199691 -0.0393655 2.0941e-12 4.65023e-12 -1.72872e-12 0 3.64579e-15
345 11 0.001 -0.0559262 0.00333424 -0.0388389 3.3584e-12 2.68308e-12 -3.02798e-13 0 3.54087e-15
344 11 0.001 -0.0550384 0.00370855 -0.0385745 3.66391e-12 1.51202e-12 1.30665e-13 0 3.45957e-15
720 12 0.001 -0.0350384 0.00370855 -0.0385745 3.67081e-12 1.50526e-12 1.32979e-13 0 3.45957e-15
721 12 0.001 -0.0359262 0.00333424 -0.0388389 3.37926e-12 2.68341e-12 -2.99829e-13 0 3.54087e-15
1117 14 0.001 -0.0159262 0.00333424 -0.0388389 3.35897e-12 2.67295e-12 -3.04624e-13 0 3.54087e-15
1116 14 0.001 -0.0150384 0.00370855 -0.0385745 3.69696e-12 1.51791e-12 1.3936e-13 0 3.45957e-15
1513 16 0.001 0.00407383 0.00333424 -0.0388389 3.36585e-12 2.68165e-12 -3.0176e-13 0 3.54087e-15
1512 16 0.001 0.00496155 0.00370855 -0.0385745 3.68794e-12 1.51513e-12 1.36981e-13 0 3.45957e-15
1908 18 0.001 0.0249616 0.00370855 -0.0385745 3.69343e-12 1.51319e-12 1.38639e-13 0 3.45957e-15
1909 18 0.001 0.0240738 0.00333424 -0.0388389 3.356e-12 2.68289e-12 -3.04125e-13 0 3.54087e-15
338 11 0.001 -0.0503642 0.00129075 -0.0369772 1.11508e-12 -4.40229e-12 -1.85582e-12 0 3.50962e-15
714 12 0.001 -0.0303642 0.00129075 -0.0369772 1.13281e-12 -4.40523e-12 -1.85354e-12 0 3.50962e-15
1110 14 0.001 -0.0103642 0.00129075 -0.0369772 1.11936e-12 -4.40835e-12 -1.85448e-12 0 3.50962e-15
1506 16 0.001 0.0096358 0.00129075 -0.0369772 1.12741e-12 -4.3996e-12 -1.85592e-12 0 3.50962e-15
1902 18 0.001 0.0296358 0.00129075 -0.0369772 1.11253e-12 -4.40469e-12 -1.85713e-12 0 3.50962e-15
340 11 0.001 -0.0514309 0.00287562 -0.0375106 2.80579e-12 -3.03791e-12 -8.04388e-13 0 3.37226e-15
339 11 0.001 -0.0507978 0.00215035 -0.0372438 2.00322e-12 -3.86255e-12 -1.37749e-12 0 3.42986e-15
715 12 0.001 -0.0307978 0.00215035 -0.0372438 1.99721e-12 -3.85915e-12 -1.37878e-12 0 3.42986e-15
716 12 0.001 -0.0314309 0.00287562 -0.0375106 2.81405e-12 -3.04812e-12 -8.00351e-13 0 3.37226e-15
1111 14 0.001 -0.0107978 0.00215035 -0.0372438 2.03087e-12 -3.8553e-12 -1.37405e-12 0 3.42986e-15
1112 14 0.001 -0.0114309 0.00287562 -0.0375106 2.76241e-12 -3.05067e-12 -8.10737e-13 0 3.37226e-15
1508 16 0.001 0.00856905 0.00287562 -0.0375106 2.77968e-12 -3.03915e-12 -8.09101e-13 0 3.37226e-15
1507 16 0.001 0.00920218 0.00215035 -0.0372438 2.01919e-12 -3.8667e-12 -1.37333e-12 0 3.42986e-15
1903 18 0.001 0.0292022 0.00215035 -0.0372438 2.05125e-12 -3.86249e-12 -1.3688e-12 0 3.42986e-15
1904 18 0.001 0.0285691 0.00287562 -0.0375106 2.75942e-12 -3.04575e-12 -8.12608e-13 0 3.37226e-15
343 11 0.001 -0.0540859 0.00385123 -0.0383094 3.80456e-12 3.05789e-13 2.84257e-13 0 3.39125e-15
342 11 0.001 -0.0531279 0.00375344 -0.0380436 3.66963e-12 -9.1264e-13 1.30301e-13 0 3.35057e-15
341 11 0.001 -0.0522241 0.00342133 -0.0377773 3.32274e-12 -2.04304e-12 -2.69625e-13 0 3.34424e-15
719 12 0.001 -0.0340859 0.00385123 -0.0383094 3.81582e-12 3.10176e-13 2.87262e-13 0 3.39125e-15
718 12 0.001 -0.0331279 0.00375344 -0.0380436 3.66522e-12 -9.11943e-13 1.29178e-13 0 3.35057e-15
717 12 0.001 -0.0322241 0.00342133 -0.0377773 3.30418e-12 -2.03409e-12 -2.75971e-13 0 3.34424e-15
1115 14 0.001 -0.0140859 0.00385123 -0.0383094 3.76861e-12 2.95938e-13 2.75746e-13 0 3.39125e-15
1113 14 0.001 -0.0122241 0.00342133 -0.0377773 3.33524e-12 -2.03247e-12 -2.68761e-13 0 3.34424e-15
1114 14 0.001 -0.0131279 0.00375344 -0.0380436 3.68895e-12 -9.07201e-13 1.34779e-13 0 3.35057e-15
1511 16 0.001 0.00591412 0.00385123 -0.0383094 3.78774e-12 2.98268e-13 2.8066e-13 0 3.39125e-15
1510 16 0.001 0.00687214 0.00375344 -0.0380436 3.67602e-12 -9.0409e-13 1.30808e-13 0 3.35057e-15
1509 16 0.001 0.00777589 0.00342133 -0.0377773 3.32424e-12 -2.04279e-12 -2.69799e-13 0 3.34424e-15
1907 18 0.001 0.0259141 0.00385123 -0.0383094 3.795e-12 2.98822e-13 2.8251e-13 0 3.39125e-15
1906 18 0.001 0.0268721 0.00375344 -0.0380436 3.67383e-12 -9.04786e-13 1.30302e-13 0 3.35057e-15
1905 18 0.001 0.0277759 0.00342133 -0.0377773 3.32467e-12 -2.03551e-12 -2.70336e-13 0 3.34424e-15
333 11 0.001 -0.0516309 -0.00304707 -0.0356501 -3.2328e-12 -2.83083e-12 -1.34103e-12 0 4.02421e-15
709 12 0.001 -0.0316309 -0.00304707 -0.0356501 -3.22464e-12 -2.82918e-12 -1.34433e-12 0 4.02421e-15
1105 14 0.001 -0.0116309 -0.00304707 -0.0356501 -3.21046e-12 -2.82526e-12 -1.34825e-12 0 4.02421e-15
1501 16 0.001 0.00836911 -0.00304707 -0.0356501 -3.20573e-12 -2.82787e-12 -1.34825e-12 0 4.02421e-15
1897 18 0.001 0.0283691 -0.00304707 -0.0356501 -3.21926e-12 -2.83509e-12 -1.34385e-12 0 4.02421e-15
334 11 0.001 -0.0509502 -0.00236547 -0.0359148 -2.59648e-12 -3.67343e-12 -1.74197e-12 0 3.91508e-15
335 11 0.001 -0.0504595 -0.00153656 -0.0361798 -1.79516e-12 -4.28159e-12 -2.06161e-12 0 3.80905e-15
710 12 0.001 -0.0309502 -0.00236547 -0.0359148 -2.58717e-12 -3.67008e-12 -1.74389e-12 0 3.91508e-15
711 12 0.001 -0.0304595 -0.00153656 -0.0361798 -1.8005e-12 -4.28325e-12 -2.06065e-12 0 3.80905e-15
1106 14 0.001 -0.0109502 -0.00236547 -0.0359148 -2.59933e-12 -3.67296e-12 -1.74113e-12 0 3.91508e-15
1107 14 0.001 -0.0104595 -0.00153656 -0.0361798 -1.79677e-12 -4.28282e-12 -2.06162e-12 0 3.80905e-15
1502 16 0.001 0.00904985 -0.00236547 -0.0359148 -2.60711e-12 -3.67286e-12 -1.7405e-12 0 3.91508e-15
1503 16 0.001 0.00954048 -0.00153656 -0.0361798 -1.78781e-12 -4.28072e-12 -2.06218e-12 0 3.80905e-15
1898 18 0.001 0.0290498 -0.00236547 -0.0359148 -2.58588e-12 -3.67214e-12 -1.7444e-12 0 3.91508e-15
1899 18 0.001 0.0295405 -0.00153656 -0.0361798 -1.80733e-12 -4.27538e-12 -2.06202e-12 0 3.80905e-15
336 11 0.001 -0.0501896 -0.000612047 -0.0364452 -8.7443e-13 -4.60938e-12 -2.21965e-12 0 3.70476e-15
712 12 0.001 -0.0301896 -0.000612047 -0.0364452 -8.67283e-13 -4.60712e-12 -2.22022e-12 0 3.70476e-15
1108 14 0.001 -0.0101896 -0.000612047 -0.0364452 -8.62051e-13 -4.61124e-12 -2.21917e-12 0 3.70476e-15
1504 16 0.001 0.00981041 -0.000612047 -0.0364452 -8.70833e-13 -4.60939e-12 -2.21978e-12 0 3.70476e-15
1900 18 0.001 0.0298104 -0.000612047 -0.0364452 -8.41917e-13 -4.61101e-12 -2.21991e-12 0 3.70476e-15
337 11 0.001 -0.0501571 0.000350399 -0.036711 1.64587e-13 -4.70321e-12 -2.13366e-12 0 3.60352e-15
713 12 0.001 -0.0301571 0.000350399 -0.036711 1.4925e-13 -4.70362e-12 -2.13427e-12 0 3.60352e-15
1109 14 0.001 -0.0101571 0.000350399 -0.036711 1.47507e-13 -4.69816e-12 -2.13538e-12 0 3.60352e-15
1505 16 0.001 0.00984285 0.000350399 -0.036711 1.4816e-13 -4.70309e-12 -2.13423e-12 0 3.60352e-15
1901 18 0.001 0.0298429 0.000350399 -0.036711 1.31051e-13 -4.7005e-12 -2.1346e-12 0 3.60352e-15
328 11 0.001 -0.0561485 -0.00320589 -0.0343278 -2.98254e-12 2.21138e-12 -6.20086e-13 0 4.71676e-15
329 11 0.001 -0.0552876 -0.00363825 -0.0345924 -3.57843e-12 1.2557e-12 -4.49922e-13 0 4.55353e-15
330 11 0.001 -0.0543465 -0.00384393 -0.0348569 -3.74814e-12 2.35839e-13 -4.73488e-13 0 4.40239e-15
331 11 0.001 -0.0533837 -0.00381009 -0.0351213 -3.82851e-12 -8.27617e-13 -6.2835e-13 0 4.26471e-15
332 11 0.001 -0.0524593 -0.00353883 -0.0353857 -3.60073e-12 -1.87845e-12 -9.49083e-13 0 4.13956e-15
704 12 0.001 -0.0361485 -0.00320589 -0.0343278 -3.03184e-12 2.20856e-12 -6.10004e-13 0 4.71676e-15
705 12 0.001 -0.0352876 -0.00363825 -0.0345924 -3.51614e-12 1.25921e-12 -4.64253e-13 0 4.55353e-15
706 12 0.001 -0.0343465 -0.00384393 -0.0348569 -3.782e-12 2.35897e-13 -4.65351e-13 0 4.40239e-15
707 12 0.001 -0.0333837 -0.00381009 -0.0351213 -3.81471e-12 -8.33306e-13 -6.3221e-13 0 4.26471e-15
708 12 0.001 -0.0324593 -0.00353883 -0.0353857 -3.6239e-12 -1.87893e-12 -9.41876e-13 0 4.13956e-15
1100 14 0.001 -0.0161485 -0.00320589 -0.0343278 -3.06767e-12 2.20333e-12 -6.02451e-13 0 4.71676e-15
1101 14 0.001 -0.0152876 -0.00363825 -0.0345924 -3.4992e-12 1.27012e-12 -4.66951e-13 0 4.55353e-15
1102 14 0.001 -0.0143465 -0.00384393 -0.0348569 -3.78165e-12 2.31451e-13 -4.66366e-13 0 4.40239e-15
1104 14 0.001 -0.0124593 -0.00353883 -0.0353857 -3.63746e-12 -1.87897e-12 -9.38289e-13 0 4.13956e-15
1103 14 0.001 -0.0133837 -0.00381009 -0.0351213 -3.81025e-12 -8.35366e-13 -6.33006e-13 0 4.26471e-15
1496 16 0.001 0.0038515 -0.00320589 -0.0343278 -3.06087e-12 2.20595e-12 -6.04564e-13 0 4.71676e-15
1497 16 0.001 0.00471236 -0.00363825 -0.0345924 -3.50852e-12 1.26031e-12 -4.65679e-13 0 4.55353e-15
1498 16 0.001 0.00565351 -0.00384393 -0.0348569 -3.76772e-12 2.30221e-13 -4.6887e-13 0 4.40239e-15
1499 16 0.001 0.0066163 -0.00381009 -0.0351213 -3.82099e-12 -8.22515e-13 -6.31282e-13 0 4.26471e-15
1500 16 0.001 0.00754071 -0.00353883 -0.0353857 -3.63627e-12 -1.88561e-12 -9.38304e-13 0 4.13956e-15
1892 18 0.001 0.0238515 -0.00320589 -0.0343278 -3.04812e-12 2.21174e-12 -6.05465e-13 0 4.71676e-15
1893 18 0.001 0.0247124 -0.00363825 -0.0345924 -3.53275e-12 1.26044e-12 -4.60079e-13 0 4.55353e-15
1894 18 0.001 0.0256535 -0.00384393 -0.0348569 -3.75785e-12 2.41105e-13 -4.7182e-13 0 4.40239e-15
1895 18 0.001 0.0266163 -0.00381009 -0.0351213 -3.78875e-12 -8.38953e-13 -6.38588e-13 0 4.26471e-15
1896 18 0.001 0.0275407 -0.00353883 -0.0353857 -3.6646e-12 -1.87756e-12 -9.32338e-13 0 4.13956e-15
327 11 0.001 -0.0568754 -0.00257379 -0.0340631 -2.46152e-12 2.98425e-12 -8.42211e-13 0 4.88844e-15
703 12 0.001 -0.0368754 -0.00257379 -0.0340631 -2.44949e-12 2.98814e-12 -8.43465e-13 0 4.88844e-15
1099 14 0.001 -0.0168754 -0.00257379 -0.0340631 -2.4022e-12 2.98834e-12 -8.5202e-13 0 4.88844e-15