ITEM: TIMESTEP
3500000
ITEM: NUMBER OF ATOMS
1970
ITEM: BOX BOUNDS ff ff ff
-6.0000000000000005e-02 6.0000000000000005e-02
-6.0000000000000001e-03 6.0000000000000001e-03
-5.5000000000000000e-02 5.5000000000000000e-02
ITEM: ATOMS id type radius x y z fx fy fz c_bendingE c_stretchingE
384 11 0.001 -0.050859 -0.00262515 -0.0489956 -1.71153e-12 4.46441e-14 -1.44069e-12 0 3.72881e-16
385 11 0.001 -0.0503475 -0.00182902 -0.0493158 -1.18114e-12 -1.07491e-13 -9.70744e-13 0 5.99082e-15
760 12 0.001 -0.030859 -0.00262515 -0.0489956 -1.69372e-12 4.93525e-14 -1.4478e-12 0 3.72882e-16
761 12 0.001 -0.0303475 -0.00182902 -0.0493158 -1.20793e-12 -1.08701e-13 -9.65039e-13 0 5.99082e-15
1156 14 0.001 -0.010859 -0.00262515 -0.0489956 -1.70951e-12 4.77185e-14 -1.4449e-12 0 3.72882e-16
1157 14 0.001 -0.0103475 -0.00182902 -0.0493158 -1.19256e-12 -1.07771e-13 -9.67905e-13 0 5.99082e-15
1552 16 0.001 0.00914102 -0.00262515 -0.0489956 -1.71123e-12 3.97725e-14 -1.44093e-12 0 3.72882e-16
1553 16 0.001 0.00965252 -0.00182902 -0.0493158 -1.19351e-12 -9.49028e-14 -9.73815e-13 0 5.99082e-15
1948 18 0.001 0.029141 -0.00262515 -0.0489956 -1.72613e-12 5.32345e-14 -1.44567e-12 0 3.72882e-16
1949 18 0.001 0.0296525 -0.00182902 -0.0493158 -1.16889e-12 -1.19613e-13 -9.64927e-13 0 5.99082e-15
2 2 0.001 -0.05 -4.31175e-17 -0.05 -5.15374e-06 6.77373e-06 1.85434e-06 0 4.02322e-15
386 11 0.001 -0.0500553 -0.000934891 -0.0496522 -6.14647e-13 -1.4058e-13 -4.69762e-13 0 9.66715e-15
762 12 0.001 -0.0300553 -0.000934891 -0.0496522 -6.05272e-13 -1.37154e-13 -4.7251e-13 0 9.66714e-15
4 4 0.001 -0.03 -4.31175e-17 -0.05 -5.15374e-06 6.77373e-06 1.85434e-06 0 4.02321e-15
6 6 0.001 -0.01 -4.31175e-17 -0.05 -5.15374e-06 6.77373e-06 1.85434e-06 0 4.02321e-15
1158 14 0.001 -0.0100553 -0.000934891 -0.0496522 -6.083e-13 -1.33119e-13 -4.72901e-13 0 9.66714e-15
8 8 0.001 0.01 -4.31175e-17 -0.05 -5.15374e-06 6.77373e-06 1.85434e-06 0 4.02321e-15
1554 16 0.001 0.00994474 -0.000934891 -0.0496522 -6.075e-13 -1.42284e-13 -4.68767e-13 0 9.66714e-15
10 10 0.001 0.03 -4.31175e-17 -0.05 -5.15374e-06 6.77373e-06 1.85434e-06 0 4.02321e-15
1950 18 0.001 0.0299447 -0.000934891 -0.0496522 -6.24998e-13 -1.28023e-13 -4.74363e-13 0 9.66714e-15
378 11 0.001 -0.0561064 -0.00324917 -0.0474719 -2.24143e-12 2.45336e-12 -2.31892e-12 0 2.41683e-15
379 11 0.001 -0.0552501 -0.00371595 -0.0476885 -2.40236e-12 2.04892e-12 -2.53268e-12 0 2.24957e-15
380 11 0.001 -0.0543077 -0.00395818 -0.0479149 -2.64871e-12 1.58849e-12 -2.54876e-12 0 1.7541e-15
381 11 0.001 -0.0533382 -0.00396171 -0.0481558 -2.62817e-12 1.13323e-12 -2.44782e-12 0 1.05438e-15
382 11 0.001 -0.0524022 -0.0037276 -0.048415 -2.39397e-12 7.02382e-13 -2.2293e-12 0 3.96051e-16
383 11 0.001 -0.0515583 -0.00327203 -0.0486948 -2.15811e-12 3.12683e-13 -1.86871e-12 0 8.32103e-17
754 12 0.001 -0.0361064 -0.00324917 -0.0474719 -2.27928e-12 2.44127e-12 -2.31596e-12 0 2.41683e-15
755 12 0.001 -0.0352501 -0.00371595 -0.0476885 -2.43121e-12 2.05851e-12 -2.52329e-12 0 2.24957e-15
756 12 0.001 -0.0343077 -0.00395818 -0.0479149 -2.62468e-12 1.59383e-12 -2.55417e-12 0 1.7541e-15
757 12 0.001 -0.0333382 -0.00396171 -0.0481558 -2.61061e-12 1.13259e-12 -2.45302e-12 0 1.05438e-15
758 12 0.001 -0.0324022 -0.0037276 -0.048415 -2.42453e-12 6.95553e-13 -2.22151e-12 0 3.96051e-16
759 12 0.001 -0.0315583 -0.00327203 -0.0486948 -2.13967e-12 3.16032e-13 -1.87095e-12 0 8.32103e-17
1151 14 0.001 -0.0152501 -0.00371595 -0.0476885 -2.46183e-12 2.05579e-12 -2.5185e-12 0 2.24957e-15
1150 14 0.001 -0.0161064 -0.00324917 -0.0474719 -2.22063e-12 2.4502e-12 -2.32462e-12 0 2.41683e-15
1152 14 0.001 -0.0143077 -0.00395818 -0.0479149 -2.63138e-12 1.59111e-12 -2.55234e-12 0 1.7541e-15
1153 14 0.001 -0.0133382 -0.00396171 -0.0481558 -2.59176e-12 1.13355e-12 -2.45696e-12 0 1.05438e-15
1154 14 0.001 -0.0124022 -0.0037276 -0.048415 -2.44326e-12 6.95894e-13 -2.2177e-12 0 3.96051e-16
1155 14 0.001 -0.0115583 -0.00327203 -0.0486948 -2.12852e-12 3.15797e-13 -1.8727e-12 0 8.32103e-17
1546 16 0.001 0.00389361 -0.00324917 -0.0474719 -2.21066e-12 2.44655e-12 -2.33034e-12 0 2.41683e-15
1547 16 0.001 0.00474988 -0.00371595 -0.0476885 -2.47764e-12 2.05414e-12 -2.51173e-12 0 2.24957e-15
1548 16 0.001 0.00569228 -0.00395818 -0.0479149 -2.61375e-12 1.5943e-12 -2.55862e-12 0 1.7541e-15
1549 16 0.001 0.0066618 -0.00396171 -0.0481558 -2.60132e-12 1.13088e-12 -2.45361e-12 0 1.05438e-15
1550 16 0.001 0.00759775 -0.0037276 -0.048415 -2.43835e-12 6.95681e-13 -2.21872e-12 0 3.96051e-16
1551 16 0.001 0.00844167 -0.00327203 -0.0486948 -2.1282e-12 3.20115e-13 -1.87428e-12 0 8.32103e-17
1942 18 0.001 0.0238936 -0.00324917 -0.0474719 -2.22701e-12 2.45158e-12 -2.32403e-12 0 2.41683e-15
1943 18 0.001 0.0247499 -0.00371595 -0.0476885 -2.46493e-12 2.05193e-12 -2.5164e-12 0 2.24957e-15
1944 18 0.001 0.0256923 -0.00395818 -0.0479149 -2.6224e-12 1.59851e-12 -2.55631e-12 0 1.7541e-15
1945 18 0.001 0.0266618 -0.00396171 -0.0481558 -2.59961e-12 1.12513e-12 -2.45361e-12 0 1.05438e-15
1946 18 0.001 0.0275978 -0.0037276 -0.048415 -2.43296e-12 6.98696e-13 -2.22039e-12 0 3.96051e-16
1947 18 0.001 0.0284417 -0.00327203 -0.0486948 -2.12761e-12 3.17769e-13 -1.87285e-12 0 8.32103e-17
376 11 0.001 -0.0573556 -0.00176856 -0.0470461 -1.32399e-12 2.94629e-12 -1.60514e-12 0 1.88126e-15
377 11 0.001 -0.0568231 -0.00258638 -0.0472595 -1.82705e-12 2.76456e-12 -2.01219e-12 0 2.26146e-15
753 12 0.001 -0.0368231 -0.00258638 -0.0472595 -1.78221e-12 2.7775e-12 -2.01597e-12 0 2.26146e-15
752 12 0.001 -0.0373556 -0.00176856 -0.0470461 -1.34257e-12 2.93785e-12 -1.60498e-12 0 1.88126e-15
1149 14 0.001 -0.0168231 -0.00258638 -0.0472595 -1.80391e-12 2.75385e-12 -2.01638e-12 0 2.26146e-15
1148 14 0.001 -0.0173556 -0.00176856 -0.0470461 -1.35001e-12 2.96252e-12 -1.59926e-12 0 1.88126e-15
1544 16 0.001 0.00264437 -0.00176856 -0.0470461 -1.33267e-12 2.95564e-12 -1.6025e-12 0 1.88126e-15
1545 16 0.001 0.00317694 -0.00258638 -0.0472595 -1.81651e-12 2.76131e-12 -2.01138e-12 0 2.26146e-15
1941 18 0.001 0.0231769 -0.00258638 -0.0472595 -1.79871e-12 2.75677e-12 -2.0162e-12 0 2.26146e-15
1940 18 0.001 0.0226444 -0.00176856 -0.0470461 -1.35372e-12 2.9599e-12 -1.59967e-12 0 1.88126e-15
375 11 0.001 -0.0576714 -0.000846472 -0.0468268 -7.98395e-13 3.02657e-12 -1.12607e-12 0 1.40879e-15
751 12 0.001 -0.0376714 -0.000846472 -0.0468268 -7.67768e-13 3.01676e-12 -1.12929e-12 0 1.40879e-15
1147 14 0.001 -0.0176714 -0.000846472 -0.0468268 -7.80068e-13 3.01134e-12 -1.13142e-12 0 1.40879e-15
1543 16 0.001 0.00232864 -0.000846472 -0.0468268 -8.01129e-13 3.0153e-12 -1.13034e-12 0 1.40879e-15
1939 18 0.001 0.0223286 -0.000846472 -0.0468268 -7.8442e-13 3.01029e-12 -1.13159e-12 0 1.40879e-15
373 11 0.001 -0.0575911 0.00107888 -0.046357 3.32799e-13 2.71575e-12 -2.00784e-13 0 6.03669e-16
374 11 0.001 -0.0577512 0.000122676 -0.0465979 -2.4991e-13 2.92189e-12 -6.54986e-13 0 9.59677e-16
749 12 0.001 -0.0375911 0.00107888 -0.046357 3.24798e-13 2.71571e-12 -2.03879e-13 0 6.0367e-16
750 12 0.001 -0.0377512 0.000122676 -0.0465979 -2.7629e-13 2.93395e-12 -6.51516e-13 0 9.59678e-16
1145 14 0.001 -0.0175911 0.00107888 -0.046357 3.23285e-13 2.7238e-12 -2.02179e-13 0 6.0367e-16
1146 14 0.001 -0.0177512 0.000122676 -0.0465979 -2.52335e-13 2.92714e-12 -6.51172e-13 0 9.59678e-16
1541 16 0.001 0.0024089 0.00107888 -0.046357 3.20964e-13 2.72143e-12 -2.02125e-13 0 6.0367e-16
1542 16 0.001 0.00224875 0.000122676 -0.0465979 -2.36894e-13 2.92668e-12 -6.50961e-13 0 9.59678e-16
1937 18 0.001 0.0224089 0.00107888 -0.046357 3.24949e-13 2.72425e-12 -2.0094e-13 0 6.0367e-16
1938 18 0.001 0.0222488 0.000122676 -0.0465979 -2.43929e-13 2.9273e-12 -6.51339e-13 0 9.59678e-16
372 11 0.001 -0.0572017 0.00196311 -0.046103 8.20363e-13 2.37681e-12 1.58414e-13 0 3.61253e-16
748 12 0.001 -0.0372017 0.00196311 -0.046103 8.7401e-13 2.36146e-12 1.65544e-13 0 3.61254e-16
1144 14 0.001 -0.0172017 0.00196311 -0.046103 8.30187e-13 2.35644e-12 1.56772e-13 0 3.61254e-16
1540 16 0.001 0.00279834 0.00196311 -0.046103 8.21316e-13 2.35973e-12 1.55088e-13 0 3.61254e-16
1936 18 0.001 0.0227983 0.00196311 -0.046103 8.15668e-13 2.35779e-12 1.54048e-13 0 3.61254e-16
371 11 0.001 -0.0566078 0.00272093 -0.0458365 1.2747e-12 1.90126e-12 4.02552e-13 0 2.18513e-16
747 12 0.001 -0.0366078 0.00272093 -0.0458365 1.1944e-12 1.92073e-12 3.89289e-13 0 2.18513e-16
1143 14 0.001 -0.0166078 0.00272093 -0.0458365 1.25971e-12 1.91706e-12 4.02104e-13 0 2.18513e-16
1539 16 0.001 0.0033922 0.00272093 -0.0458365 1.27236e-12 1.91114e-12 4.04998e-13 0 2.18513e-16
1935 18 0.001 0.0233922 0.00272093 -0.0458365 1.27751e-12 1.91051e-12 4.04876e-13 0 2.18513e-16
370 11 0.001 -0.0558469 0.00330578 -0.0455588 1.62622e-12 1.36767e-12 5.13593e-13 0 1.48058e-16
369 11 0.001 -0.0549668 0.00368179 -0.0452727 1.88784e-12 7.68399e-13 4.84916e-13 0 1.25607e-16
368 11 0.001 -0.0540222 0.00382596 -0.0449811 2.00661e-12 1.28668e-13 3.27753e-13 0 1.36939e-16
367 11 0.001 -0.0530723 0.00372952 -0.0446872 2.01243e-12 -5.03277e-13 7.57886e-14 0 1.75723e-16
745 12 0.001 -0.0349668 0.00368179 -0.0452727 1.88545e-12 7.87033e-13 4.89179e-13 0 1.25608e-16
746 12 0.001 -0.0358469 0.00330578 -0.0455588 1.67706e-12 1.34164e-12 5.20501e-13 0 1.48058e-16
744 12 0.001 -0.0340222 0.00382596 -0.0449811 1.98289e-12 1.25044e-13 3.18644e-13 0 1.3694e-16
743 12 0.001 -0.0330723 0.00372952 -0.0446872 2.04427e-12 -4.96524e-13 8.53097e-14 0 1.75723e-16
1142 14 0.001 -0.0158469 0.00330578 -0.0455588 1.64341e-12 1.36252e-12 5.16602e-13 0 1.48058e-16
1140 14 0.001 -0.0140222 0.00382596 -0.0449811 2.00457e-12 1.31826e-13 3.27235e-13 0 1.3694e-16
1141 14 0.001 -0.0149668 0.00368179 -0.0452727 1.88136e-12 7.66677e-13 4.83698e-13 0 1.25608e-16
1139 14 0.001 -0.0130723 0.00372952 -0.0446872 2.01477e-12 -4.98148e-13 7.59805e-14 0 1.75723e-16
1538 16 0.001 0.00415305 0.00330578 -0.0455588 1.63108e-12 1.36913e-12 5.12755e-13 0 1.48058e-16
1537 16 0.001 0.00503325 0.00368179 -0.0452727 1.88646e-12 7.61869e-13 4.86946e-13 0 1.25608e-16
1536 16 0.001 0.00597781 0.00382596 -0.0449811 2.01687e-12 1.37569e-13 3.28869e-13 0 1.3694e-16
1535 16 0.001 0.00692773 0.00372952 -0.0446872 1.99548e-12 -5.01389e-13 7.18158e-14 0 1.75723e-16
1933 18 0.001 0.0250332 0.00368179 -0.0452727 1.89365e-12 7.64898e-13 4.8672e-13 0 1.25608e-16
1934 18 0.001 0.0241531 0.00330578 -0.0455588 1.62859e-12 1.37026e-12 5.14335e-13 0 1.48058e-16
1932 18 0.001 0.0259778 0.00382596 -0.0449811 1.99952e-12 1.33739e-13 3.25512e-13 0 1.3694e-16
1931 18 0.001 0.0269277 0.00372952 -0.0446872 2.02065e-12 -5.01704e-13 7.78905e-14 0 1.75723e-16
361 11 0.001 -0.0501782 -0.000632989 -0.0430037 -2.61061e-13 -2.41899e-12 -1.17278e-12 0 4.36935e-16
737 12 0.001 -0.0301782 -0.000632989 -0.0430037 -2.59765e-13 -2.41866e-12 -1.17108e-12 0 4.36935e-16
1133 14 0.001 -0.0101782 -0.000632989 -0.0430037 -2.51444e-13 -2.41878e-12 -1.17067e-12 0 4.36935e-16
1529 16 0.001 0.00982178 -0.000632989 -0.0430037 -2.63562e-13 -2.41474e-12 -1.17147e-12 0 4.36935e-16
1925 18 0.001 0.0298218 -0.000632989 -0.0430037 -2.40304e-13 -2.41541e-12 -1.1709e-12 0 4.36935e-16
362 11 0.001 -0.0501385 0.000329146 -0.0432697 3.08809e-13 -2.43627e-12 -1.16137e-12 0 4.51914e-16
363 11 0.001 -0.0503384 0.00126943 -0.0435416 7.35742e-13 -2.31865e-12 -1.05134e-12 0 4.3242e-16
738 12 0.001 -0.0301385 0.000329146 -0.0432697 2.82725e-13 -2.43461e-12 -1.16414e-12 0 4.51914e-16
739 12 0.001 -0.0303384 0.00126943 -0.0435416 7.60188e-13 -2.30706e-12 -1.05108e-12 0 4.3242e-16
1134 14 0.001 -0.0101385 0.000329146 -0.0432697 2.62278e-13 -2.43985e-12 -1.16395e-12 0 4.51914e-16
1135 14 0.001 -0.0103384 0.00126943 -0.0435416 7.82191e-13 -2.30315e-12 -1.04965e-12 0 4.3242e-16
1530 16 0.001 0.00986148 0.000329146 -0.0432697 2.70436e-13 -2.43986e-12 -1.16362e-12 0 4.51914e-16
1531 16 0.001 0.00966158 0.00126943 -0.0435416 7.85585e-13 -2.30202e-12 -1.04925e-12 0 4.3242e-16
1926 18 0.001 0.0298615 0.000329146 -0.0432697 2.48892e-13 -2.44066e-12 -1.16446e-12 0 4.51914e-16
1927 18 0.001 0.0296616 0.00126943 -0.0435416 7.88494e-13 -2.30461e-12 -1.0489e-12 0 4.3242e-16
365 11 0.001 -0.0513908 0.00285369 -0.0441044 1.57156e-12 -1.63195e-12 -5.58795e-13 0 3.10377e-16
364 11 0.001 -0.0507649 0.00212888 -0.0438199 1.29416e-12 -2.01089e-12 -8.29549e-13 0 3.81202e-16
740 12 0.001 -0.0307649 0.00212888 -0.0438199 1.26199e-12 -2.02611e-12 -8.33337e-13 0 3.81202e-16
741 12 0.001 -0.0313908 0.00285369 -0.0441044 1.61897e-12 -1.61457e-12 -5.49705e-13 0 3.10377e-16
1136 14 0.001 -0.0107649 0.00212888 -0.0438199 1.25113e-12 -2.02861e-12 -8.34178e-13 0 3.81202e-16
1137 14 0.001 -0.0113908 0.00285369 -0.0441044 1.61245e-12 -1.61541e-12 -5.51513e-13 0 3.10377e-16
1533 16 0.001 0.00860922 0.00285369 -0.0441044 1.61967e-12 -1.61357e-12 -5.50558e-13 0 3.10377e-16
1532 16 0.001 0.00923509 0.00212888 -0.0438199 1.23679e-12 -2.03131e-12 -8.36109e-13 0 3.81202e-16
1928 18 0.001 0.0292351 0.00212888 -0.0438199 1.24493e-12 -2.02731e-12 -8.35481e-13 0 3.81202e-16
1929 18 0.001 0.0286092 0.00285369 -0.0441044 1.62971e-12 -1.61752e-12 -5.47102e-13 0 3.10377e-16
366 11 0.001 -0.0521764 0.00339856 -0.0443941 1.90835e-12 -1.07573e-12 -2.25587e-13 0 2.36783e-16
742 12 0.001 -0.0321764 0.00339856 -0.0443941 1.86939e-12 -1.09376e-12 -2.33925e-13 0 2.36783e-16
1138 14 0.001 -0.0121764 0.00339856 -0.0443941 1.89156e-12 -1.09136e-12 -2.27946e-13 0 2.36783e-16
1534 16 0.001 0.00782361 0.00339856 -0.0443941 1.90121e-12 -1.09156e-12 -2.25718e-13 0 2.36783e-16
1930 18 0.001 0.0278236 0.00339856 -0.0443941 1.8731e-12 -1.08854e-12 -2.33015e-13 0 2.36783e-16
355 11 0.001 -0.0543666 -0.0038449 -0.0414597 -1.81089e-12 1.51767e-13 -1.99675e-13 0 2.07583e-16
356 11 0.001 -0.0534019 -0.00381634 -0.0417176 -1.82973e-12 -4.07809e-13 -3.21421e-13 0 2.11949e-16
357 11 0.001 -0.0524737 -0.00354994 -0.0419737 -1.7922e-12 -9.9168e-13 -4.82557e-13 0 2.38014e-16
358 11 0.001 -0.0516401 -0.00306222 -0.0422291 -1.4561e-12 -1.46494e-12 -7.24937e-13 0 2.8235e-16
731 12 0.001 -0.0343666 -0.0038449 -0.0414597 -1.86149e-12 1.23011e-13 -1.88926e-13 0 2.07583e-16
732 12 0.001 -0.0334019 -0.00381634 -0.0417176 -1.84146e-12 -3.95693e-13 -3.17515e-13 0 2.11949e-16
733 12 0.001 -0.0324737 -0.00354994 -0.0419737 -1.7444e-12 -9.92804e-13 -4.95229e-13 0 2.38014e-16
734 12 0.001 -0.0316401 -0.00306222 -0.0422291 -1.49022e-12 -1.46511e-12 -7.15185e-13 0 2.82349e-16
1127 14 0.001 -0.0143666 -0.0038449 -0.0414597 -1.83134e-12 1.38922e-13 -1.96436e-13 0 2.07583e-16
1128 14 0.001 -0.0134019 -0.00381634 -0.0417176 -1.82528e-12 -4.12564e-13 -3.21541e-13 0 2.11949e-16
1129 14 0.001 -0.0124737 -0.00354994 -0.0419737 -1.74697e-12 -9.76931e-13 -4.95192e-13 0 2.38014e-16
1130 14 0.001 -0.0116401 -0.00306222 -0.0422291 -1.52368e-12 -1.48625e-12 -7.06243e-13 0 2.82349e-16
1523 16 0.001 0.00563338 -0.0038449 -0.0414597 -1.81724e-12 1.53228e-13 -1.99619e-13 0 2.07583e-16
1524 16 0.001 0.00659813 -0.00381634 -0.0417176 -1.84019e-12 -4.22161e-13 -3.17474e-13 0 2.11949e-16
1525 16 0.001 0.00752625 -0.00354994 -0.0419737 -1.73956e-12 -9.72987e-13 -4.97578e-13 0 2.38014e-16
1526 16 0.001 0.00835987 -0.00306222 -0.0422291 -1.51392e-12 -1.48726e-12 -7.07646e-13 0 2.82349e-16
1919 18 0.001 0.0256334 -0.0038449 -0.0414597 -1.82025e-12 1.45492e-13 -1.99038e-13 0 2.07583e-16
1920 18 0.001 0.0265981 -0.00381634 -0.0417176 -1.83778e-12 -4.11778e-13 -3.18673e-13 0 2.11949e-16
1921 18 0.001 0.0275263 -0.00354994 -0.0419737 -1.74704e-12 -9.86682e-13 -4.94655e-13 0 2.38014e-16
1922 18 0.001 0.0283599 -0.00306222 -0.0422291 -1.4965e-12 -1.47194e-12 -7.13201e-13 0 2.82349e-16
359 11 0.001 -0.0509531 -0.0023836 -0.0424849 -1.20258e-12 -1.92445e-12 -9.10481e-13 0 3.38272e-16
360 11 0.001 -0.0504554 -0.00155657 -0.0427426 -7.63429e-13 -2.22227e-12 -1.08227e-12 0 3.94591e-16
735 12 0.001 -0.0309531 -0.0023836 -0.0424849 -1.21011e-12 -1.92257e-12 -9.12128e-13 0 3.38272e-16
736 12 0.001 -0.0304554 -0.00155657 -0.0427426 -7.41734e-13 -2.22808e-12 -1.0826e-12 0 3.9459e-16
1131 14 0.001 -0.0109531 -0.0023836 -0.0424849 -1.17568e-12 -1.90718e-12 -9.20871e-13 0 3.38272e-16
1132 14 0.001 -0.0104554 -0.00155657 -0.0427426 -7.49427e-13 -2.22775e-12 -1.08175e-12 0 3.9459e-16
1527 16 0.001 0.00904694 -0.0023836 -0.0424849 -1.19193e-12 -1.9044e-12 -9.19137e-13 0 3.38272e-16
1528 16 0.001 0.00954457 -0.00155657 -0.0427426 -7.35327e-13 -2.23375e-12 -1.08161e-12 0 3.9459e-16
1923 18 0.001 0.0290469 -0.0023836 -0.0424849 -1.20913e-12 -1.92078e-12 -9.12752e-13 0 3.38272e-16
1924 18 0.001 0.0295446 -0.00155657 -0.0427426 -7.39273e-13 -2.22391e-12 -1.08476e-12 0 3.9459e-16
353 11 0.001 -0.0561671 -0.00319678 -0.0409377 -1.37986e-12 1.22127e-12 -2.16112e-13 0 2.73367e-16
354 11 0.001 -0.0553079 -0.00363395 -0.0411998 -1.6868e-12 6.91746e-13 -1.61964e-13 0 2.27243e-16
729 12 0.001 -0.0361671 -0.00319678 -0.0409377 -1.47049e-12 1.19985e-12 -1.98754e-13 0 2.73367e-16
730 12 0.001 -0.0353079 -0.00363395 -0.0411998 -1.59188e-12 7.25414e-13 -1.81568e-13 0 2.27243e-16
1125 14 0.001 -0.0161671 -0.00319678 -0.0409377 -1.45265e-12 1.20966e-12 -2.02174e-13 0 2.73367e-16
1126 14 0.001 -0.0153079 -0.00363395 -0.0411998 -1.64521e-12 7.15654e-13 -1.68015e-13 0 2.27243e-16
1521 16 0.001 0.00383294 -0.00319678 -0.0409377 -1.42206e-12 1.21893e-12 -2.0722e-13 0 2.73367e-16
1522 16 0.001 0.00469213 -0.00363395 -0.0411998 -1.66736e-12 7.01786e-13 -1.63953e-13 0 2.27243e-16
1917 18 0.001 0.0238329 -0.00319678 -0.0409377 -1.43747e-12 1.20817e-12 -2.05397e-13 0 2.73367e-16
1918 18 0.001 0.0246921 -0.00363395 -0.0411998 -1.65837e-12 7.12222e-13 -1.65066e-13 0 2.27243e-16
351 11 0.001 -0.057434 -0.00176546 -0.0404083 -6.19483e-13 1.99429e-12 -5.0506e-13 0 4.49832e-16
352 11 0.001 -0.0568908 -0.00256072 -0.0406737 -1.0842e-12 1.64316e-12 -3.27039e-13 0 3.47833e-16
727 12 0.001 -0.037434 -0.00176546 -0.0404083 -6.93904e-13 1.98165e-12 -4.99331e-13 0 4.49832e-16
728 12 0.001 -0.0368908 -0.00256072 -0.0406737 -1.0121e-12 1.65428e-12 -3.37977e-13 0 3.47833e-16
1123 14 0.001 -0.017434 -0.00176546 -0.0404083 -6.33359e-13 1.99614e-12 -5.01256e-13 0 4.49832e-16
1124 14 0.001 -0.0168908 -0.00256072 -0.0406737 -1.03059e-12 1.64152e-12 -3.3798e-13 0 3.47833e-16
1519 16 0.001 0.00256597 -0.00176546 -0.0404083 -6.33239e-13 1.9942e-12 -5.02628e-13 0 4.49832e-16
1520 16 0.001 0.00310923 -0.00256072 -0.0406737 -1.05521e-12 1.63971e-12 -3.3359e-13 0 3.47833e-16
1915 18 0.001 0.022566 -0.00176546 -0.0404083 -6.17904e-13 1.99078e-12 -5.04753e-13 0 4.49832e-16
1916 18 0.001 0.0231092 -0.00256072 -0.0406737 -1.05039e-12 1.64774e-12 -3.33697e-13 0 3.47833e-16
350 11 0.001 -0.0577631 -0.000860551 -0.0401421 -1.54169e-13 2.22498e-12 -6.88407e-13 0 5.7365e-16
726 12 0.001 -0.0377631 -0.000860551 -0.0401421 -6.7733e-14 2.2344e-12 -6.916e-13 0 5.7365e-16
1122 14 0.001 -0.0177631 -0.000860551 -0.0401421 -1.69359e-13 2.22322e-12 -6.89746e-13 0 5.7365e-16
1518 16 0.001 0.00223693 -0.000860551 -0.0401421 -1.42441e-13 2.22344e-12 -6.90558e-13 0 5.7365e-16
1914 18 0.001 0.0222369 -0.000860551 -0.0401421 -1.52039e-13 2.21896e-12 -6.9005e-13 0 5.7365e-16
348 11 0.001 -0.0577112 0.00104934 -0.0396094 8.83139e-13 2.25137e-12 -1.00752e-12 0 8.36999e-16
349 11 0.001 -0.0578574 9.76244e-05 -0.0398756 3.66043e-13 2.30653e-12 -8.76183e-13 0 7.07903e-16
724 12 0.001 -0.0377112 0.00104934 -0.0396094 9.24321e-13 2.24482e-12 -1.00741e-12 0 8.36999e-16
725 12 0.001 -0.0378574 9.76244e-05 -0.0398756 2.9305e-13 2.30607e-12 -8.74769e-13 0 7.07903e-16
1120 14 0.001 -0.0177112 0.00104934 -0.0396094 8.48735e-13 2.26493e-12 -1.0066e-12 0 8.36999e-16
1121 14 0.001 -0.0178574 9.76244e-05 -0.0398756 4.01391e-13 2.30097e-12 -8.75727e-13 0 7.07903e-16
1516 16 0.001 0.00228878 0.00104934 -0.0396094 8.65438e-13 2.26251e-12 -1.00698e-12 0 8.36999e-16
1517 16 0.001 0.00214258 9.76244e-05 -0.0398756 3.66452e-13 2.30217e-12 -8.75461e-13 0 7.07903e-16
1912 18 0.001 0.0222888 0.00104934 -0.0396094 8.70178e-13 2.25645e-12 -1.00844e-12 0 8.36999e-16
1913 18 0.001 0.0221426 9.76244e-05 -0.0398756 3.56209e-13 2.30796e-12 -8.75109e-13 0 7.07903e-16
347 11 0.001 -0.0573336 0.00193525 -0.0393438 1.29232e-12 2.07767e-12 -1.08332e-12 0 9.44567e-16
346 11 0.001 -0.0567479 0.00270006 -0.0390789 1.75385e-12 1.76184e-12 -1.06101e-12 0 1.01757e-15
722 12 0.001 -0.0367479 0.00270006 -0.0390789 1.76275e-12 1.75644e-12 -1.05814e-12 0 1.01757e-15
723 12 0.001 -0.0373336 0.00193525 -0.0393438 1.28356e-12 2.08789e-12 -1.08195e-12 0 9.44567e-16
1118 14 0.001 -0.0167479 0.00270006 -0.0390789 1.72021e-12 1.76609e-12 -1.06623e-12 0 1.01757e-15
1119 14 0.001 -0.0173336 0.00193525 -0.0393438 1.31916e-12 2.06758e-12 -1.08187e-12 0 9.44567e-16
1515 16 0.001 0.00266645 0.00193525 -0.0393438 1.32689e-12 2.06934e-12 -1.08007e-12 0 9.44567e-16
1514 16 0.001 0.00325206 0.00270006 -0.0390789 1.70902e-12 1.77087e-12 -1.06698e-12 0 1.01757e-15
1910 18 0.001 0.0232521 0.00270006 -0.0390789 1.70248e-12 1.76628e-12 -1.06864e-12 0 1.01757e-15
1911 18 0.001 0.0226664 0.00193525 -0.0393438 1.33801e-12 2.07494e-12 -1.0772e-12 0 9.44567e-16
345 11 0.001 -0.0559909 0.003296 -0.0388148 1.97247e-12 1.37759e-12 -9.82993e-13 0 1.04955e-15
344 11 0.001 -0.0551096 0.00368582 -0.0385513 2.12406e-12 8.91627e-13 -8.42247e-13 0 1.04183e-15
720 12 0.001 -0.0351096 0.00368582 -0.0385513 2.21769e-12 8.80022e-13 -8.17323e-13 0 1.04183e-15
721 12 0.001 -0.0359909 0.003296 -0.0388148 1.89926e-12 1.37311e-12 -1.00334e-12 0 1.04955e-15
1117 14 0.001 -0.0159909 0.003296 -0.0388148 1.97273e-12 1.36309e-12 -9.86674e-13 0 1.04955e-15
1116 14 0.001 -0.0151096 0.00368582 -0.0385513 2.16225e-12 9.01009e-13 -8.29397e-13 0 1.04183e-15
1513 16 0.001 0.00400911 0.003296 -0.0388148 1.98329e-12 1.35655e-12 -9.8572e-13 0 1.04955e-15
1512 16 0.001 0.00489036 0.00368582 -0.0385513 2.14934e-12 9.04761e-13 -8.32046e-13 0 1.04183e-15
1908 18 0.001 0.0248904 0.00368582 -0.0385513 2.11958e-12 8.90672e-13 -8.40992e-13 0 1.04183e-15
1909 18 0.001 0.0240091 0.003296 -0.0388148 1.99491e-12 1.36968e-12 -9.81082e-13 0 1.04955e-15
338 11 0.001 -0.0503906 0.00134921 -0.0369663 6.74647e-13 -1.57347e-12 -1.11442e-13 0 7.4052e-16
714 12 0.001 -0.0303906 0.00134921 -0.0369663 6.06526e-13 -1.59021e-12 -1.16286e-13 0 7.4052e-16
1110 14 0.001 -0.0103906 0.00134921 -0.0369663 6.51991e-13 -1.59029e-12 -1.10314e-13 0 7.4052e-16
1506 16 0.001 0.00960944 0.00134921 -0.0369663 6.48724e-13 -1.58754e-12 -1.11325e-13 0 7.4052e-16
1902 18 0.001 0.0296094 0.00134921 -0.0369663 6.456e-13 -1.58506e-12 -1.11734e-13 0 7.4052e-16
340 11 0.001 -0.0514856 0.00291561 -0.0374968 1.52509e-12 -9.80625e-13 -1.63994e-13 0 8.17587e-16
339 11 0.001 -0.0508394 0.00220127 -0.0372319 1.0817e-12 -1.3483e-12 -1.07989e-13 0 7.70061e-16
715 12 0.001 -0.0308394 0.00220127 -0.0372319 1.16706e-12 -1.31974e-12 -9.97688e-14 0 7.70061e-16
716 12 0.001 -0.0314856 0.00291561 -0.0374968 1.49039e-12 -1.02445e-12 -1.63089e-13 0 8.17587e-16
1111 14 0.001 -0.0108394 0.00220127 -0.0372319 1.11064e-12 -1.32434e-12 -1.09378e-13 0 7.70061e-16
1112 14 0.001 -0.0114856 0.00291561 -0.0374968 1.53618e-12 -1.00646e-12 -1.55383e-13 0 8.17587e-16
1508 16 0.001 0.0085144 0.00291561 -0.0374968 1.51215e-12 -1.01428e-12 -1.58629e-13 0 8.17587e-16
1507 16 0.001 0.00916059 0.00220127 -0.0372319 1.11931e-12 -1.32016e-12 -1.09056e-13 0 7.70061e-16
1903 18 0.001 0.0291606 0.00220127 -0.0372319 1.1073e-12 -1.32786e-12 -1.0925e-13 0 7.70061e-16
1904 18 0.001 0.0285144 0.00291561 -0.0374968 1.5262e-12 -1.00052e-12 -1.58781e-13 0 8.17587e-16
343 11 0.001 -0.0541592 0.00384517 -0.038288 2.1755e-12 3.7697e-13 -6.48577e-13 0 1.00248e-15
342 11 0.001 -0.053199 0.00376408 -0.0380247 2.06075e-12 -9.59763e-14 -4.59038e-13 0 9.43599e-16
341 11 0.001 -0.0522888 0.00344763 -0.037761 1.86271e-12 -6.06646e-13 -2.79567e-13 0 8.78189e-16
719 12 0.001 -0.0341592 0.00384517 -0.038288 2.14953e-12 4.08501e-13 -6.55287e-13 0 1.00248e-15
718 12 0.001 -0.033199 0.00376408 -0.0380247 2.05846e-12 -1.29393e-13 -4.58014e-13 0 9.43599e-16
717 12 0.001 -0.0322888 0.00344763 -0.037761 1.85306e-12 -5.63323e-13 -2.86778e-13 0 8.78189e-16
1115 14 0.001 -0.0141592 0.00384517 -0.038288 2.15756e-12 3.85807e-13 -6.53825e-13 0 1.00248e-15
1113 14 0.001 -0.0122888 0.00344763 -0.037761 1.81464e-12 -5.82628e-13 -2.94342e-13 0 8.78189e-16
1114 14 0.001 -0.013199 0.00376408 -0.0380247 2.08408e-12 -1.1061e-13 -4.52218e-13 0 9.43599e-16
1511 16 0.001 0.00584078 0.00384517 -0.038288 2.16978e-12 3.86224e-13 -6.5127e-13 0 1.00248e-15
1510 16 0.001 0.00680105 0.00376408 -0.0380247 2.04961e-12 -1.16105e-13 -4.60105e-13 0 9.43599e-16
1509 16 0.001 0.00771119 0.00344763 -0.037761 1.8607e-12 -5.77391e-13 -2.84408e-13 0 8.78189e-16
1907 18 0.001 0.0258408 0.00384517 -0.038288 2.18796e-12 3.87959e-13 -6.46258e-13 0 1.00248e-15
1906 18 0.001 0.026801 0.00376408 -0.0380247 2.05796e-12 -1.08445e-13 -4.58511e-13 0 9.43599e-16
1905 18 0.001 0.0277112 0.00344763 -0.037761 1.84692e-12 -5.90672e-13 -2.857e-13 0 8.78189e-16
333 11 0.001 -0.0515816 -0.00300805 -0.0356339 -1.61299e-12 -1.1305e-12 -7.58848e-13 0 8.60721e-16
709 12 0.001 -0.0315816 -0.00300805 -0.0356339 -1.66513e-12 -1.11711e-12 -7.53673e-13 0 8.60721e-16
1105 14 0.001 -0.0115816 -0.00300805 -0.0356339 -1.63872e-12 -1.11144e-12 -7.60624e-13 0 8.60721e-16
1501 16 0.001 0.00841836 -0.00300805 -0.0356339 -1.64059e-12 -1.11961e-12 -7.58664e-13 0 8.60721e-16
1897 18 0.001 0.0284184 -0.00300805 -0.0356339 -1.65526e-12 -1.11644e-12 -7.56105e-13 0 8.60721e-16
334 11 0.001 -0.0509127 -0.00231547 -0.0359003 -1.3108e-12 -1.42997e-12 -6.2441e-13 0 8.09898e-16
710 12 0.001 -0.0309127 -0.00231547 -0.0359003 -1.27246e-12 -1.44277e-12 -6.2496e-13 0 8.09898e-16
1106 14 0.001 -0.0109127 -0.00231547 -0.0359003 -1.28839e-12 -1.44379e-12 -6.22317e-13 0 8.09898e-16
1502 16 0.001 0.00908726 -0.00231547 -0.0359003 -1.28135e-12 -1.4356e-12 -6.25029e-13 0 8.09898e-16
1898 18 0.001 0.0290873 -0.00231547 -0.0359003 -1.26879e-12 -1.43428e-12 -6.27878e-13 0 8.09898e-16
335 11 0.001 -0.0504365 -0.00147872 -0.0361669 -8.41168e-13 -1.6308e-12 -4.74895e-13 0 7.68459e-16
336 11 0.001 -0.0501826 -0.000550047 -0.0364336 -3.68292e-13 -1.73584e-12 -3.18937e-13 0 7.40961e-16
711 12 0.001 -0.0304365 -0.00147872 -0.0361669 -8.65584e-13 -1.61701e-12 -4.77566e-13 0 7.6846e-16
712 12 0.001 -0.0301826 -0.000550047 -0.0364336 -3.49608e-13 -1.74554e-12 -3.16481e-13 0 7.40961e-16
1107 14 0.001 -0.0104365 -0.00147872 -0.0361669 -8.49935e-13 -1.62061e-12 -4.77874e-13 0 7.6846e-16
1108 14 0.001 -0.0101826 -0.000550047 -0.0364336 -3.5957e-13 -1.73803e-12 -3.17811e-13 0 7.40961e-16
1503 16 0.001 0.00956349 -0.00147872 -0.0361669 -8.62079e-13 -1.62603e-12 -4.75791e-13 0 7.6846e-16
1504 16 0.001 0.00981736 -0.000550047 -0.0364336 -3.46174e-13 -1.73772e-12 -3.1833e-13 0 7.40961e-16
1899 18 0.001 0.0295635 -0.00147872 -0.0361669 -8.56209e-13 -1.62296e-12 -4.76488e-13 0 7.6846e-16
1900 18 0.001 0.0298174 -0.000550047 -0.0364336 -3.63473e-13 -1.74036e-12 -3.17113e-13 0 7.40961e-16
337 11 0.001 -0.050167 0.000412618 -0.0367001 1.37063e-13 -1.71424e-12 -1.9516e-13 0 7.30936e-16
713 12 0.001 -0.030167 0.000412618 -0.0367001 1.51483e-13 -1.70145e-12 -1.9606e-13 0 7.30936e-16
1109 14 0.001 -0.010167 0.000412618 -0.0367001 1.36519e-13 -1.7096e-12 -1.9545e-13 0 7.30936e-16
1505 16 0.001 0.00983301 0.000412618 -0.0367001 1.30745e-13 -1.71062e-12 -1.951e-13 0 7.30936e-16
1901 18 0.001 0.029833 0.000412618 -0.0367001 1.46014e-13 -1.71102e-12 -1.94805e-13 0 7.30936e-16
328 11 0.001 -0.0560953 -0.00323955 -0.0343098 -1.73184e-12 9.39704e-13 -6.49813e-13 0 1.09793e-15
329 11 0.001 -0.0552275 -0.00365825 -0.0345737 -1.88839e-12 5.5535e-13 -7.72344e-13 0 1.06314e-15
330 11 0.001 -0.0542831 -0.00384884 -0.034838 -2.08246e-12 1.24474e-13 -8.32755e-13 0 1.02036e-15
331 11 0.001 -0.0533211 -0.00379947 -0.0351028 -2.00641e-12 -3.20112e-13 -8.73825e-13 0 9.70417e-16
332 11 0.001 -0.0524015 -0.00351324 -0.0353681 -1.90947e-12 -7.36682e-13 -8.40526e-13 0 9.15862e-16
704 12 0.001 -0.0360953 -0.00323955 -0.0343098 -1.6041e-12 9.6758e-13 -6.71679e-13 0 1.09793e-15
705 12 0.001 -0.0352275 -0.00365825 -0.0345737 -1.99503e-12 5.31216e-13 -7.50389e-13 0 1.06314e-15
706 12 0.001 -0.0342831 -0.00384884 -0.034838 -2.00829e-12 1.44246e-13 -8.4779e-13 0 1.02036e-15
707 12 0.001 -0.0333211 -0.00379947 -0.0351028 -2.04841e-12 -3.23597e-13 -8.67348e-13 0 9.70417e-16
708 12 0.001 -0.0324015 -0.00351324 -0.0353681 -1.86614e-12 -7.50349e-13 -8.44541e-13 0 9.15862e-16
1100 14 0.001 -0.0160953 -0.00323955 -0.0343098 -1.70734e-12 9.38146e-13 -6.52968e-13 0 1.09793e-15
1101 14 0.001 -0.0152275 -0.00365825 -0.0345737 -1.9297e-12 5.5601e-13 -7.64385e-13 0 1.06314e-15
1102 14 0.001 -0.0142831 -0.00384884 -0.034838 -2.03027e-12 1.28146e-13 -8.42409e-13 0 1.02036e-15
1104 14 0.001 -0.0124015 -0.00351324 -0.0353681 -1.89411e-12 -7.53556e-13 -8.36896e-13 0 9.15862e-16
1103 14 0.001 -0.0133211 -0.00379947 -0.0351028 -2.03369e-12 -3.18506e-13 -8.71629e-13 0 9.70417e-16
1496 16 0.001 0.00390474 -0.00323955 -0.0343098 -1.69406e-12 9.42459e-13 -6.55126e-13 0 1.09793e-15
1497 16 0.001 0.00477252 -0.00365825 -0.0345737 -1.93115e-12 5.53809e-13 -7.63955e-13 0 1.06314e-15
1498 16 0.001 0.00571689 -0.00384884 -0.034838 -2.02482e-12 1.28111e-13 -8.45152e-13 0 1.02036e-15
1499 16 0.001 0.00667891 -0.00379947 -0.0351028 -2.04048e-12 -3.24675e-13 -8.67746e-13 0 9.70417e-16
1500 16 0.001 0.00759853 -0.00351324 -0.0353681 -1.89246e-12 -7.43916e-13 -8.39494e-13 0 9.15862e-16
1892 18 0.001 0.0239047 -0.00323955 -0.0343098 -1.71639e-12 9.37591e-13 -6.50996e-13 0 1.09793e-15
1893 18 0.001 0.0247725 -0.00365825 -0.0345737 -1.9259e-12 5.54723e-13 -7.65425e-13 0 1.06314e-15
1894 18 0.001 0.0257169 -0.00384884 -0.034838 -2.02437e-12 1.33697e-13 -8.44073e-13 0 1.02036e-15
1895 18 0.001 0.0266789 -0.00379947 -0.0351028 -2.04482e-12 -3.24863e-13 -8.68077e-13 0 9.70417e-16
1896 18 0.001 0.0275985 -0.00351324 -0.0353681 -1.88625e-12 -7.51141e-13 -8.3945e-13 0 9.15862e-16
327 11 0.001 -0.0568323 -0.00261887 -0.034046 -1.33929e-12 1.25595e-12 -5.3802e-13 0 1.12552e-15
703 12 0.001 -0.0368323 -0.00261887 -0.034046 -1.46566e-12 1.22615e-12 -5.20589e-13 0 1.12552e-15