ITEM: TIMESTEP
3000000
ITEM: NUMBER OF ATOMS
1970
ITEM: BOX BOUNDS ff ff ff
-6.0000000000000005e-02 6.0000000000000005e-02
-6.0000000000000001e-03 6.0000000000000001e-03
-5.5000000000000000e-02 5.5000000000000000e-02
ITEM: ATOMS id type radius x y z fx fy fz c_bendingE c_stretchingE
384 11 0.001 -0.0508701 -0.00262325 -0.0490002 -2.16994e-12 5.88307e-14 -1.86654e-12 0 6.61196e-16
385 11 0.001 -0.0503552 -0.00182854 -0.0493185 -1.48636e-12 -1.40235e-13 -1.25145e-12 0 5.17574e-15
760 12 0.001 -0.0308701 -0.00262325 -0.0490002 -2.16075e-12 6.19071e-14 -1.86694e-12 0 6.61196e-16
761 12 0.001 -0.0303552 -0.00182854 -0.0493185 -1.47904e-12 -1.41014e-13 -1.25328e-12 0 5.17574e-15
1156 14 0.001 -0.0108701 -0.00262325 -0.0490002 -2.14281e-12 5.40288e-14 -1.86901e-12 0 6.61196e-16
1157 14 0.001 -0.0103552 -0.00182854 -0.0493185 -1.48781e-12 -1.34032e-13 -1.25332e-12 0 5.17574e-15
1552 16 0.001 0.00912986 -0.00262325 -0.0490002 -2.1272e-12 5.31207e-14 -1.87023e-12 0 6.61196e-16
1553 16 0.001 0.00964477 -0.00182854 -0.0493185 -1.51091e-12 -1.32225e-13 -1.25209e-12 0 5.17574e-15
1948 18 0.001 0.0291299 -0.00262325 -0.0490002 -2.16067e-12 6.04442e-14 -1.86632e-12 0 6.61196e-16
1949 18 0.001 0.0296448 -0.00182854 -0.0493185 -1.49329e-12 -1.40223e-13 -1.25255e-12 0 5.17574e-15
2 2 0.001 -0.05 -4.31175e-17 -0.05 -5.75946e-06 7.94943e-06 1.68934e-06 0 2.97288e-15
386 11 0.001 -0.0500592 -0.000935061 -0.0496533 -7.61519e-13 -1.53525e-13 -6.19437e-13 0 7.56398e-15
762 12 0.001 -0.0300592 -0.000935061 -0.0496533 -7.76318e-13 -1.55736e-13 -6.17121e-13 0 7.56398e-15
4 4 0.001 -0.03 -4.31175e-17 -0.05 -5.75946e-06 7.94943e-06 1.68934e-06 0 2.97288e-15
6 6 0.001 -0.01 -4.31175e-17 -0.05 -5.75946e-06 7.94943e-06 1.68934e-06 0 2.97288e-15
1158 14 0.001 -0.0100592 -0.000935061 -0.0496533 -7.69734e-13 -1.60625e-13 -6.1656e-13 0 7.56398e-15
8 8 0.001 0.01 -4.31175e-17 -0.05 -5.75946e-06 7.94943e-06 1.68934e-06 0 2.97288e-15
1554 16 0.001 0.00994079 -0.000935061 -0.0496533 -7.56042e-13 -1.62651e-13 -6.16541e-13 0 7.56398e-15
10 10 0.001 0.03 -4.31175e-17 -0.05 -5.75946e-06 7.94943e-06 1.68934e-06 0 2.97288e-15
1950 18 0.001 0.0299408 -0.000935061 -0.0496533 -7.63696e-13 -1.56364e-13 -6.17456e-13 0 7.56398e-15
378 11 0.001 -0.056122 -0.00323049 -0.0474849 -2.76889e-12 3.05868e-12 -2.93511e-12 0 2.86624e-15
379 11 0.001 -0.0552672 -0.00370004 -0.0477016 -3.0317e-12 2.56885e-12 -3.20856e-12 0 2.59918e-15
380 11 0.001 -0.0543255 -0.00394537 -0.0479272 -3.29982e-12 2.00779e-12 -3.26263e-12 0 1.95766e-15
381 11 0.001 -0.0533556 -0.00395206 -0.0481666 -3.2129e-12 1.40595e-12 -3.15445e-12 0 1.10776e-15
382 11 0.001 -0.0524184 -0.00372096 -0.0484239 -3.07907e-12 9.00179e-13 -2.86027e-12 0 3.63974e-16
383 11 0.001 -0.0515723 -0.00326803 -0.0487016 -2.62911e-12 3.87364e-13 -2.41699e-12 0 1.09453e-16
754 12 0.001 -0.036122 -0.00323049 -0.0474849 -2.7558e-12 3.05038e-12 -2.93686e-12 0 2.86624e-15
755 12 0.001 -0.0352672 -0.00370004 -0.0477016 -3.04998e-12 2.58325e-12 -3.20514e-12 0 2.59918e-15
756 12 0.001 -0.0343255 -0.00394537 -0.0479272 -3.28756e-12 1.98309e-12 -3.26387e-12 0 1.95766e-15
757 12 0.001 -0.0333556 -0.00395206 -0.0481666 -3.24921e-12 1.42997e-12 -3.14826e-12 0 1.10776e-15
758 12 0.001 -0.0324184 -0.00372096 -0.0484239 -3.03359e-12 8.91844e-13 -2.86884e-12 0 3.63974e-16
759 12 0.001 -0.0315723 -0.00326803 -0.0487016 -2.65191e-12 3.88794e-13 -2.41433e-12 0 1.09453e-16
1151 14 0.001 -0.0152672 -0.00370004 -0.0477016 -3.06785e-12 2.58167e-12 -3.20138e-12 0 2.59918e-15
1150 14 0.001 -0.016122 -0.00323049 -0.0474849 -2.73777e-12 3.05246e-12 -2.93984e-12 0 2.86624e-15
1152 14 0.001 -0.0143255 -0.00394537 -0.0479272 -3.29254e-12 1.98642e-12 -3.26256e-12 0 1.95766e-15
1153 14 0.001 -0.0133556 -0.00395206 -0.0481666 -3.2207e-12 1.43957e-12 -3.15672e-12 0 1.10776e-15
1154 14 0.001 -0.0124184 -0.00372096 -0.0484239 -3.03745e-12 8.70732e-13 -2.86385e-12 0 3.63974e-16
1155 14 0.001 -0.0115723 -0.00326803 -0.0487016 -2.67816e-12 4.02887e-13 -2.41172e-12 0 1.09453e-16
1546 16 0.001 0.003878 -0.00323049 -0.0474849 -2.72636e-12 3.06181e-12 -2.94118e-12 0 2.86624e-15
1547 16 0.001 0.00473275 -0.00370004 -0.0477016 -3.07505e-12 2.57776e-12 -3.19957e-12 0 2.59918e-15
1548 16 0.001 0.00567453 -0.00394537 -0.0479272 -3.27908e-12 1.986e-12 -3.26601e-12 0 1.95766e-15
1549 16 0.001 0.00664439 -0.00395206 -0.0481666 -3.24805e-12 1.43776e-12 -3.14989e-12 0 1.10776e-15
1550 16 0.001 0.00758162 -0.00372096 -0.0484239 -3.01592e-12 8.77713e-13 -2.86988e-12 0 3.63974e-16
1551 16 0.001 0.00842766 -0.00326803 -0.0487016 -2.68731e-12 3.98559e-13 -2.40931e-12 0 1.09453e-16
1942 18 0.001 0.023878 -0.00323049 -0.0474849 -2.73252e-12 3.05622e-12 -2.93966e-12 0 2.86624e-15
1943 18 0.001 0.0247328 -0.00370004 -0.0477016 -3.06175e-12 2.56878e-12 -3.20415e-12 0 2.59918e-15
1944 18 0.001 0.0256745 -0.00394537 -0.0479272 -3.28857e-12 1.99628e-12 -3.26277e-12 0 1.95766e-15
1945 18 0.001 0.0266444 -0.00395206 -0.0481666 -3.2488e-12 1.42905e-12 -3.14854e-12 0 1.10776e-15
1946 18 0.001 0.0275816 -0.00372096 -0.0484239 -3.03164e-12 8.90556e-13 -2.87005e-12 0 3.63974e-16
1947 18 0.001 0.0284277 -0.00326803 -0.0487016 -2.64612e-12 3.88946e-13 -2.41467e-12 0 1.09453e-16
376 11 0.001 -0.057366 -0.00174622 -0.0470565 -1.69236e-12 3.66754e-12 -1.97222e-12 0 2.35869e-15
377 11 0.001 -0.0568364 -0.00256549 -0.0472716 -2.19742e-12 3.45373e-12 -2.51778e-12 0 2.751e-15
753 12 0.001 -0.0368364 -0.00256549 -0.0472716 -2.20371e-12 3.45598e-12 -2.51948e-12 0 2.751e-15
752 12 0.001 -0.037366 -0.00174622 -0.0470565 -1.67704e-12 3.66361e-12 -1.97205e-12 0 2.35869e-15
1149 14 0.001 -0.0168364 -0.00256549 -0.0472716 -2.21842e-12 3.44688e-12 -2.51909e-12 0 2.751e-15
1148 14 0.001 -0.017366 -0.00174622 -0.0470565 -1.65533e-12 3.66768e-12 -1.97283e-12 0 2.35869e-15
1544 16 0.001 0.00263401 -0.00174622 -0.0470565 -1.62876e-12 3.67635e-12 -1.97259e-12 0 2.35869e-15
1545 16 0.001 0.00316365 -0.00256549 -0.0472716 -2.23531e-12 3.43501e-12 -2.51888e-12 0 2.751e-15
1941 18 0.001 0.0231636 -0.00256549 -0.0472716 -2.23408e-12 3.44619e-12 -2.51784e-12 0 2.751e-15
1940 18 0.001 0.022634 -0.00174622 -0.0470565 -1.63055e-12 3.6729e-12 -1.97288e-12 0 2.35869e-15
375 11 0.001 -0.0576784 -0.000823567 -0.0468348 -8.9668e-13 3.74324e-12 -1.35495e-12 0 1.83905e-15
751 12 0.001 -0.0376784 -0.000823567 -0.0468348 -8.95192e-13 3.74508e-12 -1.35404e-12 0 1.83905e-15
1147 14 0.001 -0.0176784 -0.000823567 -0.0468348 -9.24749e-13 3.75209e-12 -1.3522e-12 0 1.83905e-15
1543 16 0.001 0.00232162 -0.000823567 -0.0468348 -9.51446e-13 3.74781e-12 -1.3529e-12 0 1.83905e-15
1939 18 0.001 0.0223216 -0.000823567 -0.0468348 -9.57464e-13 3.74729e-12 -1.35344e-12 0 1.83905e-15
373 11 0.001 -0.0575912 0.00110004 -0.0463591 4.21655e-13 3.33656e-12 -1.83302e-13 0 9.03474e-16
374 11 0.001 -0.0577548 0.000145183 -0.046603 -2.38188e-13 3.6235e-12 -7.39894e-13 0 1.32589e-15
749 12 0.001 -0.0375912 0.00110004 -0.0463591 4.66255e-13 3.33352e-12 -1.78683e-13 0 9.03474e-16
750 12 0.001 -0.0377548 0.000145183 -0.046603 -2.73344e-13 3.62822e-12 -7.41727e-13 0 1.32589e-15
1145 14 0.001 -0.0175912 0.00110004 -0.0463591 4.36048e-13 3.33446e-12 -1.82022e-13 0 9.03474e-16
1146 14 0.001 -0.0177548 0.000145183 -0.046603 -2.43989e-13 3.62093e-12 -7.41909e-13 0 1.32589e-15
1541 16 0.001 0.0024088 0.00110004 -0.0463591 4.54329e-13 3.33491e-12 -1.79509e-13 0 9.03474e-16
1542 16 0.001 0.00224523 0.000145183 -0.046603 -2.3761e-13 3.62207e-12 -7.41892e-13 0 1.32589e-15
1937 18 0.001 0.0224088 0.00110004 -0.0463591 4.16741e-13 3.33811e-12 -1.837e-13 0 9.03474e-16
1938 18 0.001 0.0222452 0.000145183 -0.046603 -2.1565e-13 3.62016e-12 -7.40497e-13 0 1.32589e-15
372 11 0.001 -0.0571986 0.00198205 -0.0461023 1.12083e-12 2.88998e-12 2.62584e-13 0 6.02218e-16
748 12 0.001 -0.0371986 0.00198205 -0.0461023 1.08335e-12 2.8886e-12 2.55726e-13 0 6.02218e-16
1144 14 0.001 -0.0171986 0.00198205 -0.0461023 1.11902e-12 2.89195e-12 2.62758e-13 0 6.02218e-16
1540 16 0.001 0.00280139 0.00198205 -0.0461023 1.09429e-12 2.89569e-12 2.59506e-13 0 6.02218e-16
1936 18 0.001 0.0228014 0.00198205 -0.0461023 1.13451e-12 2.88782e-12 2.64917e-13 0 6.02218e-16
371 11 0.001 -0.0566021 0.00273688 -0.0458333 1.65183e-12 2.32286e-12 5.40647e-13 0 4.14138e-16
747 12 0.001 -0.0366021 0.00273688 -0.0458333 1.6836e-12 2.32198e-12 5.47736e-13 0 4.14138e-16
1143 14 0.001 -0.0166021 0.00273688 -0.0458333 1.6482e-12 2.32107e-12 5.3997e-13 0 4.14138e-16
1539 16 0.001 0.00339794 0.00273688 -0.0458333 1.66523e-12 2.3129e-12 5.41775e-13 0 4.14138e-16
1935 18 0.001 0.0233979 0.00273688 -0.0458333 1.63333e-12 2.33123e-12 5.37797e-13 0 4.14138e-16
370 11 0.001 -0.0558391 0.00331815 -0.0455539 2.10778e-12 1.63227e-12 6.3838e-13 0 3.1444e-16
369 11 0.001 -0.0549575 0.00369017 -0.0452669 2.44846e-12 8.91242e-13 5.65262e-13 0 2.78265e-16
368 11 0.001 -0.0540123 0.00383013 -0.0449753 2.62599e-12 1.01856e-13 3.27301e-13 0 2.87674e-16
367 11 0.001 -0.0530625 0.00372947 -0.0446824 2.61043e-12 -7.02897e-13 -2.08194e-14 0 3.30095e-16
745 12 0.001 -0.0349575 0.00369017 -0.0452669 2.45342e-12 8.91334e-13 5.65738e-13 0 2.78265e-16
746 12 0.001 -0.0358391 0.00331815 -0.0455539 2.09424e-12 1.6393e-12 6.36472e-13 0 3.1444e-16
744 12 0.001 -0.0340123 0.00383013 -0.0449753 2.59057e-12 9.31364e-14 3.16779e-13 0 2.87674e-16
743 12 0.001 -0.0330625 0.00372947 -0.0446824 2.64236e-12 -6.96881e-13 -1.11711e-14 0 3.30095e-16
1142 14 0.001 -0.0158391 0.00331815 -0.0455539 2.12281e-12 1.64081e-12 6.43231e-13 0 3.1444e-16
1140 14 0.001 -0.0140123 0.00383013 -0.0449753 2.59299e-12 9.43965e-14 3.17367e-13 0 2.87674e-16
1141 14 0.001 -0.0149575 0.00369017 -0.0452669 2.44378e-12 8.87434e-13 5.63714e-13 0 2.78265e-16
1139 14 0.001 -0.0130625 0.00372947 -0.0446824 2.6444e-12 -6.92291e-13 -1.14359e-14 0 3.30095e-16
1538 16 0.001 0.0041609 0.00331815 -0.0455539 2.11991e-12 1.64858e-12 6.44558e-13 0 3.1444e-16
1537 16 0.001 0.0050425 0.00369017 -0.0452669 2.42708e-12 8.85374e-13 5.57217e-13 0 2.78265e-16
1536 16 0.001 0.00598772 0.00383013 -0.0449753 2.60738e-12 8.92106e-14 3.22532e-13 0 2.87674e-16
1535 16 0.001 0.0069375 0.00372947 -0.0446824 2.64467e-12 -6.89587e-13 -1.14596e-14 0 3.30095e-16
1933 18 0.001 0.0250425 0.00369017 -0.0452669 2.38792e-12 8.91954e-13 5.46909e-13 0 2.78265e-16
1934 18 0.001 0.0241609 0.00331815 -0.0455539 2.1568e-12 1.63003e-12 6.5189e-13 0 3.1444e-16
1932 18 0.001 0.0259877 0.00383013 -0.0449753 2.62785e-12 9.17561e-14 3.28979e-13 0 2.87674e-16
1931 18 0.001 0.0269375 0.00372947 -0.0446824 2.64949e-12 -6.93561e-13 -1.0975e-14 0 3.30095e-16
361 11 0.001 -0.0501828 -0.0006474 -0.0430113 -2.58221e-13 -3.0125e-12 -1.40392e-12 0 5.01683e-16
737 12 0.001 -0.0301828 -0.0006474 -0.0430113 -2.83147e-13 -3.00755e-12 -1.40637e-12 0 5.01683e-16
1133 14 0.001 -0.0101828 -0.0006474 -0.0430113 -2.59727e-13 -3.00476e-12 -1.40767e-12 0 5.01683e-16
1529 16 0.001 0.00981715 -0.0006474 -0.0430113 -2.69563e-13 -3.01103e-12 -1.40379e-12 0 5.01683e-16
1925 18 0.001 0.0298172 -0.0006474 -0.0430113 -2.4906e-13 -3.01091e-12 -1.40431e-12 0 5.01683e-16
362 11 0.001 -0.0501398 0.000315009 -0.0432757 3.91897e-13 -3.05556e-12 -1.46391e-12 0 5.38906e-16
363 11 0.001 -0.0503365 0.00125656 -0.0435455 1.05746e-12 -2.90378e-12 -1.37577e-12 0 5.45159e-16
738 12 0.001 -0.0301398 0.000315009 -0.0432757 4.11137e-13 -3.05946e-12 -1.45992e-12 0 5.38906e-16
739 12 0.001 -0.0303365 0.00125656 -0.0435455 1.04588e-12 -2.90325e-12 -1.37841e-12 0 5.45159e-16
1134 14 0.001 -0.0101398 0.000315009 -0.0432757 4.05047e-13 -3.06472e-12 -1.45836e-12 0 5.38906e-16
1135 14 0.001 -0.0103365 0.00125656 -0.0435455 1.04529e-12 -2.89543e-12 -1.38025e-12 0 5.45159e-16
1530 16 0.001 0.00986015 0.000315009 -0.0432757 4.06215e-13 -3.04974e-12 -1.46525e-12 0 5.38906e-16
1531 16 0.001 0.00966347 0.00125656 -0.0435455 1.05686e-12 -2.9088e-12 -1.3725e-12 0 5.45159e-16
1926 18 0.001 0.0298602 0.000315009 -0.0432757 3.89269e-13 -3.04929e-12 -1.46559e-12 0 5.38906e-16
1927 18 0.001 0.0296635 0.00125656 -0.0435455 1.06183e-12 -2.91067e-12 -1.37195e-12 0 5.45159e-16
365 11 0.001 -0.0513836 0.00284601 -0.0441035 2.09556e-12 -2.0612e-12 -8.29311e-13 0 4.61375e-16
364 11 0.001 -0.0507601 0.00211821 -0.0438215 1.65019e-12 -2.59035e-12 -1.14656e-12 0 5.17012e-16
740 12 0.001 -0.0307601 0.00211821 -0.0438215 1.65685e-12 -2.58852e-12 -1.14496e-12 0 5.17012e-16
741 12 0.001 -0.0313836 0.00284601 -0.0441035 2.08159e-12 -2.06303e-12 -8.32829e-13 0 4.61375e-16
1136 14 0.001 -0.0107601 0.00211821 -0.0438215 1.64081e-12 -2.59655e-12 -1.14689e-12 0 5.17012e-16
1137 14 0.001 -0.0113836 0.00284601 -0.0441035 2.11787e-12 -2.05165e-12 -8.26266e-13 0 4.61375e-16
1533 16 0.001 0.00861635 0.00284601 -0.0441035 2.1223e-12 -2.05879e-12 -8.22886e-13 0 4.61375e-16
1532 16 0.001 0.00923986 0.00211821 -0.0438215 1.62609e-12 -2.58489e-12 -1.15409e-12 0 5.17012e-16
1928 18 0.001 0.0292399 0.00211821 -0.0438215 1.62241e-12 -2.57947e-12 -1.15583e-12 0 5.17012e-16
1929 18 0.001 0.0286164 0.00284601 -0.0441035 2.13965e-12 -2.06878e-12 -8.17312e-13 0 4.61375e-16
366 11 0.001 -0.0521676 0.00339448 -0.0443911 2.45498e-12 -1.41698e-12 -4.27419e-13 0 3.9318e-16
742 12 0.001 -0.0321676 0.00339448 -0.0443911 2.4626e-12 -1.41821e-12 -4.25682e-13 0 3.9318e-16
1138 14 0.001 -0.0121676 0.00339448 -0.0443911 2.43365e-12 -1.42825e-12 -4.31469e-13 0 3.9318e-16
1534 16 0.001 0.00783243 0.00339448 -0.0443911 2.43389e-12 -1.42557e-12 -4.32328e-13 0 3.9318e-16
1930 18 0.001 0.0278324 0.00339448 -0.0443911 2.41133e-12 -1.41806e-12 -4.38489e-13 0 3.9318e-16
355 11 0.001 -0.0543808 -0.00384503 -0.0414637 -2.26385e-12 2.96892e-13 -1.89931e-13 0 3.2165e-16
356 11 0.001 -0.0534164 -0.00381985 -0.041723 -2.25799e-12 -4.3442e-13 -2.81608e-13 0 2.97642e-16
357 11 0.001 -0.0524877 -0.00355672 -0.0419806 -2.15873e-12 -1.13093e-12 -4.55751e-13 0 3.03251e-16
358 11 0.001 -0.0516527 -0.00307192 -0.042237 -1.87101e-12 -1.77779e-12 -7.16229e-13 0 3.34335e-16
731 12 0.001 -0.0343808 -0.00384503 -0.0414637 -2.28065e-12 3.04088e-13 -1.83652e-13 0 3.2165e-16
732 12 0.001 -0.0334164 -0.00381985 -0.041723 -2.21752e-12 -4.2731e-13 -2.93453e-13 0 2.97642e-16
733 12 0.001 -0.0324877 -0.00355672 -0.0419806 -2.19063e-12 -1.12836e-12 -4.486e-13 0 3.03251e-16
734 12 0.001 -0.0316527 -0.00307192 -0.042237 -1.83013e-12 -1.793e-12 -7.21546e-13 0 3.34335e-16
1127 14 0.001 -0.0143808 -0.00384503 -0.0414637 -2.25654e-12 3.0046e-13 -1.90431e-13 0 3.2165e-16
1128 14 0.001 -0.0134164 -0.00381985 -0.041723 -2.24821e-12 -4.22944e-13 -2.86206e-13 0 2.97642e-16
1129 14 0.001 -0.0124877 -0.00355672 -0.0419806 -2.15065e-12 -1.13348e-12 -4.57122e-13 0 3.03251e-16
1130 14 0.001 -0.0116527 -0.00307192 -0.042237 -1.85536e-12 -1.78391e-12 -7.17491e-13 0 3.34335e-16
1523 16 0.001 0.00561915 -0.00384503 -0.0414637 -2.257e-12 2.9585e-13 -1.90357e-13 0 3.2165e-16
1524 16 0.001 0.00658359 -0.00381985 -0.041723 -2.25498e-12 -4.14963e-13 -2.84854e-13 0 2.97642e-16
1525 16 0.001 0.00751226 -0.00355672 -0.0419806 -2.14133e-12 -1.14017e-12 -4.58803e-13 0 3.03251e-16
1526 16 0.001 0.00834726 -0.00307192 -0.042237 -1.8544e-12 -1.78317e-12 -7.17607e-13 0 3.34335e-16
1919 18 0.001 0.0256192 -0.00384503 -0.0414637 -2.2325e-12 3.01642e-13 -1.96338e-13 0 3.2165e-16
1920 18 0.001 0.0265836 -0.00381985 -0.041723 -2.27887e-12 -4.27601e-13 -2.78067e-13 0 2.97642e-16
1921 18 0.001 0.0275123 -0.00355672 -0.0419806 -2.14285e-12 -1.1231e-12 -4.60452e-13 0 3.03251e-16
1922 18 0.001 0.0283473 -0.00307192 -0.042237 -1.84061e-12 -1.79737e-12 -7.1825e-13 0 3.34335e-16
359 11 0.001 -0.0509635 -0.00239568 -0.0424934 -1.37174e-12 -2.33742e-12 -1.00099e-12 0 3.8491e-16
360 11 0.001 -0.0504632 -0.00157026 -0.042751 -9.0613e-13 -2.7299e-12 -1.24166e-12 0 4.45275e-16
735 12 0.001 -0.0309635 -0.00239568 -0.0424934 -1.42034e-12 -2.32211e-12 -9.97051e-13 0 3.8491e-16
736 12 0.001 -0.0304632 -0.00157026 -0.042751 -8.70636e-13 -2.74031e-12 -1.24168e-12 0 4.45275e-16
1131 14 0.001 -0.0109635 -0.00239568 -0.0424934 -1.42085e-12 -2.33627e-12 -9.93509e-13 0 3.8491e-16
1132 14 0.001 -0.0104632 -0.00157026 -0.042751 -8.85821e-13 -2.73678e-12 -1.24261e-12 0 4.45275e-16
1527 16 0.001 0.00903645 -0.00239568 -0.0424934 -1.43055e-12 -2.3319e-12 -9.92558e-13 0 3.8491e-16
1528 16 0.001 0.00953681 -0.00157026 -0.042751 -8.74227e-13 -2.74131e-12 -1.24356e-12 0 4.45275e-16
1923 18 0.001 0.0290365 -0.00239568 -0.0424934 -1.43662e-12 -2.32496e-12 -9.9304e-13 0 3.8491e-16
1924 18 0.001 0.0295368 -0.00157026 -0.042751 -8.81447e-13 -2.74187e-12 -1.24314e-12 0 4.45275e-16
353 11 0.001 -0.0561783 -0.00319062 -0.0409392 -1.79628e-12 1.64732e-12 -3.4659e-13 0 4.7233e-16
354 11 0.001 -0.055321 -0.00363079 -0.0412024 -2.04136e-12 1.00677e-12 -2.29288e-13 0 3.78958e-16
729 12 0.001 -0.0361783 -0.00319062 -0.0409392 -1.74981e-12 1.65227e-12 -3.5592e-13 0 4.7233e-16
730 12 0.001 -0.035321 -0.00363079 -0.0412024 -2.07565e-12 9.94095e-13 -2.22933e-13 0 3.78958e-16
1125 14 0.001 -0.0161783 -0.00319062 -0.0409392 -1.77918e-12 1.65144e-12 -3.51037e-13 0 4.7233e-16
1126 14 0.001 -0.015321 -0.00363079 -0.0412024 -2.07588e-12 9.98811e-13 -2.21445e-13 0 3.78958e-16
1521 16 0.001 0.0038217 -0.00319062 -0.0409392 -1.78151e-12 1.65816e-12 -3.49494e-13 0 4.7233e-16
1522 16 0.001 0.00467902 -0.00363079 -0.0412024 -2.07158e-12 9.97232e-13 -2.22745e-13 0 3.78958e-16
1917 18 0.001 0.0238217 -0.00319062 -0.0409392 -1.77831e-12 1.65374e-12 -3.5109e-13 0 4.7233e-16
1918 18 0.001 0.024679 -0.00363079 -0.0412024 -2.08553e-12 9.97212e-13 -2.1921e-13 0 3.78958e-16
351 11 0.001 -0.0574398 -0.00175479 -0.0404089 -7.98771e-13 2.62781e-12 -8.19934e-13 0 7.60028e-16
352 11 0.001 -0.0568995 -0.00255202 -0.0406745 -1.36467e-12 2.2063e-12 -5.59625e-13 0 6.0139e-16
727 12 0.001 -0.0374398 -0.00175479 -0.0404089 -7.7534e-13 2.63455e-12 -8.19633e-13 0 7.60028e-16
728 12 0.001 -0.0368995 -0.00255202 -0.0406745 -1.38464e-12 2.19788e-12 -5.58115e-13 0 6.0139e-16
1123 14 0.001 -0.0174398 -0.00175479 -0.0404089 -8.31823e-13 2.6263e-12 -8.15021e-13 0 7.60028e-16
1124 14 0.001 -0.0168995 -0.00255202 -0.0406745 -1.33355e-12 2.2019e-12 -5.64776e-13 0 6.0139e-16
1519 16 0.001 0.00256022 -0.00175479 -0.0404089 -8.09135e-13 2.63268e-12 -8.16734e-13 0 7.60028e-16
1520 16 0.001 0.00310049 -0.00255202 -0.0406745 -1.34509e-12 2.19542e-12 -5.63994e-13 0 6.0139e-16
1915 18 0.001 0.0225602 -0.00175479 -0.0404089 -8.35726e-13 2.64116e-12 -8.11605e-13 0 7.60028e-16
1916 18 0.001 0.0231005 -0.00255202 -0.0406745 -1.32886e-12 2.19152e-12 -5.67356e-13 0 6.0139e-16
350 11 0.001 -0.0577655 -0.000848605 -0.0401429 -1.75445e-13 2.89821e-12 -1.06905e-12 0 9.35187e-16
726 12 0.001 -0.0377655 -0.000848605 -0.0401429 -2.44791e-13 2.89866e-12 -1.06671e-12 0 9.35187e-16
1122 14 0.001 -0.0177655 -0.000848605 -0.0401429 -1.9534e-13 2.90225e-12 -1.06927e-12 0 9.35187e-16
1518 16 0.001 0.00223452 -0.000848605 -0.0401429 -2.13055e-13 2.89653e-12 -1.06878e-12 0 9.35187e-16
1914 18 0.001 0.0222345 -0.000848605 -0.0401429 -1.92614e-13 2.89441e-12 -1.07075e-12 0 9.35187e-16
348 11 0.001 -0.0577067 0.00106148 -0.0396116 1.12689e-12 2.90302e-12 -1.38656e-12 0 1.25854e-15
349 11 0.001 -0.0578564 0.00011007 -0.039877 3.4571e-13 3.01855e-12 -1.26189e-12 0 1.10819e-15
724 12 0.001 -0.0377067 0.00106148 -0.0396116 1.03433e-12 2.91564e-12 -1.38634e-12 0 1.25854e-15
725 12 0.001 -0.0378564 0.00011007 -0.039877 4.56497e-13 3.01316e-12 -1.26273e-12 0 1.10819e-15
1120 14 0.001 -0.0177067 0.00106148 -0.0396116 1.05276e-12 2.9067e-12 -1.39016e-12 0 1.25854e-15
1121 14 0.001 -0.0178564 0.00011007 -0.039877 4.14604e-13 3.01808e-12 -1.26046e-12 0 1.10819e-15
1516 16 0.001 0.00229329 0.00106148 -0.0396116 1.04044e-12 2.90886e-12 -1.39101e-12 0 1.25854e-15
1517 16 0.001 0.00214364 0.00011007 -0.039877 4.23331e-13 3.01964e-12 -1.26024e-12 0 1.10819e-15
1912 18 0.001 0.0222933 0.00106148 -0.0396116 1.05152e-12 2.9071e-12 -1.39047e-12 0 1.25854e-15
1913 18 0.001 0.0221436 0.00011007 -0.039877 4.11337e-13 3.01927e-12 -1.26024e-12 0 1.10819e-15
347 11 0.001 -0.0573258 0.00194628 -0.0393469 1.56938e-12 2.71205e-12 -1.38837e-12 0 1.36885e-15
346 11 0.001 -0.0567375 0.00270926 -0.0390828 2.09927e-12 2.25438e-12 -1.30394e-12 0 1.42914e-15
722 12 0.001 -0.0367375 0.00270926 -0.0390828 2.12575e-12 2.25018e-12 -1.29881e-12 0 1.42914e-15
723 12 0.001 -0.0373258 0.00194628 -0.0393469 1.58071e-12 2.69791e-12 -1.39418e-12 0 1.36885e-15
1118 14 0.001 -0.0167375 0.00270926 -0.0390828 2.09897e-12 2.26545e-12 -1.3009e-12 0 1.42914e-15
1119 14 0.001 -0.0173258 0.00194628 -0.0393469 1.60103e-12 2.69712e-12 -1.38916e-12 0 1.36885e-15
1515 16 0.001 0.00267415 0.00194628 -0.0393469 1.62606e-12 2.69396e-12 -1.38605e-12 0 1.36885e-15
1514 16 0.001 0.00326252 0.00270926 -0.0390828 2.06726e-12 2.26921e-12 -1.3063e-12 0 1.42914e-15
1910 18 0.001 0.0232625 0.00270926 -0.0390828 2.0946e-12 2.2563e-12 -1.30379e-12 0 1.42914e-15
1911 18 0.001 0.0226742 0.00194628 -0.0393469 1.60616e-12 2.7011e-12 -1.38746e-12 0 1.36885e-15
345 11 0.001 -0.0559783 0.00330275 -0.0388193 2.38308e-12 1.73681e-12 -1.12789e-12 0 1.43882e-15
344 11 0.001 -0.0550957 0.0036897 -0.0385561 2.60966e-12 1.11762e-12 -8.8064e-13 0 1.40603e-15
720 12 0.001 -0.0350957 0.0036897 -0.0385561 2.60266e-12 1.12335e-12 -8.80439e-13 0 1.40603e-15
721 12 0.001 -0.0359783 0.00330275 -0.0388193 2.38668e-12 1.75182e-12 -1.12497e-12 0 1.43882e-15
1117 14 0.001 -0.0159783 0.00330275 -0.0388193 2.37862e-12 1.73105e-12 -1.131e-12 0 1.43882e-15
1116 14 0.001 -0.0150957 0.0036897 -0.0385561 2.62035e-12 1.13363e-12 -8.74086e-13 0 1.40603e-15
1513 16 0.001 0.00402169 0.00330275 -0.0388193 2.40035e-12 1.72724e-12 -1.12686e-12 0 1.43882e-15
1512 16 0.001 0.0049043 0.0036897 -0.0385561 2.61184e-12 1.13621e-12 -8.76002e-13 0 1.40603e-15
1908 18 0.001 0.0249043 0.0036897 -0.0385561 2.60976e-12 1.13178e-12 -8.78778e-13 0 1.40603e-15
1909 18 0.001 0.0240217 0.00330275 -0.0388193 2.38389e-12 1.73817e-12 -1.12752e-12 0 1.43882e-15
338 11 0.001 -0.0503849 0.00133804 -0.0369684 7.88981e-13 -2.08565e-12 -2.17251e-13 0 1.08991e-15
714 12 0.001 -0.0303849 0.00133804 -0.0369684 7.35278e-13 -2.09198e-12 -2.21626e-13 0 1.08991e-15
1110 14 0.001 -0.0103849 0.00133804 -0.0369684 7.16736e-13 -2.08997e-12 -2.23303e-13 0 1.08991e-15
1506 16 0.001 0.00961508 0.00133804 -0.0369684 7.14781e-13 -2.09204e-12 -2.23065e-13 0 1.08991e-15
1902 18 0.001 0.0296151 0.00133804 -0.0369684 7.46895e-13 -2.09279e-12 -2.20216e-13 0 1.08991e-15
340 11 0.001 -0.0514746 0.0029078 -0.0375001 1.89644e-12 -1.30988e-12 -1.08405e-13 0 1.14101e-15
339 11 0.001 -0.0508309 0.00219145 -0.0372346 1.21711e-12 -1.75881e-12 -1.45815e-13 0 1.10347e-15
715 12 0.001 -0.0308309 0.00219145 -0.0372346 1.29616e-12 -1.75644e-12 -1.34031e-13 0 1.10347e-15
716 12 0.001 -0.0314746 0.0029078 -0.0375001 1.82614e-12 -1.31274e-12 -1.20869e-13 0 1.14101e-15
1111 14 0.001 -0.0108309 0.00219145 -0.0372346 1.30211e-12 -1.75148e-12 -1.34476e-13 0 1.10347e-15
1112 14 0.001 -0.0114746 0.0029078 -0.0375001 1.80555e-12 -1.31451e-12 -1.26216e-13 0 1.14101e-15
1508 16 0.001 0.00852544 0.0029078 -0.0375001 1.79968e-12 -1.31704e-12 -1.25793e-13 0 1.14101e-15
1507 16 0.001 0.00916914 0.00219145 -0.0372346 1.31149e-12 -1.75061e-12 -1.3359e-13 0 1.10347e-15
1903 18 0.001 0.0291691 0.00219145 -0.0372346 1.29822e-12 -1.75261e-12 -1.33937e-13 0 1.10347e-15
1904 18 0.001 0.0285254 0.0029078 -0.0375001 1.78423e-12 -1.31906e-12 -1.30151e-13 0 1.14101e-15
343 11 0.001 -0.0541448 0.00384594 -0.0382928 2.6094e-12 4.91387e-13 -6.24103e-13 0 1.34472e-15
342 11 0.001 -0.0531848 0.00376172 -0.0380292 2.52266e-12 -1.6916e-13 -3.81062e-13 0 1.27089e-15
341 11 0.001 -0.0522759 0.00344235 -0.037765 2.14539e-12 -7.85686e-13 -2.28336e-13 0 1.19922e-15
719 12 0.001 -0.0341448 0.00384594 -0.0382928 2.59302e-12 4.77061e-13 -6.31622e-13 0 1.34472e-15
718 12 0.001 -0.0331848 0.00376172 -0.0380292 2.52859e-12 -1.65023e-13 -3.769e-13 0 1.27089e-15
717 12 0.001 -0.0322759 0.00344235 -0.037765 2.17744e-12 -7.81742e-13 -2.23134e-13 0 1.19922e-15
1115 14 0.001 -0.0141448 0.00384594 -0.0382928 2.61293e-12 4.78884e-13 -6.2605e-13 0 1.34472e-15
1113 14 0.001 -0.0122759 0.00344235 -0.037765 2.21679e-12 -7.81556e-13 -2.11529e-13 0 1.19922e-15
1114 14 0.001 -0.0131848 0.00376172 -0.0380292 2.48882e-12 -1.70613e-13 -3.88551e-13 0 1.27089e-15
1511 16 0.001 0.00585524 0.00384594 -0.0382928 2.61953e-12 4.73893e-13 -6.24597e-13 0 1.34472e-15
1510 16 0.001 0.00681515 0.00376172 -0.0380292 2.48614e-12 -1.66441e-13 -3.8827e-13 0 1.27089e-15
1509 16 0.001 0.00772412 0.00344235 -0.037765 2.21531e-12 -7.79338e-13 -2.13767e-13 0 1.19922e-15
1907 18 0.001 0.0258552 0.00384594 -0.0382928 2.63031e-12 4.83035e-13 -6.20228e-13 0 1.34472e-15
1906 18 0.001 0.0268152 0.00376172 -0.0380292 2.45718e-12 -1.79394e-13 -3.96744e-13 0 1.27089e-15
1905 18 0.001 0.0277241 0.00344235 -0.037765 2.25224e-12 -7.71712e-13 -2.0419e-13 0 1.19922e-15
333 11 0.001 -0.0515906 -0.00301528 -0.0356361 -2.09091e-12 -1.5226e-12 -1.07044e-12 0 1.31118e-15
709 12 0.001 -0.0315906 -0.00301528 -0.0356361 -2.09661e-12 -1.51989e-12 -1.0684e-12 0 1.31118e-15
1105 14 0.001 -0.0115906 -0.00301528 -0.0356361 -2.12428e-12 -1.51325e-12 -1.06448e-12 0 1.31118e-15
1501 16 0.001 0.00840942 -0.00301528 -0.0356361 -2.11132e-12 -1.52146e-12 -1.06621e-12 0 1.31118e-15
1897 18 0.001 0.0284094 -0.00301528 -0.0356361 -2.11758e-12 -1.52209e-12 -1.06473e-12 0 1.31118e-15
334 11 0.001 -0.0509194 -0.0023248 -0.0359021 -1.66951e-12 -1.90035e-12 -9.65569e-13 0 1.24381e-15
710 12 0.001 -0.0309194 -0.0023248 -0.0359021 -1.68868e-12 -1.89907e-12 -9.63592e-13 0 1.24381e-15
1106 14 0.001 -0.0109194 -0.0023248 -0.0359021 -1.66512e-12 -1.91104e-12 -9.64625e-13 0 1.24381e-15
1502 16 0.001 0.00908063 -0.0023248 -0.0359021 -1.67673e-12 -1.90652e-12 -9.62948e-13 0 1.24381e-15
1898 18 0.001 0.0290806 -0.0023248 -0.0359021 -1.65683e-12 -1.89918e-12 -9.6808e-13 0 1.24381e-15
335 11 0.001 -0.0504403 -0.00148957 -0.0361684 -1.14621e-12 -2.17439e-12 -7.90013e-13 0 1.18229e-15
336 11 0.001 -0.0501834 -0.000561739 -0.0364351 -5.19592e-13 -2.29277e-12 -5.91784e-13 0 1.13266e-15
711 12 0.001 -0.0304403 -0.00148957 -0.0361684 -1.13209e-12 -2.18374e-12 -7.88721e-13 0 1.18229e-15
712 12 0.001 -0.0301834 -0.000561739 -0.0364351 -5.34503e-13 -2.28785e-12 -5.93338e-13 0 1.13266e-15
1107 14 0.001 -0.0104403 -0.00148957 -0.0361684 -1.14734e-12 -2.17764e-12 -7.88277e-13 0 1.18229e-15
1108 14 0.001 -0.0101834 -0.000561739 -0.0364351 -5.34133e-13 -2.29142e-12 -5.92976e-13 0 1.13266e-15
1503 16 0.001 0.00955965 -0.00148957 -0.0361684 -1.13367e-12 -2.17553e-12 -7.91398e-13 0 1.18229e-15
1504 16 0.001 0.00981661 -0.000561739 -0.0364351 -5.39957e-13 -2.29115e-12 -5.91505e-13 0 1.13266e-15
1899 18 0.001 0.0295597 -0.00148957 -0.0361684 -1.15966e-12 -2.18404e-12 -7.85656e-13 0 1.18229e-15
1900 18 0.001 0.0298166 -0.000561739 -0.0364351 -5.14144e-13 -2.28995e-12 -5.93531e-13 0 1.13266e-15
337 11 0.001 -0.0501645 0.000400816 -0.0367019 6.53224e-14 -2.25813e-12 -3.93485e-13 0 1.10044e-15
713 12 0.001 -0.0301645 0.000400816 -0.0367019 9.48848e-14 -2.25412e-12 -3.92898e-13 0 1.10044e-15
1109 14 0.001 -0.0101645 0.000400816 -0.0367019 1.10565e-13 -2.25327e-12 -3.92322e-13 0 1.10044e-15
1505 16 0.001 0.00983548 0.000400816 -0.0367019 1.08494e-13 -2.25471e-12 -3.92427e-13 0 1.10044e-15
1901 18 0.001 0.0298355 0.000400816 -0.0367019 7.72949e-14 -2.25069e-12 -3.9429e-13 0 1.10044e-15
328 11 0.001 -0.0561054 -0.00323291 -0.0343135 -2.05524e-12 1.13242e-12 -6.64329e-13 0 1.58792e-15
329 11 0.001 -0.0552389 -0.00365422 -0.0345774 -2.39615e-12 6.47947e-13 -8.1333e-13 0 1.54629e-15
330 11 0.001 -0.054295 -0.00384769 -0.0348414 -2.56976e-12 9.71047e-14 -9.53653e-13 0 1.49796e-15
331 11 0.001 -0.0533328 -0.00380128 -0.0351058 -2.49787e-12 -4.79989e-13 -1.0806e-12 0 1.44186e-15
332 11 0.001 -0.0524121 -0.0035179 -0.0353707 -2.44245e-12 -1.0222e-12 -1.0983e-12 0 1.3787e-15
704 12 0.001 -0.0361054 -0.00323291 -0.0343135 -2.07426e-12 1.15002e-12 -6.5655e-13 0 1.58792e-15
705 12 0.001 -0.0352389 -0.00365422 -0.0345774 -2.40544e-12 6.45198e-13 -8.11042e-13 0 1.54629e-15
706 12 0.001 -0.034295 -0.00384769 -0.0348414 -2.4964e-12 9.72932e-14 -9.73897e-13 0 1.49796e-15
707 12 0.001 -0.0333328 -0.00380128 -0.0351058 -2.58104e-12 -4.87371e-13 -1.05771e-12 0 1.44186e-15
708 12 0.001 -0.0324121 -0.0035179 -0.0353707 -2.3917e-12 -1.0181e-12 -1.11192e-12 0 1.3787e-15
1100 14 0.001 -0.0161054 -0.00323291 -0.0343135 -2.06283e-12 1.13712e-12 -6.62015e-13 0 1.58792e-15
1101 14 0.001 -0.0152389 -0.00365422 -0.0345774 -2.37755e-12 6.46825e-13 -8.17482e-13 0 1.54629e-15
1102 14 0.001 -0.014295 -0.00384769 -0.0348414 -2.55397e-12 8.65771e-14 -9.59008e-13 0 1.49796e-15
1104 14 0.001 -0.0124121 -0.0035179 -0.0353707 -2.3824e-12 -1.02494e-12 -1.11313e-12 0 1.3787e-15
1103 14 0.001 -0.0133328 -0.00380128 -0.0351058 -2.54612e-12 -4.70315e-13 -1.06743e-12 0 1.44186e-15
1496 16 0.001 0.00389459 -0.00323291 -0.0343135 -2.06729e-12 1.13057e-12 -6.62367e-13 0 1.58792e-15
1497 16 0.001 0.00476113 -0.00365422 -0.0345774 -2.37925e-12 6.49223e-13 -8.16552e-13 0 1.54629e-15
1498 16 0.001 0.00570498 -0.00384769 -0.0348414 -2.55001e-12 9.1339e-14 -9.6001e-13 0 1.49796e-15
1499 16 0.001 0.00666724 -0.00380128 -0.0351058 -2.56144e-12 -4.80427e-13 -1.06275e-12 0 1.44186e-15
1500 16 0.001 0.00758787 -0.0035179 -0.0353707 -2.38133e-12 -1.01395e-12 -1.11485e-12 0 1.3787e-15
1892 18 0.001 0.0238946 -0.00323291 -0.0343135 -2.04287e-12 1.1389e-12 -6.66333e-13 0 1.58792e-15
1893 18 0.001 0.0247611 -0.00365422 -0.0345774 -2.41044e-12 6.40165e-13 -8.09968e-13 0 1.54629e-15
1894 18 0.001 0.025705 -0.00384769 -0.0348414 -2.52523e-12 9.66961e-14 -9.66199e-13 0 1.49796e-15
1895 18 0.001 0.0266672 -0.00380128 -0.0351058 -2.56763e-12 -4.80093e-13 -1.06139e-12 0 1.44186e-15
1896 18 0.001 0.0275879 -0.0035179 -0.0353707 -2.38255e-12 -1.01763e-12 -1.11413e-12 0 1.3787e-15
327 11 0.001 -0.0568406 -0.00261004 -0.0340497 -1.66666e-12 1.55233e-12 -5.10535e-13 0 1.62519e-15
703 12 0.001 -0.0368406 -0.00261004 -0.0340497 -1.68363e-12 1.53546e-12 -5.11419e-13 0 1.62519e-15
1099 14 0.001 -0.0168406 -0.00261004 -0.0340497 -1.67971e-12 1.55633e-12 -5.06872e-13 0 1.62519e-15