ITEM: TIMESTEP
8500000
ITEM: NUMBER OF ATOMS
1970
ITEM: BOX BOUNDS ff ff ff
-6.0000000000000005e-02 6.0000000000000005e-02
-6.0000000000000001e-03 6.0000000000000001e-03
-5.5000000000000000e-02 5.5000000000000000e-02
ITEM: ATOMS id type radius x y z fx fy fz c_bendingE c_stretchingE
384 11 0.001 -0.0508124 -0.00264074 -0.0489977 -1.43197e-13 2.50613e-14 -2.61964e-14 0 1.82902e-17
385 11 0.001 -0.0503153 -0.00183666 -0.0493207 -1.86555e-13 4.23579e-14 -6.94535e-16 0 9.91425e-15
760 12 0.001 -0.0308116 -0.00264066 -0.0489969 -1.8807e-13 4.79098e-14 -1.41261e-14 0 1.76959e-17
761 12 0.001 -0.0303148 -0.00183654 -0.0493202 -1.25354e-13 2.84536e-14 -3.26004e-15 0 9.79387e-15
1156 14 0.001 -0.0108116 -0.00264066 -0.0489969 -1.82424e-13 4.74262e-14 -1.52657e-14 0 1.76959e-17
1157 14 0.001 -0.0103148 -0.00183654 -0.0493202 -1.10415e-13 3.03355e-14 -4.79925e-15 0 9.79387e-15
1552 16 0.001 0.00918835 -0.00264066 -0.0489969 -1.82177e-13 4.42798e-14 -1.4655e-14 0 1.76959e-17
1553 16 0.001 0.00968525 -0.00183654 -0.0493202 -1.07657e-13 3.18883e-14 -5.67951e-15 0 9.79387e-15
1948 18 0.001 0.0291884 -0.00264066 -0.0489969 -1.8764e-13 4.27289e-14 -1.25744e-14 0 1.76959e-17
1949 18 0.001 0.0296852 -0.00183654 -0.0493202 -1.25102e-13 2.9581e-14 -3.81536e-15 0 9.79387e-15
2 2 0.001 -0.05 -4.31175e-17 -0.05 -2.29743e-06 2.44161e-06 1.89037e-06 0 8.93455e-15
386 11 0.001 -0.0500388 -0.000937269 -0.0496564 -3.31831e-14 -2.01806e-15 5.65503e-15 0 1.88455e-14
762 12 0.001 -0.0300386 -0.000937172 -0.0496561 -5.59466e-14 -2.64515e-15 1.36812e-14 0 1.85881e-14
4 4 0.001 -0.03 -4.31175e-17 -0.05 -2.33783e-06 2.5313e-06 1.87142e-06 0 8.79961e-15
6 6 0.001 -0.01 -4.31175e-17 -0.05 -2.33783e-06 2.5313e-06 1.87142e-06 0 8.79961e-15
1158 14 0.001 -0.0100386 -0.000937172 -0.0496561 -7.28182e-14 -2.76363e-15 1.4549e-14 0 1.85881e-14
8 8 0.001 0.01 -4.31175e-17 -0.05 -2.33783e-06 2.5313e-06 1.87142e-06 0 8.79961e-15
1554 16 0.001 0.00996143 -0.000937172 -0.0496561 -7.08932e-14 -2.50623e-15 1.45002e-14 0 1.85881e-14
10 10 0.001 0.03 -4.31175e-17 -0.05 -2.33783e-06 2.5313e-06 1.87142e-06 0 8.79961e-15
1950 18 0.001 0.0299614 -0.000937172 -0.0496561 -5.33527e-14 9.26647e-16 1.24478e-14 0 1.85881e-14
379 11 0.001 -0.0551749 -0.00379518 -0.0476505 -3.69768e-13 2.69089e-13 -1.94935e-13 0 7.65572e-16
380 11 0.001 -0.0542309 -0.00402373 -0.0478844 -2.70526e-13 2.69148e-13 -1.94345e-13 0 6.64579e-16
381 11 0.001 -0.0532638 -0.00401323 -0.0481345 -2.9497e-13 1.51697e-13 -1.403e-13 0 4.83154e-16
382 11 0.001 -0.0523339 -0.00376565 -0.048403 -3.08996e-13 1.28464e-13 -9.02119e-14 0 2.73247e-16
383 11 0.001 -0.0514995 -0.00329791 -0.048691 -2.282e-13 1.11632e-13 -6.57817e-14 0 9.94903e-17
755 12 0.001 -0.0351739 -0.00379594 -0.0476495 -3.38198e-13 2.65778e-13 -1.89785e-13 0 7.76756e-16
756 12 0.001 -0.0342298 -0.0040243 -0.0478834 -2.40104e-13 2.24928e-13 -1.83719e-13 0 6.69103e-16
757 12 0.001 -0.0332627 -0.0040136 -0.0481334 -3.02865e-13 1.87405e-13 -1.28047e-13 0 4.80953e-16
758 12 0.001 -0.0323329 -0.00376583 -0.048402 -2.80709e-13 1.04604e-13 -8.23194e-14 0 2.6654e-16
759 12 0.001 -0.0314986 -0.00329793 -0.0486901 -1.99378e-13 9.63507e-14 -5.73582e-14 0 9.2804e-17
1151 14 0.001 -0.0151739 -0.00379594 -0.0476495 -3.00439e-13 2.77504e-13 -1.97493e-13 0 7.76756e-16
1152 14 0.001 -0.0142298 -0.0040243 -0.0478834 -2.96367e-13 2.12386e-13 -1.70018e-13 0 6.69103e-16
1153 14 0.001 -0.0132627 -0.0040136 -0.0481334 -2.646e-13 1.98916e-13 -1.38055e-13 0 4.80953e-16
1154 14 0.001 -0.0123329 -0.00376583 -0.048402 -2.80736e-13 1.03468e-13 -8.20656e-14 0 2.6654e-16
1155 14 0.001 -0.0114986 -0.00329793 -0.0486901 -2.20298e-13 9.35528e-14 -5.27849e-14 0 9.2804e-17
1547 16 0.001 0.00482615 -0.00379594 -0.0476495 -2.90449e-13 2.77869e-13 -2.00788e-13 0 7.76756e-16
1548 16 0.001 0.00577016 -0.0040243 -0.0478834 -2.97165e-13 2.154e-13 -1.6872e-13 0 6.69103e-16
1549 16 0.001 0.00673732 -0.0040136 -0.0481334 -2.75136e-13 1.93049e-13 -1.36727e-13 0 4.80953e-16
1550 16 0.001 0.00766709 -0.00376583 -0.048402 -2.67791e-13 1.04555e-13 -8.38114e-14 0 2.6654e-16
1551 16 0.001 0.00850143 -0.00329793 -0.0486901 -2.30072e-13 9.60702e-14 -5.17812e-14 0 9.2804e-17
1943 18 0.001 0.0248261 -0.00379594 -0.0476495 -2.96026e-13 2.72634e-13 -1.99415e-13 0 7.76756e-16
1944 18 0.001 0.0257702 -0.0040243 -0.0478834 -3.21074e-13 2.15929e-13 -1.63239e-13 0 6.69103e-16
1945 18 0.001 0.0267373 -0.0040136 -0.0481334 -2.53016e-13 1.98168e-13 -1.41996e-13 0 4.80953e-16
1946 18 0.001 0.0276671 -0.00376583 -0.048402 -2.78723e-13 1.05093e-13 -8.22856e-14 0 2.6654e-16
1947 18 0.001 0.0285014 -0.00329793 -0.0486901 -2.13986e-13 9.40096e-14 -5.42082e-14 0 9.2804e-17
378 11 0.001 -0.0560365 -0.00334076 -0.047429 -2.42038e-13 3.21059e-13 -2.38811e-13 0 7.62041e-16
754 12 0.001 -0.0360356 -0.00334171 -0.0474281 -2.55093e-13 3.35605e-13 -2.16807e-13 0 7.78131e-16
1150 14 0.001 -0.0160356 -0.00334171 -0.0474281 -2.77916e-13 3.12291e-13 -2.16713e-13 0 7.78131e-16
1546 16 0.001 0.00396437 -0.00334171 -0.0474281 -2.68007e-13 3.15365e-13 -2.16928e-13 0 7.78131e-16
1942 18 0.001 0.0239644 -0.00334171 -0.0474281 -2.46541e-13 3.167e-13 -2.21396e-13 0 7.78131e-16
376 11 0.001 -0.0573061 -0.00187706 -0.0470048 -1.83739e-13 3.91713e-13 -2.03132e-13 0 5.00693e-16
377 11 0.001 -0.056762 -0.00268802 -0.0472154 -2.52226e-13 3.72869e-13 -2.24688e-13 0 6.62356e-16
753 12 0.001 -0.0367613 -0.00268911 -0.0472146 -2.79585e-13 3.32251e-13 -2.15343e-13 0 6.80741e-16
752 12 0.001 -0.0373056 -0.00187826 -0.0470043 -1.00836e-13 3.76646e-13 -2.03199e-13 0 5.18704e-16
1149 14 0.001 -0.0167613 -0.00268911 -0.0472146 -2.07309e-13 3.53673e-13 -2.19508e-13 0 6.80741e-16
1148 14 0.001 -0.0173056 -0.00187826 -0.0470043 -2.25408e-13 3.66455e-13 -1.96228e-13 0 5.18704e-16
1544 16 0.001 0.0026944 -0.00187826 -0.0470043 -1.91729e-13 3.68359e-13 -1.99045e-13 0 5.18704e-16
1545 16 0.001 0.00323871 -0.00268911 -0.0472146 -2.42169e-13 3.50253e-13 -2.15347e-13 0 6.80741e-16
1941 18 0.001 0.0232387 -0.00268911 -0.0472146 -2.47178e-13 3.49728e-13 -2.14495e-13 0 6.80741e-16
1940 18 0.001 0.0226944 -0.00187826 -0.0470043 -2.00919e-13 3.67957e-13 -1.97771e-13 0 5.18704e-16
375 11 0.001 -0.0576351 -0.000957993 -0.0467925 -1.83226e-13 3.90122e-13 -1.70753e-13 0 3.22674e-16
751 12 0.001 -0.0376349 -0.000959243 -0.0467921 -2.27803e-13 3.73316e-13 -1.60519e-13 0 3.38146e-16
1147 14 0.001 -0.0176349 -0.000959243 -0.0467921 -1.29567e-13 3.84542e-13 -1.61759e-13 0 3.38146e-16
1543 16 0.001 0.00236513 -0.000959243 -0.0467921 -1.51301e-13 3.84551e-13 -1.60834e-13 0 3.38146e-16
1939 18 0.001 0.0223651 -0.000959243 -0.0467921 -1.43449e-13 3.84853e-13 -1.61817e-13 0 3.38146e-16
373 11 0.001 -0.0575826 0.000973844 -0.046346 5.50588e-14 3.753e-13 -3.95506e-14 0 6.50868e-17
374 11 0.001 -0.057729 1.23057e-05 -0.0465741 -1.25513e-13 4.07911e-13 -1.14496e-13 0 1.69299e-16
749 12 0.001 -0.0375829 0.000972666 -0.0463458 2.60487e-14 3.47563e-13 -4.54044e-14 0 7.22377e-17
750 12 0.001 -0.037729 1.10623e-05 -0.0465738 -9.66504e-14 3.94406e-13 -1.09357e-13 0 1.80865e-16
1145 14 0.001 -0.0175829 0.000972666 -0.0463458 -7.81702e-14 3.44268e-13 -5.90964e-14 0 7.22377e-17
1146 14 0.001 -0.017729 1.10623e-05 -0.0465738 -9.18345e-14 3.86133e-13 -1.07126e-13 0 1.80865e-16
1541 16 0.001 0.00241715 0.000972666 -0.0463458 -5.46146e-14 3.40175e-13 -5.60643e-14 0 7.22377e-17
1542 16 0.001 0.00227096 1.10623e-05 -0.0465738 -8.71495e-14 3.85893e-13 -1.07895e-13 0 1.80865e-16
1937 18 0.001 0.0224171 0.000972666 -0.0463458 -5.86592e-14 3.46062e-13 -5.5824e-14 0 7.22377e-17
1938 18 0.001 0.022271 1.10623e-05 -0.0465738 -8.91285e-14 3.847e-13 -1.07552e-13 0 1.80865e-16
372 11 0.001 -0.0572056 0.00186729 -0.0461059 -6.17441e-14 3.16757e-13 -8.05285e-15 0 1.39615e-17
748 12 0.001 -0.0372061 0.00186623 -0.0461058 -3.62215e-14 3.10632e-13 3.71998e-15 0 1.6942e-17
1144 14 0.001 -0.0172061 0.00186623 -0.0461058 4.16813e-14 3.11054e-13 1.38888e-14 0 1.6942e-17
1540 16 0.001 0.00279392 0.00186623 -0.0461058 -2.6981e-15 3.17485e-13 7.22365e-15 0 1.6942e-17
1936 18 0.001 0.0227939 0.00186623 -0.0461058 -2.43649e-15 3.15206e-13 6.53582e-15 0 1.6942e-17
371 11 0.001 -0.0566221 0.00263764 -0.0458527 -2.67299e-14 2.70404e-13 4.89634e-14 0 3.02871e-18
747 12 0.001 -0.0366228 0.00263676 -0.0458526 -4.43574e-14 2.7129e-13 4.21959e-14 0 2.65167e-18
1143 14 0.001 -0.0166228 0.00263676 -0.0458526 1.92805e-14 2.88923e-13 6.23876e-14 0 2.65166e-18
1539 16 0.001 0.00337717 0.00263676 -0.0458526 4.90528e-14 2.79962e-13 6.6833e-14 0 2.65166e-18
1935 18 0.001 0.0233772 0.00263676 -0.0458526 6.73497e-14 2.74815e-13 7.06471e-14 0 2.65166e-18
370 11 0.001 -0.0558691 0.00323765 -0.0455863 1.5992e-13 2.18902e-13 1.29556e-13 0 1.14872e-17
369 11 0.001 -0.0549938 0.00363065 -0.0453081 1.20019e-13 1.7356e-13 1.47383e-13 0 2.04889e-17
368 11 0.001 -0.054051 0.00379279 -0.0450202 3.44117e-14 6.55576e-14 1.27301e-13 0 2.01099e-17
367 11 0.001 -0.0530997 0.00371446 -0.0447253 1.7178e-13 3.36425e-14 1.48317e-13 0 1.12848e-17
745 12 0.001 -0.0349948 0.00363025 -0.0453081 3.5031e-14 1.5391e-13 1.202e-13 0 1.69719e-17
746 12 0.001 -0.03587 0.003237 -0.0455863 1.60637e-13 1.95922e-13 1.31986e-13 0 8.90781e-18
744 12 0.001 -0.0340521 0.00379266 -0.0450201 1.70587e-13 8.87808e-14 1.69036e-13 0 1.68122e-17
743 12 0.001 -0.0331008 0.00371461 -0.0447252 2.36323e-14 7.7304e-15 1.10396e-13 0 9.08035e-18
1142 14 0.001 -0.01587 0.003237 -0.0455863 5.42077e-14 1.89986e-13 1.03725e-13 0 8.90781e-18
1140 14 0.001 -0.0140521 0.00379266 -0.0450201 1.0232e-13 6.68076e-14 1.47299e-13 0 1.68122e-17
1141 14 0.001 -0.0149948 0.00363025 -0.0453081 1.02842e-13 1.59855e-13 1.39749e-13 0 1.69719e-17
1139 14 0.001 -0.0131008 0.00371461 -0.0447252 6.66777e-14 2.65879e-14 1.23164e-13 0 9.08035e-18
1538 16 0.001 0.00413004 0.003237 -0.0455863 6.04416e-14 2.0021e-13 1.07064e-13 0 8.90781e-18
1537 16 0.001 0.00500522 0.00363025 -0.0453081 8.44968e-14 1.54838e-13 1.34185e-13 0 1.69719e-17
1536 16 0.001 0.00594794 0.00379266 -0.0450201 1.08926e-13 6.94427e-14 1.49015e-13 0 1.68122e-17
1535 16 0.001 0.00689924 0.00371461 -0.0447252 7.05863e-14 2.34368e-14 1.24341e-13 0 9.08035e-18
1933 18 0.001 0.0250052 0.00363025 -0.0453081 1.30437e-13 1.47261e-13 1.46686e-13 0 1.69719e-17
1934 18 0.001 0.02413 0.003237 -0.0455863 1.92758e-14 2.06964e-13 9.69294e-14 0 8.90781e-18
1932 18 0.001 0.0259479 0.00379266 -0.0450201 8.41449e-14 7.90324e-14 1.41764e-13 0 1.68122e-17
1931 18 0.001 0.0268992 0.00371461 -0.0447252 7.15276e-14 1.19145e-14 1.25658e-13 0 9.08035e-18
361 11 0.001 -0.0501458 -0.000580841 -0.0429756 -1.02924e-13 -2.41097e-13 -1.72996e-13 0 1.42665e-16
737 12 0.001 -0.0301456 -0.000579799 -0.0429753 -1.08713e-13 -2.34802e-13 -1.69059e-13 0 1.46587e-16
1133 14 0.001 -0.0101456 -0.000579799 -0.0429753 -1.14674e-13 -2.35942e-13 -1.69945e-13 0 1.46587e-16
1529 16 0.001 0.00985436 -0.000579799 -0.0429753 -1.20532e-13 -2.44407e-13 -1.65775e-13 0 1.46587e-16
1925 18 0.001 0.0298544 -0.000579799 -0.0429753 -1.12034e-13 -2.42835e-13 -1.6656e-13 0 1.46587e-16
362 11 0.001 -0.0501195 0.000378369 -0.0432535 -8.59349e-14 -2.71995e-13 -1.17267e-13 0 1.04435e-16
363 11 0.001 -0.0503325 0.00131175 -0.0435389 -4.46708e-14 -1.91103e-13 -7.96967e-14 0 6.1077e-17
738 12 0.001 -0.0301197 0.000379413 -0.0432532 -4.21983e-14 -2.58596e-13 -1.10655e-13 0 1.08265e-16
739 12 0.001 -0.0303329 0.00131272 -0.0435386 -7.02509e-14 -1.78923e-13 -8.03616e-14 0 6.44422e-17
1134 14 0.001 -0.0101197 0.000379413 -0.0432532 -4.29398e-14 -2.59026e-13 -1.1054e-13 0 1.08265e-16
1135 14 0.001 -0.0103329 0.00131272 -0.0435386 -5.2311e-14 -1.7606e-13 -7.84384e-14 0 6.44422e-17
1530 16 0.001 0.00988032 0.000379413 -0.0432532 -4.08049e-14 -2.59964e-13 -1.11805e-13 0 1.08265e-16
1531 16 0.001 0.00966708 0.00131272 -0.0435386 -4.94077e-14 -1.6781e-13 -7.91301e-14 0 6.44422e-17
1926 18 0.001 0.0298803 0.000379413 -0.0432532 -4.64732e-14 -2.54069e-13 -1.13504e-13 0 1.08265e-16
1927 18 0.001 0.0296671 0.00131272 -0.0435386 -3.42434e-14 -1.73796e-13 -7.57446e-14 0 6.44422e-17
365 11 0.001 -0.0514065 0.00287192 -0.0441276 6.07515e-14 -1.35486e-13 5.66681e-14 0 5.25382e-18
364 11 0.001 -0.0507708 0.00216068 -0.0438309 9.93512e-14 -1.78382e-13 6.3169e-15 0 2.5111e-17
740 12 0.001 -0.0307715 0.00216152 -0.0438306 7.44401e-14 -1.76588e-13 6.03213e-15 0 2.75324e-17
741 12 0.001 -0.0314073 0.00287257 -0.0441274 2.1077e-14 -1.27035e-13 4.85997e-14 0 6.27992e-18
1136 14 0.001 -0.0107715 0.00216152 -0.0438306 4.81354e-14 -1.79965e-13 1.65828e-15 0 2.75324e-17
1137 14 0.001 -0.0114073 0.00287257 -0.0441274 5.00811e-14 -1.18444e-13 5.43539e-14 0 6.27992e-18
1533 16 0.001 0.00859267 0.00287257 -0.0441274 6.14571e-14 -1.19482e-13 5.7117e-14 0 6.27992e-18
1532 16 0.001 0.00922854 0.00216152 -0.0438306 3.97218e-14 -1.84268e-13 6.86085e-16 0 2.75324e-17
1928 18 0.001 0.0292285 0.00216152 -0.0438306 1.67017e-14 -1.77851e-13 -4.46019e-15 0 2.75324e-17
1929 18 0.001 0.0285927 0.00287257 -0.0441274 7.10564e-14 -1.26509e-13 5.98355e-14 0 6.27992e-18
366 11 0.001 -0.0521994 0.0034009 -0.0444267 1.63597e-14 -6.56961e-14 8.30879e-14 0 2.78947e-18
742 12 0.001 -0.0322004 0.00340132 -0.0444266 1.18907e-13 -5.18664e-14 1.07509e-13 0 2.16213e-18
1138 14 0.001 -0.0122004 0.00340132 -0.0444266 9.28931e-14 -6.51081e-14 1.01386e-13 0 2.16213e-18
1534 16 0.001 0.00779962 0.00340132 -0.0444266 8.2729e-14 -6.21536e-14 9.8369e-14 0 2.16213e-18
1930 18 0.001 0.0277996 0.00340132 -0.0444266 8.83173e-14 -5.18529e-14 9.87981e-14 0 2.16213e-18
356 11 0.001 -0.0533288 -0.00380139 -0.0416813 -2.8818e-13 -1.20906e-13 -1.2898e-13 0 7.34672e-17
357 11 0.001 -0.0524027 -0.00352278 -0.0419317 -2.62177e-13 -1.35751e-13 -1.82161e-13 0 1.10289e-16
358 11 0.001 -0.0515747 -0.00302437 -0.0421847 -2.0335e-13 -2.0218e-13 -2.07726e-13 0 1.43882e-16
732 12 0.001 -0.0333278 -0.00380125 -0.0416809 -1.95723e-13 -9.26497e-14 -1.50452e-13 0 7.67145e-17
733 12 0.001 -0.0324018 -0.00352237 -0.0419314 -2.3629e-13 -1.43496e-13 -1.75355e-13 0 1.13725e-16
734 12 0.001 -0.0315739 -0.00302372 -0.0421844 -2.2131e-13 -1.90791e-13 -2.01099e-13 0 1.47429e-16
1128 14 0.001 -0.0133278 -0.00380125 -0.0416809 -2.37514e-13 -9.83094e-14 -1.40052e-13 0 7.67145e-17
1129 14 0.001 -0.0124018 -0.00352237 -0.0419314 -2.39262e-13 -1.50931e-13 -1.74107e-13 0 1.13725e-16
1130 14 0.001 -0.0115739 -0.00302372 -0.0421844 -2.17358e-13 -1.84406e-13 -2.01727e-13 0 1.47429e-16
1524 16 0.001 0.00667222 -0.00380125 -0.0416809 -2.27215e-13 -9.49662e-14 -1.42796e-13 0 7.67145e-17
1525 16 0.001 0.00759824 -0.00352237 -0.0419314 -2.44615e-13 -1.55493e-13 -1.72112e-13 0 1.13725e-16
1526 16 0.001 0.0084261 -0.00302372 -0.0421844 -2.13228e-13 -1.80917e-13 -2.03127e-13 0 1.47429e-16
1920 18 0.001 0.0266722 -0.00380125 -0.0416809 -2.3981e-13 -9.84212e-14 -1.39849e-13 0 7.67145e-17
1921 18 0.001 0.0275982 -0.00352237 -0.0419314 -2.35364e-13 -1.52629e-13 -1.74116e-13 0 1.13725e-16
1922 18 0.001 0.0284261 -0.00302372 -0.0421844 -2.25149e-13 -1.84613e-13 -2.00747e-13 0 1.47429e-16
359 11 0.001 -0.0508964 -0.00233753 -0.042442 -2.19391e-13 -2.18626e-13 -2.12839e-13 0 1.64438e-16
360 11 0.001 -0.0504101 -0.00150555 -0.0427053 -1.46123e-13 -2.6238e-13 -1.98246e-13 0 1.64552e-16
735 12 0.001 -0.0308958 -0.0023367 -0.0424417 -1.96099e-13 -2.23714e-13 -2.04564e-13 0 1.68104e-16
736 12 0.001 -0.0304097 -0.00150458 -0.0427049 -1.56491e-13 -2.36843e-13 -1.96788e-13 0 1.68367e-16
1131 14 0.001 -0.0108958 -0.0023367 -0.0424417 -1.9882e-13 -2.17437e-13 -2.07413e-13 0 1.68104e-16
1132 14 0.001 -0.0104097 -0.00150458 -0.0427049 -1.52196e-13 -2.46105e-13 -1.92982e-13 0 1.68367e-16
1527 16 0.001 0.00910419 -0.0023367 -0.0424417 -2.04819e-13 -2.18858e-13 -2.05796e-13 0 1.68104e-16
1528 16 0.001 0.0095903 -0.00150458 -0.0427049 -1.44757e-13 -2.40754e-13 -1.96145e-13 0 1.68367e-16
1923 18 0.001 0.0291042 -0.0023367 -0.0424417 -1.93107e-13 -2.16281e-13 -2.07615e-13 0 1.68104e-16
1924 18 0.001 0.0295903 -0.00150458 -0.0427049 -1.57037e-13 -2.4647e-13 -1.93758e-13 0 1.68367e-16
353 11 0.001 -0.0561093 -0.00321815 -0.0409285 -1.95896e-13 7.2049e-14 -5.16476e-15 0 7.66432e-18
355 11 0.001 -0.0542952 -0.0038427 -0.0414316 -1.70701e-13 -4.91615e-14 -1.21795e-13 0 4.18272e-17
354 11 0.001 -0.0552417 -0.00364413 -0.0411811 -2.57535e-13 1.67578e-16 -3.32105e-14 0 1.98507e-17
729 12 0.001 -0.0361085 -0.0032188 -0.0409282 -2.33239e-13 3.31456e-14 6.51231e-16 0 9.4016e-18
730 12 0.001 -0.0352407 -0.00364453 -0.0411808 -1.45636e-13 -1.41296e-15 -5.59499e-14 0 2.22129e-17
731 12 0.001 -0.0342942 -0.00384283 -0.0414313 -3.19005e-13 -5.84212e-14 -7.34638e-14 0 4.4722e-17
1125 14 0.001 -0.0161085 -0.0032188 -0.0409282 -2.07881e-13 3.80511e-14 -3.58953e-15 0 9.4016e-18
1126 14 0.001 -0.0152407 -0.00364453 -0.0411808 -1.88168e-13 2.19605e-15 -4.53928e-14 0 2.22129e-17
1127 14 0.001 -0.0142942 -0.00384283 -0.0414313 -2.44952e-13 -5.16752e-14 -9.17338e-14 0 4.4722e-17
1521 16 0.001 0.00389152 -0.0032188 -0.0409282 -1.89104e-13 3.9379e-14 -8.24861e-15 0 9.4016e-18
1523 16 0.001 0.0057058 -0.00384283 -0.0414313 -2.57113e-13 -5.37451e-14 -8.86742e-14 0 4.4722e-17
1522 16 0.001 0.00475926 -0.00364453 -0.0411808 -1.93849e-13 -1.72257e-15 -4.50292e-14 0 2.22129e-17
1917 18 0.001 0.0238915 -0.0032188 -0.0409282 -2.10311e-13 3.99745e-14 -3.47495e-15 0 9.4016e-18
1918 18 0.001 0.0247593 -0.00364453 -0.0411808 -1.75856e-13 -3.58595e-15 -4.88452e-14 0 2.22129e-17
1919 18 0.001 0.0257058 -0.00384283 -0.0414313 -2.48357e-13 -4.9167e-14 -9.08713e-14 0 4.4722e-17
351 11 0.001 -0.0574005 -0.00180316 -0.040414 -5.76325e-14 1.27868e-13 4.93335e-14 0 1.05991e-18
352 11 0.001 -0.0568441 -0.00259143 -0.0406729 -1.38123e-13 3.15704e-14 1.41718e-14 0 2.50135e-18
727 12 0.001 -0.0374001 -0.00180419 -0.0404136 -9.46648e-14 1.27489e-13 5.75038e-14 0 2.03978e-18
728 12 0.001 -0.0368435 -0.0025923 -0.0406726 -8.73162e-14 7.71244e-14 2.19502e-14 0 3.70344e-18
1123 14 0.001 -0.0174001 -0.00180419 -0.0404136 -3.2958e-14 1.42215e-13 5.10146e-14 0 2.03978e-18
1124 14 0.001 -0.0168435 -0.0025923 -0.0406726 -1.37562e-13 5.76999e-14 2.68552e-14 0 3.70344e-18
1519 16 0.001 0.00259992 -0.00180419 -0.0404136 -9.23087e-14 1.29762e-13 5.32064e-14 0 2.03978e-18
1520 16 0.001 0.00315654 -0.0025923 -0.0406726 -1.20247e-13 6.81289e-14 2.89248e-14 0 3.70343e-18
1915 18 0.001 0.0225999 -0.00180419 -0.0404136 -4.27224e-14 1.28689e-13 4.68128e-14 0 2.03978e-18
1916 18 0.001 0.0231565 -0.0025923 -0.0406726 -1.38302e-13 6.73259e-14 3.08061e-14 0 3.70344e-18
350 11 0.001 -0.0577441 -0.000902521 -0.0401516 -7.30139e-14 1.56639e-13 5.49298e-14 0 1.53841e-18
726 12 0.001 -0.0377439 -0.000903652 -0.0401512 -3.78617e-14 1.16125e-13 4.50919e-14 0 2.79868e-18
1122 14 0.001 -0.0177439 -0.000903652 -0.0401512 -7.76642e-14 1.11418e-13 4.91753e-14 0 2.79868e-18
1518 16 0.001 0.00225611 -0.000903652 -0.0401512 -2.05429e-14 1.13015e-13 4.58476e-14 0 2.79868e-18
1914 18 0.001 0.0222561 -0.000903652 -0.0401512 -6.67355e-14 1.19165e-13 5.15647e-14 0 2.79868e-18
348 11 0.001 -0.0577224 0.0010078 -0.0396184 2.20832e-14 1.33607e-13 1.6626e-14 0 1.20865e-17
349 11 0.001 -0.0578536 5.43371e-05 -0.0398862 8.13721e-14 1.31959e-13 3.04063e-14 0 4.4631e-18
724 12 0.001 -0.0377228 0.00100667 -0.039618 1.33931e-13 1.19275e-13 1.26777e-14 0 1.56344e-17
725 12 0.001 -0.0378537 5.31717e-05 -0.0398858 1.41746e-14 1.29628e-13 3.85368e-14 0 6.59512e-18
1120 14 0.001 -0.0177228 0.00100667 -0.039618 5.90109e-14 1.20249e-13 7.89585e-15 0 1.56344e-17
1121 14 0.001 -0.0178537 5.31717e-05 -0.0398858 6.26573e-14 1.29576e-13 3.86325e-14 0 6.59512e-18
1516 16 0.001 0.0022772 0.00100667 -0.039618 9.08962e-14 1.20605e-13 9.86758e-15 0 1.56344e-17
1517 16 0.001 0.00214632 5.31717e-05 -0.0398858 2.30696e-14 1.32984e-13 3.9953e-14 0 6.59512e-18
1912 18 0.001 0.0222772 0.00100667 -0.039618 7.58019e-14 1.25465e-13 1.01923e-14 0 1.56344e-17
1913 18 0.001 0.0221463 5.31717e-05 -0.0398858 5.18686e-14 1.27255e-13 3.75741e-14 0 6.59512e-18
347 11 0.001 -0.0573589 0.00189847 -0.039349 2.11442e-13 1.3007e-13 -2.36905e-14 0 2.68027e-17
346 11 0.001 -0.0567858 0.00267083 -0.0390788 1.47519e-13 9.74207e-14 -5.87373e-14 0 4.94199e-17
722 12 0.001 -0.0367866 0.00266998 -0.0390785 1.64656e-13 8.38164e-14 -6.18065e-14 0 5.66516e-17
723 12 0.001 -0.0373595 0.00189744 -0.0393486 1.25478e-13 1.3059e-13 -1.65808e-14 0 3.21357e-17
1118 14 0.001 -0.0167866 0.00266998 -0.0390785 2.05321e-13 9.9169e-14 -5.04829e-14 0 5.66516e-17
1119 14 0.001 -0.0173595 0.00189744 -0.0393486 1.55337e-13 1.20704e-13 -1.74399e-14 0 3.21357e-17
1515 16 0.001 0.00264046 0.00189744 -0.0393486 1.44631e-13 1.2093e-13 -1.77577e-14 0 3.21357e-17
1514 16 0.001 0.00321339 0.00266998 -0.0390785 1.84143e-13 9.83599e-14 -5.50637e-14 0 5.66516e-17
1910 18 0.001 0.0232134 0.00266998 -0.0390785 1.8703e-13 1.02041e-13 -5.37026e-14 0 5.66516e-17
1911 18 0.001 0.0226405 0.00189744 -0.0393486 1.49622e-13 1.15457e-13 -1.85251e-14 0 3.21357e-17
345 11 0.001 -0.0560388 0.0032767 -0.0388088 2.8038e-13 8.20684e-14 -8.61785e-14 0 7.8121e-17
344 11 0.001 -0.0551645 0.00367823 -0.0385395 2.08625e-13 1.98946e-14 -1.3621e-13 0 1.08582e-16
721 12 0.001 -0.0360398 0.00327607 -0.0388084 2.1632e-13 6.72126e-14 -9.73575e-14 0 8.70963e-17
720 12 0.001 -0.0351657 0.00367787 -0.0385391 2.78795e-13 1.81311e-14 -1.12974e-13 0 1.18927e-16
1117 14 0.001 -0.0160398 0.00327607 -0.0388084 1.81915e-13 6.23069e-14 -1.04596e-13 0 8.70963e-17
1116 14 0.001 -0.0151657 0.00367787 -0.0385391 2.92645e-13 2.67821e-14 -1.0966e-13 0 1.18927e-16
1513 16 0.001 0.0039602 0.00327607 -0.0388084 2.10698e-13 6.04455e-14 -9.85984e-14 0 8.70963e-17
1512 16 0.001 0.0048343 0.00367787 -0.0385391 2.78209e-13 3.24969e-14 -1.12559e-13 0 1.18927e-16
1909 18 0.001 0.0239602 0.00327607 -0.0388084 2.03518e-13 5.73816e-14 -1.00816e-13 0 8.70963e-17
1908 18 0.001 0.0248343 0.00367787 -0.0385391 2.88894e-13 2.63973e-14 -1.09789e-13 0 1.18927e-16
338 11 0.001 -0.0504174 0.00140273 -0.0369501 1.33301e-13 -2.07137e-13 -6.1358e-14 0 1.12136e-16
714 12 0.001 -0.0304179 0.00140382 -0.0369498 1.3483e-13 -1.51791e-13 -6.81691e-14 0 1.21484e-16
1110 14 0.001 -0.0104179 0.00140382 -0.0369498 1.30081e-13 -1.52187e-13 -6.90387e-14 0 1.21484e-16
1506 16 0.001 0.00958212 0.00140382 -0.0369498 1.21206e-13 -1.53925e-13 -6.87528e-14 0 1.21484e-16
1902 18 0.001 0.0295821 0.00140382 -0.0369498 1.41024e-13 -1.52422e-13 -6.87663e-14 0 1.21484e-16
340 11 0.001 -0.0515335 0.00295595 -0.0374755 1.65728e-13 -1.71655e-13 -1.28671e-13 0 1.51319e-16
339 11 0.001 -0.0508778 0.00224963 -0.0372125 2.62389e-13 -1.20636e-13 -1.04528e-13 0 1.34581e-16
716 12 0.001 -0.0315344 0.00295669 -0.0374752 2.07665e-13 -1.32453e-13 -1.26787e-13 0 1.62265e-16
715 12 0.001 -0.0308785 0.00225057 -0.0372122 1.87539e-13 -1.61029e-13 -9.97105e-14 0 1.44796e-16
1111 14 0.001 -0.0108785 0.00225057 -0.0372122 1.8898e-13 -1.66362e-13 -9.78378e-14 0 1.44796e-16
1112 14 0.001 -0.0115344 0.00295669 -0.0374752 2.08347e-13 -1.25927e-13 -1.27594e-13 0 1.62265e-16
1508 16 0.001 0.00846559 0.00295669 -0.0374752 2.04412e-13 -1.30944e-13 -1.27995e-13 0 1.62265e-16
1507 16 0.001 0.00912153 0.00225057 -0.0372122 1.91015e-13 -1.64229e-13 -9.82067e-14 0 1.44796e-16
1904 18 0.001 0.0284656 0.00295669 -0.0374752 2.20609e-13 -1.34766e-13 -1.23412e-13 0 1.62265e-16
1903 18 0.001 0.0291215 0.00225057 -0.0372122 1.84613e-13 -1.60373e-13 -9.97804e-14 0 1.44796e-16
343 11 0.001 -0.0542177 0.00385029 -0.0382714 2.97659e-13 -2.36487e-14 -1.39609e-13 0 1.35177e-16
342 11 0.001 -0.0532574 0.00378202 -0.0380047 2.73301e-13 -4.89452e-14 -1.48793e-13 0 1.52749e-16
341 11 0.001 -0.0523436 0.00347759 -0.0377395 2.80687e-13 -1.01204e-13 -1.44687e-13 0 1.582e-16
719 12 0.001 -0.0342189 0.00385021 -0.038271 2.74907e-13 2.2871e-15 -1.38406e-13 0 1.46392e-16
718 12 0.001 -0.0332585 0.00378223 -0.0380044 2.40971e-13 -6.9401e-14 -1.54711e-13 0 1.64307e-16
717 12 0.001 -0.0323447 0.00347808 -0.0377392 2.73318e-13 -1.04082e-13 -1.354e-13 0 1.69634e-16
1115 14 0.001 -0.0142189 0.00385021 -0.038271 2.56974e-13 -1.739e-14 -1.43242e-13 0 1.46392e-16
1113 14 0.001 -0.0123447 0.00347808 -0.0377392 2.56847e-13 -1.11878e-13 -1.39231e-13 0 1.69634e-16
1114 14 0.001 -0.0132585 0.00378223 -0.0380044 2.6024e-13 -5.12013e-14 -1.50393e-13 0 1.64307e-16
1511 16 0.001 0.0057811 0.00385021 -0.038271 2.59058e-13 -2.06261e-14 -1.43201e-13 0 1.46392e-16
1510 16 0.001 0.00674146 0.00378223 -0.0380044 2.53526e-13 -5.71664e-14 -1.51335e-13 0 1.64307e-16
1509 16 0.001 0.00765534 0.00347808 -0.0377392 2.69596e-13 -1.03116e-13 -1.36951e-13 0 1.69634e-16
1907 18 0.001 0.0257811 0.00385021 -0.038271 2.56027e-13 -5.58067e-15 -1.43786e-13 0 1.46392e-16
1906 18 0.001 0.0267415 0.00378223 -0.0380044 2.50241e-13 -6.15426e-14 -1.52705e-13 0 1.64307e-16
1905 18 0.001 0.0276553 0.00347808 -0.0377392 2.57439e-13 -1.07298e-13 -1.39301e-13 0 1.69634e-16
333 11 0.001 -0.0515501 -0.00297455 -0.0356331 -1.52816e-13 -1.09122e-13 4.36586e-14 0 3.15631e-17
334 11 0.001 -0.0508906 -0.00227251 -0.0358979 1.86074e-14 -1.10377e-13 1.14568e-14 0 3.84344e-17
709 12 0.001 -0.0315492 -0.00297382 -0.0356328 -6.8051e-14 -5.60494e-14 2.83968e-14 0 3.7489e-17
710 12 0.001 -0.0308898 -0.00227157 -0.0358976 -2.52692e-14 -1.30871e-13 2.46754e-14 0 4.467e-17
1105 14 0.001 -0.0115492 -0.00297382 -0.0356328 -1.11863e-13 -9.12217e-14 4.07992e-14 0 3.7489e-17
1106 14 0.001 -0.0108898 -0.00227157 -0.0358976 -1.68252e-14 -1.00462e-13 1.61485e-14 0 4.46699e-17
1501 16 0.001 0.00845082 -0.00297382 -0.0356328 -1.10656e-13 -8.99624e-14 4.01762e-14 0 3.7489e-17
1502 16 0.001 0.00911016 -0.00227157 -0.0358976 -2.50489e-14 -9.85303e-14 1.74142e-14 0 4.46699e-17
1897 18 0.001 0.0284508 -0.00297382 -0.0356328 -1.12384e-13 -8.55293e-14 4.02107e-14 0 3.7489e-17
1898 18 0.001 0.0291102 -0.00227157 -0.0358976 2.01139e-14 -1.03903e-13 1.12132e-14 0 4.46699e-17
335 11 0.001 -0.0504255 -0.00142868 -0.0361619 -7.55512e-14 -1.61552e-13 2.0409e-14 0 5.01836e-17
336 11 0.001 -0.050184 -0.00049571 -0.0364251 1.39169e-13 -1.58182e-13 -1.22202e-14 0 6.708e-17
711 12 0.001 -0.0304251 -0.00142759 -0.0361616 -6.32766e-14 -1.29379e-13 1.11227e-14 0 5.69891e-17
712 12 0.001 -0.0301839 -0.000494543 -0.0364248 8.02864e-14 -1.82137e-13 3.29112e-15 0 7.4645e-17
1107 14 0.001 -0.0104251 -0.00142759 -0.0361616 -3.3922e-14 -1.60639e-13 1.76914e-14 0 5.69891e-17
1108 14 0.001 -0.0101839 -0.000494543 -0.0364248 3.99989e-14 -1.50479e-13 -5.38324e-15 0 7.4645e-17
1503 16 0.001 0.00957495 -0.00142759 -0.0361616 -2.04924e-14 -1.54617e-13 1.29461e-14 0 5.69891e-17
1504 16 0.001 0.00981612 -0.000494543 -0.0364248 3.09158e-14 -1.69286e-13 2.40091e-15 0 7.4645e-17
1899 18 0.001 0.0295749 -0.00142759 -0.0361616 -9.41468e-14 -1.48021e-13 2.01648e-14 0 5.69891e-17
1900 18 0.001 0.0298161 -0.000494543 -0.0364248 1.02341e-13 -1.69446e-13 -2.6345e-15 0 7.4645e-17
337 11 0.001 -0.0501813 0.000468157 -0.0366877 5.5295e-15 -1.85117e-13 -3.99655e-14 0 8.84385e-17
713 12 0.001 -0.0301814 0.000469322 -0.0366874 7.14904e-14 -1.95704e-13 -3.50467e-14 0 9.68765e-17
1109 14 0.001 -0.0101814 0.000469322 -0.0366874 9.92016e-14 -2.0872e-13 -2.95662e-14 0 9.68765e-17
1505 16 0.001 0.00981857 0.000469322 -0.0366874 1.07107e-13 -1.95802e-13 -3.42167e-14 0 9.68765e-17
1901 18 0.001 0.0298186 0.000469322 -0.0366874 5.80534e-14 -2.00052e-13 -3.23217e-14 0 9.68765e-17
328 11 0.001 -0.0560578 -0.00326697 -0.0343017 -1.71487e-13 1.52412e-13 -7.09902e-14 0 5.33877e-17
329 11 0.001 -0.0551853 -0.00367407 -0.0345682 -1.49419e-13 6.36912e-14 -5.88201e-14 0 4.2638e-17
330 11 0.001 -0.0542392 -0.00385203 -0.0348348 -1.479e-13 9.29437e-14 -3.15783e-14 0 3.47378e-17
331 11 0.001 -0.0532784 -0.00378972 -0.0351014 -1.26114e-13 -2.4742e-14 1.00502e-15 0 3.01088e-17
332 11 0.001 -0.052363 -0.00349102 -0.0353675 -1.37301e-13 -3.3953e-14 1.34808e-14 0 2.89577e-17
704 12 0.001 -0.0360568 -0.0032677 -0.0343013 -1.44114e-13 1.37577e-13 -7.94411e-14 0 6.22706e-17
705 12 0.001 -0.0351841 -0.00367452 -0.0345678 -1.87115e-13 1.172e-13 -3.48359e-14 0 5.04616e-17
706 12 0.001 -0.0342379 -0.00385216 -0.0348344 -1.016e-13 3.428e-14 -5.11669e-14 0 4.1658e-17
707 12 0.001 -0.0332772 -0.00378954 -0.035101 -1.55722e-13 2.41051e-14 1.68559e-14 0 3.63767e-17
708 12 0.001 -0.0323619 -0.00349055 -0.0353672 -1.46451e-13 -7.42451e-14 1.25106e-14 0 3.48873e-17
1100 14 0.001 -0.0160568 -0.0032677 -0.0343013 -1.31084e-13 1.42838e-13 -8.14292e-14 0 6.22706e-17
1101 14 0.001 -0.0151841 -0.00367452 -0.0345678 -1.81217e-13 1.02544e-13 -4.01841e-14 0 5.04616e-17
1102 14 0.001 -0.0142379 -0.00385216 -0.0348344 -1.21255e-13 5.62472e-14 -3.91e-14 0 4.1658e-17
1104 14 0.001 -0.0123619 -0.00349055 -0.0353672 -1.28163e-13 -4.92098e-14 1.23694e-14 0 3.48873e-17
1103 14 0.001 -0.0132772 -0.00378954 -0.035101 -1.32422e-13 3.10934e-15 2.77317e-15 0 3.63767e-17
1496 16 0.001 0.00394323 -0.0032677 -0.0343013 -1.49409e-13 1.32159e-13 -7.79063e-14 0 6.22706e-17
1497 16 0.001 0.00481586 -0.00367452 -0.0345678 -1.62386e-13 1.09909e-13 -4.53272e-14 0 5.04616e-17
1498 16 0.001 0.00576209 -0.00385216 -0.0348344 -1.33201e-13 5.50791e-14 -3.48668e-14 0 4.1658e-17
1499 16 0.001 0.00672284 -0.00378954 -0.035101 -1.22859e-13 3.07323e-15 -9.72218e-16 0 3.63767e-17
1500 16 0.001 0.00763813 -0.00349055 -0.0353672 -1.33665e-13 -5.21602e-14 1.4956e-14 0 3.48873e-17
1892 18 0.001 0.0239432 -0.0032677 -0.0343013 -1.55395e-13 1.42149e-13 -7.59373e-14 0 6.22706e-17
1893 18 0.001 0.0248159 -0.00367452 -0.0345678 -1.68518e-13 1.02619e-13 -4.27668e-14 0 5.04616e-17
1894 18 0.001 0.0257621 -0.00385216 -0.0348344 -1.20636e-13 5.95253e-14 -4.00746e-14 0 4.1658e-17
1895 18 0.001 0.0267228 -0.00378954 -0.035101 -1.17413e-13 -5.58504e-16 -8.84207e-17 0 3.63767e-17
1896 18 0.001 0.0276381 -0.00349055 -0.0353672 -1.51649e-13 -5.2811e-14 1.78804e-14 0 3.48873e-17
327 11 0.001 -0.0568022 -0.00265612 -0.0340355 -3.99369e-14 1.8893e-13 -1.14108e-13 0 6.61294e-17
703 12 0.001 -0.0368013 -0.0026571 -0.0340351 -6.5395e-14 1.67672e-13 -1.09741e-13 0 7.61168e-17
1099 14 0.001 -0.0168013 -0.0026571 -0.0340351 -1.01448e-13 1.76481e-13 -1.00299e-13 0 7.61168e-17