ITEM: TIMESTEP
5200000
ITEM: NUMBER OF ATOMS
1970
ITEM: BOX BOUNDS ff ff ff
-6.0000000000000005e-02 6.0000000000000005e-02
-6.0000000000000001e-03 6.0000000000000001e-03
-5.5000000000000000e-02 5.5000000000000000e-02
ITEM: ATOMS id type radius x y z fx fy fz c_bendingE c_stretchingE
384 11 0.001 -0.050834 -0.0026312 -0.0489904 -8.26825e-13 5.55311e-14 -5.13189e-13 0 6.16e-17
385 11 0.001 -0.0503302 -0.00183143 -0.0493137 -4.82451e-13 -2.51991e-14 -3.39105e-13 0 8.1894e-15
760 12 0.001 -0.030834 -0.00263119 -0.0489904 -7.45445e-13 6.84414e-14 -5.08957e-13 0 6.24301e-17
761 12 0.001 -0.0303302 -0.00183142 -0.0493137 -5.62084e-13 -2.18363e-14 -3.16439e-13 0 8.17667e-15
1156 14 0.001 -0.010834 -0.00263119 -0.0489904 -7.32932e-13 7.46393e-14 -5.13377e-13 0 6.24301e-17
1157 14 0.001 -0.0103302 -0.00183142 -0.0493137 -5.48671e-13 -2.60923e-14 -3.15794e-13 0 8.17667e-15
1552 16 0.001 0.009166 -0.00263119 -0.0489904 -7.22695e-13 6.66221e-14 -5.12602e-13 0 6.24301e-17
1553 16 0.001 0.00966982 -0.00183142 -0.0493137 -5.54828e-13 -2.0194e-14 -3.17081e-13 0 8.17667e-15
1948 18 0.001 0.029166 -0.00263119 -0.0489904 -7.30469e-13 6.30891e-14 -5.10623e-13 0 6.24301e-17
1949 18 0.001 0.0296698 -0.00183142 -0.0493137 -5.51823e-13 -1.67414e-14 -3.18522e-13 0 8.17667e-15
2 2 0.001 -0.05 -4.31175e-17 -0.05 -3.69307e-06 4.2712e-06 2.07312e-06 0 6.72416e-15
386 11 0.001 -0.0500464 -0.000935248 -0.0496519 -3.14455e-13 -4.7781e-14 -1.52016e-13 0 1.48544e-14
762 12 0.001 -0.0300464 -0.000935246 -0.0496519 -2.47337e-13 -4.68014e-14 -1.49113e-13 0 1.48267e-14
4 4 0.001 -0.03 -4.31175e-17 -0.05 -3.69651e-06 4.2815e-06 2.06987e-06 0 6.71014e-15
6 6 0.001 -0.01 -4.31175e-17 -0.05 -3.69651e-06 4.2815e-06 2.06987e-06 0 6.71014e-15
1158 14 0.001 -0.0100464 -0.000935246 -0.0496519 -2.63189e-13 -4.44215e-14 -1.49266e-13 0 1.48267e-14
8 8 0.001 0.01 -4.31175e-17 -0.05 -3.69651e-06 4.2815e-06 2.06987e-06 0 6.71014e-15
1554 16 0.001 0.00995357 -0.000935246 -0.0496519 -2.6e-13 -4.89645e-14 -1.47841e-13 0 1.48267e-14
10 10 0.001 0.03 -4.31175e-17 -0.05 -3.69651e-06 4.2815e-06 2.06987e-06 0 6.71014e-15
1950 18 0.001 0.0299536 -0.000935246 -0.0496519 -2.59765e-13 -4.98722e-14 -1.47603e-13 0 1.48267e-14
379 11 0.001 -0.0552108 -0.00375441 -0.047663 -1.13295e-12 9.68543e-13 -1.08716e-12 0 1.46157e-15
380 11 0.001 -0.0542673 -0.00398956 -0.0478922 -1.2607e-12 7.70961e-13 -1.05012e-12 0 1.22705e-15
381 11 0.001 -0.0532988 -0.00398584 -0.0481372 -1.17716e-12 5.48597e-13 -9.89198e-13 0 8.35946e-16
382 11 0.001 -0.0523659 -0.00374481 -0.048401 -1.14139e-12 3.48642e-13 -8.53897e-13 0 4.10357e-16
383 11 0.001 -0.0515269 -0.0032831 -0.0486855 -9.28952e-13 2.00653e-13 -7.12657e-13 0 1.0636e-16
755 12 0.001 -0.0352108 -0.00375443 -0.047663 -1.14112e-12 9.48652e-13 -1.05752e-12 0 1.46224e-15
756 12 0.001 -0.0342673 -0.00398958 -0.0478922 -1.19781e-12 7.57876e-13 -1.03761e-12 0 1.22669e-15
757 12 0.001 -0.0332988 -0.00398585 -0.0481371 -1.17308e-12 5.45784e-13 -9.59397e-13 0 8.34736e-16
758 12 0.001 -0.0323659 -0.00374482 -0.048401 -1.1207e-12 3.43946e-13 -8.31162e-13 0 4.08862e-16
759 12 0.001 -0.0315269 -0.0032831 -0.0486855 -9.29206e-13 1.86995e-13 -6.82509e-13 0 1.05481e-16
1151 14 0.001 -0.0152108 -0.00375443 -0.047663 -1.13914e-12 9.52482e-13 -1.05735e-12 0 1.46224e-15
1152 14 0.001 -0.0142673 -0.00398958 -0.0478922 -1.19246e-12 7.4993e-13 -1.03855e-12 0 1.22669e-15
1153 14 0.001 -0.0132988 -0.00398585 -0.0481371 -1.18221e-12 5.54276e-13 -9.58349e-13 0 8.34736e-16
1154 14 0.001 -0.0123659 -0.00374482 -0.048401 -1.08632e-12 3.44607e-13 -8.38708e-13 0 4.08862e-16
1155 14 0.001 -0.0115269 -0.0032831 -0.0486855 -9.71285e-13 1.79699e-13 -6.72686e-13 0 1.05481e-16
1547 16 0.001 0.00478923 -0.00375443 -0.047663 -1.14544e-12 9.51507e-13 -1.05703e-12 0 1.46224e-15
1548 16 0.001 0.00573273 -0.00398958 -0.0478922 -1.18611e-12 7.63523e-13 -1.04079e-12 0 1.22669e-15
1549 16 0.001 0.00670124 -0.00398585 -0.0481371 -1.18571e-12 5.34491e-13 -9.55613e-13 0 8.34736e-16
1550 16 0.001 0.00763413 -0.00374482 -0.048401 -1.08487e-12 3.48915e-13 -8.38809e-13 0 4.08862e-16
1551 16 0.001 0.00847313 -0.0032831 -0.0486855 -9.78892e-13 1.88667e-13 -6.7379e-13 0 1.05481e-16
1943 18 0.001 0.0247892 -0.00375443 -0.047663 -1.14216e-12 9.51296e-13 -1.05678e-12 0 1.46224e-15
1944 18 0.001 0.0257327 -0.00398958 -0.0478922 -1.20211e-12 7.64319e-13 -1.0374e-12 0 1.22669e-15
1945 18 0.001 0.0267012 -0.00398585 -0.0481371 -1.17379e-12 5.4087e-13 -9.58669e-13 0 8.34736e-16
1946 18 0.001 0.0276341 -0.00374482 -0.048401 -1.08753e-12 3.43179e-13 -8.38255e-13 0 4.08862e-16
1947 18 0.001 0.0284731 -0.0032831 -0.0486855 -9.75209e-13 1.90432e-13 -6.73966e-13 0 1.05481e-16
378 11 0.001 -0.0560702 -0.00329401 -0.0474452 -1.07145e-12 1.14869e-12 -1.03184e-12 0 1.48466e-15
754 12 0.001 -0.0360702 -0.00329403 -0.0474452 -1.02924e-12 1.13735e-12 -1.01505e-12 0 1.48626e-15
1150 14 0.001 -0.0160702 -0.00329403 -0.0474452 -1.04506e-12 1.13591e-12 -1.01343e-12 0 1.48626e-15
1546 16 0.001 0.00392981 -0.00329403 -0.0474452 -1.04067e-12 1.13338e-12 -1.01256e-12 0 1.48626e-15
1942 18 0.001 0.0239298 -0.00329403 -0.0474452 -1.03883e-12 1.12858e-12 -1.01486e-12 0 1.48626e-15
376 11 0.001 -0.0573308 -0.00182197 -0.047023 -7.21943e-13 1.39144e-12 -7.70094e-13 0 1.01959e-15
377 11 0.001 -0.0567918 -0.00263635 -0.0472336 -8.48282e-13 1.30958e-12 -9.31843e-13 0 1.31399e-15
753 12 0.001 -0.0367918 -0.00263637 -0.0472336 -8.92343e-13 1.27745e-12 -9.12606e-13 0 1.31621e-15
752 12 0.001 -0.0373307 -0.001822 -0.047023 -6.6071e-13 1.37712e-12 -7.59114e-13 0 1.02205e-15
1149 14 0.001 -0.0167918 -0.00263637 -0.0472336 -8.58873e-13 1.27689e-12 -9.15463e-13 0 1.31621e-15
1148 14 0.001 -0.0173307 -0.001822 -0.047023 -6.86215e-13 1.37769e-12 -7.56513e-13 0 1.02205e-15
1544 16 0.001 0.00266925 -0.001822 -0.047023 -6.68912e-13 1.37529e-12 -7.56726e-13 0 1.02205e-15
1545 16 0.001 0.00320819 -0.00263637 -0.0472336 -8.65831e-13 1.2791e-12 -9.16478e-13 0 1.31621e-15
1941 18 0.001 0.0232082 -0.00263637 -0.0472336 -8.58018e-13 1.2835e-12 -9.15972e-13 0 1.31621e-15
1940 18 0.001 0.0226693 -0.001822 -0.047023 -6.72163e-13 1.36915e-12 -7.57602e-13 0 1.02205e-15
375 11 0.001 -0.0576538 -0.00090131 -0.0468083 -4.5811e-13 1.44188e-12 -5.74409e-13 0 6.90245e-16
751 12 0.001 -0.0376538 -0.000901342 -0.0468083 -3.96342e-13 1.39955e-12 -5.64907e-13 0 6.92585e-16
1147 14 0.001 -0.0176538 -0.000901342 -0.0468083 -4.21594e-13 1.40591e-12 -5.65058e-13 0 6.92585e-16
1543 16 0.001 0.00234624 -0.000901342 -0.0468083 -4.37103e-13 1.40455e-12 -5.65233e-13 0 6.92585e-16
1939 18 0.001 0.0223462 -0.000901342 -0.0468083 -4.44502e-13 1.40855e-12 -5.64491e-13 0 6.92585e-16
373 11 0.001 -0.0575887 0.00102773 -0.0463515 -7.2392e-14 1.31356e-12 -1.56012e-13 0 1.93659e-16
374 11 0.001 -0.0577413 6.85938e-05 -0.0465856 -9.80446e-14 1.39585e-12 -3.54441e-13 0 4.01045e-16
749 12 0.001 -0.0375887 0.0010277 -0.0463515 6.57026e-14 1.28642e-12 -1.38134e-13 0 1.95089e-16
750 12 0.001 -0.0377413 6.85623e-05 -0.0465855 -2.54199e-13 1.36314e-12 -3.59804e-13 0 4.03001e-16
1145 14 0.001 -0.0175887 0.0010277 -0.0463515 4.88311e-14 1.2829e-12 -1.39032e-13 0 1.95089e-16
1146 14 0.001 -0.0177413 6.85623e-05 -0.0465855 -2.06661e-13 1.35805e-12 -3.58794e-13 0 4.03001e-16
1541 16 0.001 0.00241134 0.0010277 -0.0463515 4.42769e-14 1.28462e-12 -1.39836e-13 0 1.95089e-16
1542 16 0.001 0.00225869 6.85623e-05 -0.0465855 -2.04169e-13 1.36083e-12 -3.58239e-13 0 4.03001e-16
1937 18 0.001 0.0224113 0.0010277 -0.0463515 4.34568e-14 1.2794e-12 -1.40863e-13 0 1.95089e-16
1938 18 0.001 0.0222587 6.85623e-05 -0.0465855 -1.96108e-13 1.36267e-12 -3.57545e-13 0 4.03001e-16
372 11 0.001 -0.0572061 0.00191691 -0.0461046 3.336e-13 1.13028e-12 4.68881e-14 0 7.33372e-17
748 12 0.001 -0.0372061 0.00191689 -0.0461046 2.57641e-13 1.12783e-12 4.79729e-14 0 7.4229e-17
1144 14 0.001 -0.0172061 0.00191689 -0.0461046 2.40398e-13 1.13546e-12 4.5083e-14 0 7.4229e-17
1540 16 0.001 0.00279393 0.00191689 -0.0461046 2.58205e-13 1.13158e-12 4.77643e-14 0 7.4229e-17
1936 18 0.001 0.0227939 0.00191689 -0.0461046 2.49946e-13 1.13991e-12 4.79374e-14 0 7.4229e-17
371 11 0.001 -0.056618 0.00268141 -0.0458443 4.27911e-13 9.54487e-13 1.88903e-13 0 1.95955e-17
747 12 0.001 -0.036618 0.00268139 -0.0458443 4.29106e-13 9.31639e-13 1.89073e-13 0 2.00424e-17
1143 14 0.001 -0.016618 0.00268139 -0.0458443 4.64345e-13 9.29439e-13 1.97203e-13 0 2.00424e-17
1539 16 0.001 0.00338198 0.00268139 -0.0458443 4.53435e-13 9.34412e-13 1.96326e-13 0 2.00424e-17
1935 18 0.001 0.023382 0.00268139 -0.0458443 4.59897e-13 9.24656e-13 1.95521e-13 0 2.00424e-17
370 11 0.001 -0.0558616 0.00327431 -0.0455716 6.45898e-13 6.95194e-13 2.89903e-13 0 3.04247e-18
369 11 0.001 -0.0549843 0.00365933 -0.0452885 7.52741e-13 4.43435e-13 3.24137e-13 0 3.04349e-19
368 11 0.001 -0.054041 0.00381301 -0.0449978 7.09991e-13 1.28957e-13 2.5642e-13 0 1.62266e-18
367 11 0.001 -0.0530906 0.00372613 -0.0447025 7.8623e-13 -1.67029e-13 1.86423e-13 0 9.83282e-18
745 12 0.001 -0.0349843 0.00365932 -0.0452885 7.05705e-13 4.28591e-13 3.1698e-13 0 3.61411e-19
746 12 0.001 -0.0358616 0.00327429 -0.0455716 6.04542e-13 6.71776e-13 2.87391e-13 0 3.20554e-18
744 12 0.001 -0.034041 0.003813 -0.0449978 7.66016e-13 1.33813e-13 2.8122e-13 0 1.72245e-18
743 12 0.001 -0.0330906 0.00372614 -0.0447025 7.62458e-13 -1.51368e-13 1.92741e-13 0 1.00633e-17
1142 14 0.001 -0.0158616 0.00327429 -0.0455716 5.87775e-13 6.80076e-13 2.84073e-13 0 3.20554e-18
1140 14 0.001 -0.014041 0.003813 -0.0449978 7.72124e-13 1.4272e-13 2.83192e-13 0 1.72245e-18
1141 14 0.001 -0.0149843 0.00365932 -0.0452885 6.96246e-13 4.1409e-13 3.12731e-13 0 3.61411e-19
1139 14 0.001 -0.0130906 0.00372614 -0.0447025 7.11625e-13 -1.51869e-13 1.7796e-13 0 1.00633e-17
1538 16 0.001 0.00413838 0.00327429 -0.0455716 5.8522e-13 6.77084e-13 2.82514e-13 0 3.20554e-18
1537 16 0.001 0.00501566 0.00365932 -0.0452885 7.01983e-13 4.18269e-13 3.14579e-13 0 3.61411e-19
1536 16 0.001 0.00595898 0.003813 -0.0449978 7.63501e-13 1.33313e-13 2.80977e-13 0 1.72245e-18
1535 16 0.001 0.00690939 0.00372614 -0.0447025 7.34567e-13 -1.48166e-13 1.84181e-13 0 1.00633e-17
1933 18 0.001 0.0250157 0.00365932 -0.0452885 6.74445e-13 4.04524e-13 3.0463e-13 0 3.61411e-19
1934 18 0.001 0.0241384 0.00327429 -0.0455716 6.0004e-13 6.90219e-13 2.88955e-13 0 3.20554e-18
1932 18 0.001 0.025959 0.003813 -0.0449978 7.72948e-13 1.40155e-13 2.85434e-13 0 1.72245e-18
1931 18 0.001 0.0269094 0.00372614 -0.0447025 7.47294e-13 -1.52044e-13 1.87087e-13 0 1.00633e-17
361 11 0.001 -0.0501647 -0.000602328 -0.0429871 -2.28835e-13 -1.11262e-12 -5.95356e-13 0 2.81956e-16
737 12 0.001 -0.0301647 -0.000602297 -0.0429871 -1.94099e-13 -1.08589e-12 -5.87939e-13 0 2.82321e-16
1133 14 0.001 -0.0101647 -0.000602297 -0.0429871 -1.88079e-13 -1.082e-12 -5.88248e-13 0 2.82321e-16
1529 16 0.001 0.00983531 -0.000602297 -0.0429871 -1.90583e-13 -1.08095e-12 -5.90211e-13 0 2.82321e-16
1925 18 0.001 0.0298353 -0.000602297 -0.0429871 -2.09424e-13 -1.08149e-12 -5.90342e-13 0 2.82321e-16
362 11 0.001 -0.0501322 0.000358719 -0.0432579 6.3957e-14 -1.09202e-12 -5.32766e-13 0 2.55068e-16
363 11 0.001 -0.0503392 0.00129573 -0.0435358 2.31732e-13 -1.02798e-12 -4.17713e-13 0 2.02354e-16
738 12 0.001 -0.0301323 0.00035875 -0.0432579 2.14127e-14 -1.07018e-12 -5.24649e-13 0 2.55499e-16
739 12 0.001 -0.0303392 0.00129576 -0.0435358 2.24012e-13 -9.98374e-13 -4.17833e-13 0 2.02851e-16
1134 14 0.001 -0.0101323 0.00035875 -0.0432579 -5.85077e-16 -1.07928e-12 -5.2401e-13 0 2.55499e-16
1135 14 0.001 -0.0103392 0.00129576 -0.0435358 2.50543e-13 -9.91739e-13 -4.15876e-13 0 2.02851e-16
1530 16 0.001 0.00986775 0.00035875 -0.0432579 7.5537e-15 -1.07533e-12 -5.24048e-13 0 2.55499e-16
1531 16 0.001 0.0096608 0.00129576 -0.0435358 2.43181e-13 -9.92127e-13 -4.16655e-13 0 2.02851e-16
1926 18 0.001 0.0298677 0.00035875 -0.0432579 2.05713e-14 -1.07314e-12 -5.23593e-13 0 2.55499e-16
1927 18 0.001 0.0296608 0.00129576 -0.0435358 2.17338e-13 -9.98388e-13 -4.1968e-13 0 2.02851e-16
365 11 0.001 -0.0514031 0.00286774 -0.0441111 5.65634e-13 -6.87108e-13 -1.21525e-13 0 7.69757e-17
364 11 0.001 -0.050772 0.00214991 -0.0438205 4.49542e-13 -8.60347e-13 -2.76326e-13 0 1.37493e-16
740 12 0.001 -0.030772 0.00214994 -0.0438205 4.40879e-13 -8.54244e-13 -2.66457e-13 0 1.38018e-16
741 12 0.001 -0.0314031 0.00286776 -0.0441111 6.08414e-13 -6.61711e-13 -9.91101e-14 0 7.74626e-17
1136 14 0.001 -0.010772 0.00214994 -0.0438205 4.32121e-13 -8.57276e-13 -2.67063e-13 0 1.38018e-16
1137 14 0.001 -0.0114031 0.00286776 -0.0441111 5.68298e-13 -6.54168e-13 -1.10405e-13 0 7.74626e-17
1533 16 0.001 0.00859687 0.00286776 -0.0441111 5.72396e-13 -6.52241e-13 -1.09855e-13 0 7.74626e-17
1532 16 0.001 0.00922797 0.00214994 -0.0438205 4.39647e-13 -8.62723e-13 -2.64497e-13 0 1.38018e-16
1928 18 0.001 0.029228 0.00214994 -0.0438205 4.78516e-13 -8.49193e-13 -2.59933e-13 0 1.38018e-16
1929 18 0.001 0.0285969 0.00286776 -0.0441111 5.54771e-13 -6.6984e-13 -1.10044e-13 0 7.74626e-17
366 11 0.001 -0.0521925 0.00340432 -0.0444059 7.75368e-13 -4.17203e-13 6.7112e-14 0 3.32324e-17
742 12 0.001 -0.0321925 0.00340434 -0.0444059 6.55827e-13 -4.19424e-13 3.96625e-14 0 3.36112e-17
1138 14 0.001 -0.0121925 0.00340434 -0.0444059 7.4122e-13 -4.29581e-13 6.42563e-14 0 3.36112e-17
1534 16 0.001 0.00780746 0.00340434 -0.0444059 7.14649e-13 -4.25252e-13 5.66475e-14 0 3.36112e-17
1930 18 0.001 0.0278075 0.00340434 -0.0444059 7.04334e-13 -4.14878e-13 5.25205e-14 0 3.36112e-17
355 11 0.001 -0.0543321 -0.00384365 -0.0414481 -8.85863e-13 -3.97577e-14 -1.66224e-13 0 7.18756e-17
356 11 0.001 -0.0533666 -0.00380789 -0.0417018 -8.62866e-13 -2.79607e-13 -2.82392e-13 0 1.0332e-16
357 11 0.001 -0.0524395 -0.00353455 -0.0419547 -8.71665e-13 -5.27772e-13 -3.87357e-13 0 1.47154e-16
358 11 0.001 -0.0516089 -0.00304067 -0.0422081 -7.07141e-13 -7.40008e-13 -5.035e-13 0 1.98102e-16
731 12 0.001 -0.0343321 -0.00384366 -0.0414481 -8.28658e-13 -3.83667e-14 -1.64454e-13 0 7.23248e-17
732 12 0.001 -0.0333665 -0.00380789 -0.0417018 -8.92289e-13 -2.79609e-13 -2.6252e-13 0 1.03744e-16
733 12 0.001 -0.0324395 -0.00353454 -0.0419547 -8.03976e-13 -5.1841e-13 -3.89351e-13 0 1.47544e-16
734 12 0.001 -0.0316089 -0.00304066 -0.0422081 -7.55595e-13 -7.21463e-13 -4.85751e-13 0 1.98453e-16
1127 14 0.001 -0.0143321 -0.00384366 -0.0414481 -8.66324e-13 -4.45604e-14 -1.54754e-13 0 7.23248e-17
1128 14 0.001 -0.0133665 -0.00380789 -0.0417018 -8.53276e-13 -2.69693e-13 -2.73688e-13 0 1.03744e-16
1129 14 0.001 -0.0124395 -0.00353454 -0.0419547 -8.22196e-13 -5.24474e-13 -3.82598e-13 0 1.47544e-16
1130 14 0.001 -0.0116089 -0.00304066 -0.0422081 -7.48198e-13 -7.20096e-13 -4.88813e-13 0 1.98453e-16
1523 16 0.001 0.00566791 -0.00384366 -0.0414481 -8.47639e-13 -3.95554e-14 -1.60455e-13 0 7.23248e-17
1524 16 0.001 0.00663348 -0.00380789 -0.0417018 -8.65867e-13 -2.73402e-13 -2.69858e-13 0 1.03744e-16
1525 16 0.001 0.00756049 -0.00353454 -0.0419547 -8.18285e-13 -5.2735e-13 -3.83313e-13 0 1.47544e-16
1526 16 0.001 0.0083911 -0.00304066 -0.0422081 -7.48758e-13 -7.1383e-13 -4.8928e-13 0 1.98453e-16
1919 18 0.001 0.0256679 -0.00384366 -0.0414481 -8.13309e-13 -3.38835e-14 -1.68664e-13 0 7.23248e-17
1920 18 0.001 0.0266335 -0.00380789 -0.0417018 -8.70613e-13 -2.82894e-13 -2.66842e-13 0 1.03744e-16
1921 18 0.001 0.0275605 -0.00353454 -0.0419547 -8.27846e-13 -5.14985e-13 -3.85765e-13 0 1.47544e-16
1922 18 0.001 0.0283911 -0.00304066 -0.0422081 -7.19889e-13 -7.25902e-13 -4.89791e-13 0 1.98453e-16
359 11 0.001 -0.0509266 -0.00235719 -0.0424635 -6.37174e-13 -9.12201e-13 -5.70464e-13 0 2.45888e-16
360 11 0.001 -0.050435 -0.00152701 -0.0427227 -4.11096e-13 -1.03999e-12 -6.10636e-13 0 2.77522e-16
735 12 0.001 -0.0309265 -0.00235717 -0.0424635 -5.882e-13 -9.0509e-13 -5.6369e-13 0 2.4621e-16
736 12 0.001 -0.030435 -0.00152698 -0.0427227 -4.11531e-13 -1.00895e-12 -6.07648e-13 0 2.77847e-16
1131 14 0.001 -0.0109265 -0.00235717 -0.0424635 -5.98339e-13 -9.06168e-13 -5.61708e-13 0 2.4621e-16
1132 14 0.001 -0.010435 -0.00152698 -0.0427227 -4.006e-13 -1.00709e-12 -6.09405e-13 0 2.77847e-16
1527 16 0.001 0.00907346 -0.00235717 -0.0424635 -5.93007e-13 -9.02865e-13 -5.64402e-13 0 2.4621e-16
1528 16 0.001 0.00956503 -0.00152698 -0.0427227 -4.07952e-13 -1.01734e-12 -6.04287e-13 0 2.77847e-16
1923 18 0.001 0.0290735 -0.00235717 -0.0424635 -6.08971e-13 -8.83462e-13 -5.68615e-13 0 2.4621e-16
1924 18 0.001 0.029565 -0.00152698 -0.0427227 -3.94965e-13 -1.02992e-12 -6.0033e-13 0 2.77847e-16
353 11 0.001 -0.0561396 -0.00320891 -0.0409341 -6.14369e-13 3.87961e-13 -5.19254e-14 0 4.72812e-17
354 11 0.001 -0.0552761 -0.00363971 -0.0411924 -8.30201e-13 2.21612e-13 -7.34098e-14 0 5.36256e-17
729 12 0.001 -0.0361396 -0.00320893 -0.0409341 -6.66347e-13 4.10025e-13 -2.12773e-14 0 4.78118e-17
730 12 0.001 -0.035276 -0.00363972 -0.0411923 -7.36854e-13 1.78208e-13 -9.07099e-14 0 5.41027e-17
1125 14 0.001 -0.0161396 -0.00320893 -0.0409341 -6.53093e-13 4.21333e-13 -2.27026e-14 0 4.78118e-17
1126 14 0.001 -0.015276 -0.00363972 -0.0411923 -7.39692e-13 1.78318e-13 -8.99174e-14 0 5.41027e-17
1521 16 0.001 0.0038604 -0.00320893 -0.0409341 -6.5191e-13 4.16311e-13 -2.39918e-14 0 4.78118e-17
1522 16 0.001 0.00472396 -0.00363972 -0.0411923 -7.47088e-13 1.77499e-13 -8.71609e-14 0 5.41027e-17
1917 18 0.001 0.0238604 -0.00320893 -0.0409341 -6.39172e-13 4.21311e-13 -2.58903e-14 0 4.78118e-17
1918 18 0.001 0.024724 -0.00363972 -0.0411923 -8.02371e-13 1.7689e-13 -7.42707e-14 0 5.41027e-17
351 11 0.001 -0.0574192 -0.00178709 -0.0404096 -2.88353e-13 7.60923e-13 -5.44923e-14 0 6.84966e-17
352 11 0.001 -0.0568691 -0.00257824 -0.0406731 -4.85497e-13 6.13997e-13 -3.34226e-14 0 5.19775e-17
727 12 0.001 -0.0374192 -0.00178713 -0.0404095 -2.6987e-13 7.10167e-13 -5.86041e-14 0 6.92946e-17
728 12 0.001 -0.0368691 -0.00257827 -0.0406731 -4.58327e-13 5.90866e-13 -2.60136e-14 0 5.26107e-17
1123 14 0.001 -0.0174192 -0.00178713 -0.0404095 -2.63149e-13 7.26818e-13 -5.56528e-14 0 6.92946e-17
1124 14 0.001 -0.0168691 -0.00257827 -0.0406731 -4.62315e-13 5.72294e-13 -2.90162e-14 0 5.26107e-17
1519 16 0.001 0.00258077 -0.00178713 -0.0404095 -2.70923e-13 7.20191e-13 -5.66647e-14 0 6.92946e-17
1520 16 0.001 0.00313091 -0.00257827 -0.0406731 -4.65741e-13 5.81438e-13 -2.64988e-14 0 5.26107e-17
1915 18 0.001 0.0225808 -0.00178713 -0.0404095 -2.6052e-13 7.28028e-13 -5.54742e-14 0 6.92946e-17
1916 18 0.001 0.0231309 -0.00257827 -0.0406731 -4.57929e-13 5.69711e-13 -3.06958e-14 0 5.26107e-17
350 11 0.001 -0.0577559 -0.000884804 -0.0401439 -7.11954e-14 8.58938e-13 -1.27072e-13 0 9.8681e-17
726 12 0.001 -0.0377559 -0.000884844 -0.0401439 -5.50566e-14 8.48973e-13 -1.08832e-13 0 9.97021e-17
1122 14 0.001 -0.0177559 -0.000884844 -0.0401439 -7.22348e-14 8.36104e-13 -1.11864e-13 0 9.97021e-17
1518 16 0.001 0.00224411 -0.000884844 -0.0401439 -5.44963e-14 8.39728e-13 -1.11991e-13 0 9.97021e-17
1914 18 0.001 0.0222441 -0.000884844 -0.0401439 -7.47946e-14 8.35893e-13 -1.11801e-13 0 9.97021e-17
348 11 0.001 -0.0577199 0.00102483 -0.039609 3.82473e-13 9.13461e-13 -3.00003e-13 0 2.0132e-16
349 11 0.001 -0.0578582 7.23851e-05 -0.0398768 2.14291e-13 8.95631e-13 -2.09671e-13 0 1.43556e-16
724 12 0.001 -0.0377199 0.00102479 -0.039609 4.84698e-13 8.44285e-13 -2.93439e-13 0 2.02866e-16
725 12 0.001 -0.0378582 7.23443e-05 -0.0398768 1.369e-13 8.90169e-13 -2.00916e-13 0 1.44837e-16
1120 14 0.001 -0.0177199 0.00102479 -0.039609 3.93807e-13 8.54924e-13 -2.97614e-13 0 2.02866e-16
1121 14 0.001 -0.0178582 7.23443e-05 -0.0398768 1.93443e-13 8.92013e-13 -1.98433e-13 0 1.44837e-16
1516 16 0.001 0.0022801 0.00102479 -0.039609 4.0732e-13 8.55704e-13 -2.96388e-13 0 2.02866e-16
1517 16 0.001 0.00214179 7.23443e-05 -0.0398768 1.78542e-13 8.88871e-13 -1.99057e-13 0 1.44837e-16
1912 18 0.001 0.0222801 0.00102479 -0.039609 3.90428e-13 8.62229e-13 -2.96174e-13 0 2.02866e-16
1913 18 0.001 0.0221418 7.23443e-05 -0.0398768 1.95234e-13 8.87711e-13 -1.99434e-13 0 1.44837e-16
347 11 0.001 -0.0573496 0.00191316 -0.0393411 6.49194e-13 8.18261e-13 -3.88206e-13 0 2.66378e-16
346 11 0.001 -0.0567704 0.00268194 -0.0390737 8.20291e-13 7.04793e-13 -4.53853e-13 0 3.30027e-16
722 12 0.001 -0.0367704 0.00268191 -0.0390737 8.11645e-13 6.73124e-13 -4.44687e-13 0 3.31988e-16
723 12 0.001 -0.0373496 0.00191312 -0.0393411 5.54208e-13 8.23917e-13 -3.81279e-13 0 2.6816e-16
1118 14 0.001 -0.0167704 0.00268191 -0.0390737 7.58606e-13 6.82216e-13 -4.5145e-13 0 3.31988e-16
1119 14 0.001 -0.0173496 0.00191312 -0.0393411 6.45343e-13 8.10479e-13 -3.73276e-13 0 2.6816e-16
1515 16 0.001 0.0026504 0.00191312 -0.0393411 6.23711e-13 8.14093e-13 -3.75513e-13 0 2.6816e-16
1514 16 0.001 0.0032296 0.00268191 -0.0390737 7.89383e-13 6.78089e-13 -4.46633e-13 0 3.31988e-16
1910 18 0.001 0.0232296 0.00268191 -0.0390737 7.60568e-13 6.84793e-13 -4.50352e-13 0 3.31988e-16
1911 18 0.001 0.0226504 0.00191312 -0.0393411 6.50308e-13 8.0659e-13 -3.73427e-13 0 2.6816e-16
345 11 0.001 -0.0560184 0.00328318 -0.0388072 9.64662e-13 5.46445e-13 -4.83733e-13 0 3.82581e-16
344 11 0.001 -0.0551405 0.00367928 -0.0385416 1.0102e-12 3.37708e-13 -4.96361e-13 0 4.16088e-16
721 12 0.001 -0.0360184 0.00328316 -0.0388071 9.75497e-13 5.35075e-13 -4.70209e-13 0 3.84652e-16
720 12 0.001 -0.0351406 0.00367926 -0.0385416 9.7482e-13 3.3887e-13 -4.84697e-13 0 4.182e-16
1117 14 0.001 -0.0160184 0.00328316 -0.0388071 9.60071e-13 5.28883e-13 -4.75414e-13 0 3.84652e-16
1116 14 0.001 -0.0151406 0.00367926 -0.0385416 1.0156e-12 3.31567e-13 -4.75492e-13 0 4.182e-16
1513 16 0.001 0.00398157 0.00328316 -0.0388071 9.39839e-13 5.30678e-13 -4.79282e-13 0 3.84652e-16
1512 16 0.001 0.00485942 0.00367926 -0.0385416 1.01196e-12 3.33637e-13 -4.76479e-13 0 4.182e-16
1909 18 0.001 0.0239816 0.00328316 -0.0388071 9.53335e-13 5.27388e-13 -4.77387e-13 0 3.84652e-16
1908 18 0.001 0.0248594 0.00367926 -0.0385416 1.02093e-12 3.32749e-13 -4.74068e-13 0 4.182e-16
338 11 0.001 -0.0504045 0.0013754 -0.0369598 4.03313e-13 -6.26816e-13 -8.25288e-14 0 2.65367e-16
714 12 0.001 -0.0304045 0.00137544 -0.0369598 3.70354e-13 -6.21355e-13 -7.10488e-14 0 2.67111e-16
1110 14 0.001 -0.0104045 0.00137544 -0.0369598 3.515e-13 -6.31181e-13 -7.01269e-14 0 2.67111e-16
1506 16 0.001 0.00959551 0.00137544 -0.0369598 3.66744e-13 -6.32228e-13 -6.76056e-14 0 2.67111e-16
1902 18 0.001 0.0295955 0.00137544 -0.0369598 3.68314e-13 -6.24462e-13 -7.00257e-14 0 2.67111e-16
340 11 0.001 -0.0515113 0.00293467 -0.0374869 8.12922e-13 -4.39036e-13 -2.13746e-13 0 3.45821e-16
339 11 0.001 -0.0508597 0.00222464 -0.0372236 5.9768e-13 -6.02795e-13 -1.2683e-13 0 3.03746e-16
716 12 0.001 -0.0315113 0.00293471 -0.0374869 7.65736e-13 -4.19303e-13 -2.11476e-13 0 3.47703e-16
715 12 0.001 -0.0308597 0.00222468 -0.0372236 6.23583e-13 -5.82358e-13 -1.13855e-13 0 3.05551e-16
1111 14 0.001 -0.0108597 0.00222468 -0.0372236 6.36985e-13 -5.72583e-13 -1.13885e-13 0 3.05551e-16
1112 14 0.001 -0.0115113 0.00293471 -0.0374869 7.57007e-13 -4.23578e-13 -2.12369e-13 0 3.47703e-16
1508 16 0.001 0.00848871 0.00293471 -0.0374869 7.4279e-13 -4.28453e-13 -2.13746e-13 0 3.47703e-16
1507 16 0.001 0.00914028 0.00222468 -0.0372236 6.30783e-13 -5.67232e-13 -1.16939e-13 0 3.05551e-16
1904 18 0.001 0.0284887 0.00293471 -0.0374869 7.52008e-13 -4.20022e-13 -2.13012e-13 0 3.47703e-16
1903 18 0.001 0.0291403 0.00222468 -0.0372236 6.33042e-13 -5.73659e-13 -1.15556e-13 0 3.05551e-16
343 11 0.001 -0.0541916 0.00384542 -0.0382771 1.12482e-12 1.53083e-13 -4.35377e-13 0 4.26518e-16
342 11 0.001 -0.0532309 0.00377118 -0.0380133 1.002e-12 -9.06714e-14 -3.94902e-13 0 4.1463e-16
341 11 0.001 -0.0523185 0.00346115 -0.03775 9.37868e-13 -2.68922e-13 -3.03915e-13 0 3.8531e-16
719 12 0.001 -0.0341917 0.00384542 -0.0382771 1.06178e-12 1.35315e-13 -4.40174e-13 0 4.28615e-16
718 12 0.001 -0.033231 0.00377119 -0.0380133 9.91267e-13 -7.22438e-14 -3.81694e-13 0 4.16672e-16
717 12 0.001 -0.0323185 0.00346117 -0.03775 9.13984e-13 -2.62787e-13 -2.96088e-13 0 3.87275e-16
1115 14 0.001 -0.0141917 0.00384542 -0.0382771 1.02583e-12 1.47887e-13 -4.48503e-13 0 4.28615e-16
1113 14 0.001 -0.0123185 0.00346117 -0.03775 9.01017e-13 -2.58318e-13 -2.99654e-13 0 3.87275e-16
1114 14 0.001 -0.013231 0.00377119 -0.0380133 1.02848e-12 -8.01166e-14 -3.71888e-13 0 4.16672e-16
1511 16 0.001 0.00580832 0.00384542 -0.0382771 1.0444e-12 1.42886e-13 -4.43885e-13 0 4.28615e-16
1510 16 0.001 0.00676902 0.00377119 -0.0380133 9.98609e-13 -7.7818e-14 -3.79261e-13 0 4.16672e-16
1509 16 0.001 0.00768148 0.00346117 -0.03775 9.32746e-13 -2.56542e-13 -2.92901e-13 0 3.87275e-16
1907 18 0.001 0.0258083 0.00384542 -0.0382771 1.02062e-12 1.42416e-13 -4.49901e-13 0 4.28615e-16
1906 18 0.001 0.026769 0.00377119 -0.0380133 1.01777e-12 -6.98302e-14 -3.7513e-13 0 4.16672e-16
1905 18 0.001 0.0276815 0.00346117 -0.03775 9.20747e-13 -2.69792e-13 -2.94046e-13 0 3.87275e-16
333 11 0.001 -0.0515634 -0.0029917 -0.0356317 -6.14701e-13 -3.99153e-13 -1.81679e-13 0 2.15574e-16
334 11 0.001 -0.0508997 -0.00229426 -0.0358983 -4.71436e-13 -5.80442e-13 -9.46939e-14 0 2.05399e-16
709 12 0.001 -0.0315634 -0.00299167 -0.0356317 -6.78465e-13 -4.10981e-13 -1.46802e-13 0 2.17488e-16
710 12 0.001 -0.0308996 -0.00229422 -0.0358983 -4.12699e-13 -5.25003e-13 -1.02215e-13 0 2.07204e-16
1105 14 0.001 -0.0115634 -0.00299167 -0.0356317 -6.36844e-13 -4.09783e-13 -1.54981e-13 0 2.17488e-16
1106 14 0.001 -0.0108996 -0.00229422 -0.0358983 -4.57706e-13 -5.25537e-13 -9.56929e-14 0 2.07204e-16
1501 16 0.001 0.00843663 -0.00299167 -0.0356317 -6.51194e-13 -4.09878e-13 -1.52158e-13 0 2.17488e-16
1502 16 0.001 0.00910036 -0.00229422 -0.0358983 -4.37766e-13 -5.24782e-13 -9.88236e-14 0 2.07204e-16
1897 18 0.001 0.0284366 -0.00299167 -0.0356317 -6.67733e-13 -3.99823e-13 -1.50677e-13 0 2.17488e-16
1898 18 0.001 0.0291004 -0.00229422 -0.0358983 -4.13888e-13 -5.34693e-13 -1.00143e-13 0 2.07204e-16
335 11 0.001 -0.0504296 -0.00145393 -0.0361645 -3.13976e-13 -6.46469e-13 -4.99363e-14 0 2.04735e-16
336 11 0.001 -0.0501825 -0.000523148 -0.0364303 -4.64587e-14 -7.1096e-13 -2.66729e-14 0 2.14463e-16
711 12 0.001 -0.0304296 -0.00145388 -0.0361645 -2.97547e-13 -6.14778e-13 -4.35976e-14 0 2.06469e-16
712 12 0.001 -0.0301825 -0.000523099 -0.0364303 -2.64167e-14 -7.03483e-13 -1.39856e-14 0 2.16165e-16
1107 14 0.001 -0.0104296 -0.00145388 -0.0361645 -2.4705e-13 -6.14546e-13 -4.79725e-14 0 2.06469e-16
1108 14 0.001 -0.0101825 -0.000523099 -0.0364303 -7.71574e-14 -7.00153e-13 -1.30873e-14 0 2.16165e-16
1503 16 0.001 0.00957043 -0.00145388 -0.0361645 -2.66956e-13 -6.13708e-13 -4.6247e-14 0 2.06469e-16
1504 16 0.001 0.00981747 -0.000523099 -0.0364303 -5.94619e-14 -7.01121e-13 -1.34427e-14 0 2.16165e-16
1899 18 0.001 0.0295704 -0.00145388 -0.0361645 -3.01688e-13 -6.0747e-13 -4.45789e-14 0 2.06469e-16
1900 18 0.001 0.0298175 -0.000523099 -0.0364303 -1.93576e-14 -7.0252e-13 -1.45198e-14 0 2.16165e-16
337 11 0.001 -0.050174 0.000440002 -0.0366954 1.85393e-13 -7.52535e-13 -1.91206e-14 0 2.34886e-16
713 12 0.001 -0.030174 0.00044005 -0.0366954 1.69956e-13 -6.85698e-13 -2.18774e-14 0 2.36593e-16
1109 14 0.001 -0.010174 0.00044005 -0.0366954 2.06149e-13 -6.84317e-13 -2.18805e-14 0 2.36593e-16
1505 16 0.001 0.00982602 0.00044005 -0.0366954 1.89555e-13 -6.8538e-13 -2.2549e-14 0 2.36593e-16
1901 18 0.001 0.029826 0.00044005 -0.0366954 1.62775e-13 -6.89129e-13 -2.14772e-14 0 2.36593e-16
328 11 0.001 -0.0560737 -0.0032548 -0.0343024 -7.59765e-13 4.8209e-13 -4.08101e-13 0 3.4278e-16
329 11 0.001 -0.0552033 -0.00366751 -0.0345673 -8.46138e-13 3.40636e-13 -3.93822e-13 0 3.15729e-16
330 11 0.001 -0.054258 -0.00385154 -0.0348328 -8.85975e-13 1.49149e-13 -3.65987e-13 0 2.86651e-16
331 11 0.001 -0.0532967 -0.00379544 -0.0350988 -8.25715e-13 -8.16517e-14 -3.17114e-13 0 2.58411e-16
332 11 0.001 -0.0523794 -0.00350272 -0.0353652 -8.17026e-13 -2.37458e-13 -2.33028e-13 0 2.33887e-16
704 12 0.001 -0.0360736 -0.00325483 -0.0343024 -7.32349e-13 5.00222e-13 -3.91907e-13 0 3.45476e-16
705 12 0.001 -0.0352033 -0.00366754 -0.0345673 -8.06684e-13 3.03815e-13 -3.9064e-13 0 3.18272e-16
706 12 0.001 -0.0342579 -0.00385155 -0.0348328 -8.64356e-13 1.4501e-13 -3.50849e-13 0 2.89029e-16
707 12 0.001 -0.0332966 -0.00379543 -0.0350988 -8.06006e-13 -5.40015e-14 -3.07584e-13 0 2.60623e-16
708 12 0.001 -0.0323793 -0.00350271 -0.0353652 -7.30179e-13 -2.40524e-13 -2.36803e-13 0 2.3594e-16
1100 14 0.001 -0.0160736 -0.00325483 -0.0343024 -7.43011e-13 4.82211e-13 -3.9162e-13 0 3.45476e-16
1101 14 0.001 -0.0152033 -0.00366754 -0.0345673 -8.17916e-13 3.22349e-13 -3.86531e-13 0 3.18272e-16
1102 14 0.001 -0.0142579 -0.00385155 -0.0348328 -8.43903e-13 1.29989e-13 -3.56883e-13 0 2.89029e-16
1104 14 0.001 -0.0123793 -0.00350271 -0.0353652 -7.43018e-13 -2.39318e-13 -2.34923e-13 0 2.3594e-16
1103 14 0.001 -0.0132966 -0.00379543 -0.0350988 -8.26079e-13 -5.00775e-14 -3.01098e-13 0 2.60623e-16
1496 16 0.001 0.00392639 -0.00325483 -0.0343024 -7.42049e-13 4.82742e-13 -3.92829e-13 0 3.45476e-16
1497 16 0.001 0.00479674 -0.00366754 -0.0345673 -8.18282e-13 3.18127e-13 -3.85431e-13 0 3.18272e-16
1498 16 0.001 0.00574208 -0.00385155 -0.0348328 -8.44143e-13 1.38479e-13 -3.57751e-13 0 2.89029e-16
1499 16 0.001 0.0067034 -0.00379543 -0.0350988 -8.25049e-13 -5.52492e-14 -3.00884e-13 0 2.60623e-16
1500 16 0.001 0.00762066 -0.00350271 -0.0353652 -7.39494e-13 -2.39579e-13 -2.35608e-13 0 2.3594e-16
1892 18 0.001 0.0239264 -0.00325483 -0.0343024 -7.4087e-13 4.83508e-13 -3.92124e-13 0 3.45476e-16
1893 18 0.001 0.0247967 -0.00366754 -0.0345673 -8.23895e-13 3.23363e-13 -3.84838e-13 0 3.18272e-16
1894 18 0.001 0.0257421 -0.00385155 -0.0348328 -8.31182e-13 1.26038e-13 -3.60145e-13 0 2.89029e-16
1895 18 0.001 0.0267034 -0.00379543 -0.0350988 -8.46845e-13 -4.27283e-14 -2.96172e-13 0 2.60623e-16
1896 18 0.001 0.0276207 -0.00350271 -0.0353652 -7.19339e-13 -2.48549e-13 -2.39404e-13 0 2.3594e-16
327 11 0.001 -0.0568147 -0.00263913 -0.0340381 -6.63426e-13 6.68209e-13 -3.71367e-13 0 3.65434e-16
703 12 0.001 -0.0368146 -0.00263918 -0.0340381 -6.46022e-13 6.13556e-13 -3.66944e-13 0 3.68266e-16
1099 14 0.001 -0.0168146 -0.00263918 -0.0340381 -6.18064e-13 6.15771e-13 -3.73585e-13 0 3.68266e-16