ITEM: TIMESTEP
4700000
ITEM: NUMBER OF ATOMS
1970
ITEM: BOX BOUNDS ff ff ff
-6.0000000000000005e-02 6.0000000000000005e-02
-6.0000000000000001e-03 6.0000000000000001e-03
-5.5000000000000000e-02 5.5000000000000000e-02
ITEM: ATOMS id type radius x y z fx fy fz c_bendingE c_stretchingE
384 11 0.001 -0.0508398 -0.00262949 -0.0489907 -9.58206e-13 3.70193e-14 -7.10605e-13 0 9.8845e-17
385 11 0.001 -0.0503342 -0.00183064 -0.0493135 -7.34036e-13 -2.76862e-14 -4.68312e-13 0 7.6622e-15
760 12 0.001 -0.0308398 -0.00262949 -0.0489907 -9.53092e-13 4.91807e-14 -7.05885e-13 0 9.9267e-17
761 12 0.001 -0.0303342 -0.00183064 -0.0493135 -6.95911e-13 -4.87935e-14 -4.54402e-13 0 7.65816e-15
1156 14 0.001 -0.0108398 -0.00262949 -0.0489907 -9.53008e-13 5.3966e-14 -7.06747e-13 0 9.9267e-17
1157 14 0.001 -0.0103342 -0.00183064 -0.0493135 -7.0314e-13 -5.03765e-14 -4.53943e-13 0 7.65816e-15
1552 16 0.001 0.00916023 -0.00262949 -0.0489907 -9.54817e-13 4.38741e-14 -7.01777e-13 0 9.9267e-17
1553 16 0.001 0.00966583 -0.00183064 -0.0493135 -7.02923e-13 -3.60889e-14 -4.6092e-13 0 7.65816e-15
1948 18 0.001 0.0291602 -0.00262949 -0.0489907 -9.70583e-13 5.5126e-14 -7.05069e-13 0 9.9267e-17
1949 18 0.001 0.0296658 -0.00183064 -0.0493135 -6.81979e-13 -5.3837e-14 -4.54535e-13 0 7.65816e-15
2 2 0.001 -0.05 -4.31175e-17 -0.05 -4.04519e-06 4.82454e-06 2.0508e-06 0 6.07985e-15
386 11 0.001 -0.0500485 -0.000935039 -0.0496516 -3.08252e-13 -7.69592e-14 -2.19373e-13 0 1.36433e-14
762 12 0.001 -0.0300485 -0.000935038 -0.0496516 -3.35916e-13 -5.07102e-14 -2.24379e-13 0 1.36343e-14
4 4 0.001 -0.03 -4.31175e-17 -0.05 -4.04626e-06 4.82798e-06 2.04967e-06 0 6.07537e-15
6 6 0.001 -0.01 -4.31175e-17 -0.05 -4.04626e-06 4.82798e-06 2.04967e-06 0 6.07537e-15
1158 14 0.001 -0.0100485 -0.000935038 -0.0496516 -3.27206e-13 -4.45206e-14 -2.26841e-13 0 1.36343e-14
8 8 0.001 0.01 -4.31175e-17 -0.05 -4.04626e-06 4.82798e-06 2.04967e-06 0 6.07537e-15
1554 16 0.001 0.00995154 -0.000935038 -0.0496516 -3.24464e-13 -5.20707e-14 -2.23084e-13 0 1.36343e-14
10 10 0.001 0.03 -4.31175e-17 -0.05 -4.04626e-06 4.82798e-06 2.04967e-06 0 6.07537e-15
1950 18 0.001 0.0299515 -0.000935038 -0.0496516 -3.43086e-13 -4.66159e-14 -2.25308e-13 0 1.36343e-14
379 11 0.001 -0.05522 -0.00374503 -0.0476683 -1.41089e-12 1.20673e-12 -1.39364e-12 0 1.64594e-15
380 11 0.001 -0.0542767 -0.00398185 -0.0478966 -1.49625e-12 9.36271e-13 -1.38564e-12 0 1.36049e-15
381 11 0.001 -0.0533079 -0.00397982 -0.0481405 -1.55132e-12 6.67425e-13 -1.28099e-12 0 9.02768e-16
382 11 0.001 -0.0523743 -0.00374043 -0.0484032 -1.39279e-12 4.34749e-13 -1.15084e-12 0 4.1946e-16
383 11 0.001 -0.0515342 -0.00328018 -0.0486867 -1.21711e-12 2.19299e-13 -9.50687e-13 0 9.70768e-17
755 12 0.001 -0.03522 -0.00374504 -0.0476683 -1.45802e-12 1.19011e-12 -1.37044e-12 0 1.6461e-15
756 12 0.001 -0.0342767 -0.00398185 -0.0478966 -1.53182e-12 9.35688e-13 -1.3587e-12 0 1.36029e-15
757 12 0.001 -0.0333079 -0.00397982 -0.0481405 -1.47078e-12 6.83069e-13 -1.29041e-12 0 9.02291e-16
758 12 0.001 -0.0323743 -0.00374043 -0.0484032 -1.40771e-12 4.11827e-13 -1.12705e-12 0 4.18924e-16
759 12 0.001 -0.0315342 -0.00328018 -0.0486866 -1.21037e-12 2.21797e-13 -9.39754e-13 0 9.682e-17
1151 14 0.001 -0.01522 -0.00374504 -0.0476683 -1.41496e-12 1.19682e-12 -1.38278e-12 0 1.6461e-15
1152 14 0.001 -0.0142767 -0.00398185 -0.0478966 -1.54812e-12 9.27367e-13 -1.35247e-12 0 1.36029e-15
1153 14 0.001 -0.0133079 -0.00397982 -0.0481405 -1.47315e-12 6.79538e-13 -1.28985e-12 0 9.02291e-16
1154 14 0.001 -0.0123743 -0.00374043 -0.0484032 -1.38794e-12 4.29301e-13 -1.13528e-12 0 4.18924e-16
1155 14 0.001 -0.0115342 -0.00328018 -0.0486866 -1.22265e-12 2.04445e-13 -9.32892e-13 0 9.682e-17
1547 16 0.001 0.00477999 -0.00374504 -0.0476683 -1.41524e-12 1.19914e-12 -1.38285e-12 0 1.6461e-15
1548 16 0.001 0.00572328 -0.00398185 -0.0478966 -1.54346e-12 9.29008e-13 -1.35274e-12 0 1.36029e-15
1549 16 0.001 0.00669206 -0.00397982 -0.0481405 -1.47254e-12 6.77502e-13 -1.29139e-12 0 9.02291e-16
1550 16 0.001 0.00762569 -0.00374043 -0.0484032 -1.38776e-12 4.26385e-13 -1.13322e-12 0 4.18924e-16
1551 16 0.001 0.00846585 -0.00328018 -0.0486866 -1.22543e-12 2.1028e-13 -9.34796e-13 0 9.682e-17
1943 18 0.001 0.02478 -0.00374504 -0.0476683 -1.43784e-12 1.19827e-12 -1.37759e-12 0 1.6461e-15
1944 18 0.001 0.0257233 -0.00398185 -0.0478966 -1.49911e-12 9.20908e-13 -1.36382e-12 0 1.36029e-15
1945 18 0.001 0.0266921 -0.00397982 -0.0481405 -1.53279e-12 6.86504e-13 -1.27633e-12 0 9.02291e-16
1946 18 0.001 0.0276257 -0.00374043 -0.0484032 -1.35815e-12 4.19272e-13 -1.14046e-12 0 4.18924e-16
1947 18 0.001 0.0284658 -0.00328018 -0.0486866 -1.2158e-12 2.14404e-13 -9.35965e-13 0 9.682e-17
378 11 0.001 -0.0560787 -0.00328313 -0.0474509 -1.35644e-12 1.4289e-12 -1.30414e-12 0 1.69161e-15
754 12 0.001 -0.0360787 -0.00328313 -0.0474509 -1.27156e-12 1.41873e-12 -1.3092e-12 0 1.6921e-15
1150 14 0.001 -0.0160787 -0.00328313 -0.0474509 -1.2996e-12 1.41813e-12 -1.30069e-12 0 1.6921e-15
1546 16 0.001 0.00392126 -0.00328313 -0.0474509 -1.30804e-12 1.41207e-12 -1.29999e-12 0 1.6921e-15
1942 18 0.001 0.0239213 -0.00328313 -0.0474509 -1.30155e-12 1.42379e-12 -1.29996e-12 0 1.6921e-15
376 11 0.001 -0.0573368 -0.00180905 -0.0470282 -8.6819e-13 1.72981e-12 -9.54929e-13 0 1.19321e-15
377 11 0.001 -0.0567993 -0.00262425 -0.0472393 -1.0584e-12 1.62432e-12 -1.16805e-12 0 1.51471e-15
753 12 0.001 -0.0367993 -0.00262426 -0.0472393 -1.08963e-12 1.61819e-12 -1.15437e-12 0 1.51544e-15
752 12 0.001 -0.0373368 -0.00180906 -0.0470282 -8.21364e-13 1.70808e-12 -9.51409e-13 0 1.19404e-15
1149 14 0.001 -0.0167993 -0.00262426 -0.0472393 -1.09973e-12 1.6141e-12 -1.15467e-12 0 1.51544e-15
1148 14 0.001 -0.0173368 -0.00180906 -0.0470282 -8.16198e-13 1.71561e-12 -9.51053e-13 0 1.19404e-15
1544 16 0.001 0.00266324 -0.00180906 -0.0470282 -8.19471e-13 1.71648e-12 -9.49915e-13 0 1.19404e-15
1545 16 0.001 0.00320074 -0.00262426 -0.0472393 -1.0879e-12 1.61804e-12 -1.156e-12 0 1.51544e-15
1941 18 0.001 0.0232007 -0.00262426 -0.0472393 -1.0903e-12 1.60807e-12 -1.15704e-12 0 1.51544e-15
1940 18 0.001 0.0226632 -0.00180906 -0.0470282 -8.18756e-13 1.71812e-12 -9.50088e-13 0 1.19404e-15
375 11 0.001 -0.0576581 -0.000888038 -0.0468127 -4.72912e-13 1.79394e-12 -6.98032e-13 0 8.26672e-16
751 12 0.001 -0.0376581 -0.000888045 -0.0468127 -5.15999e-13 1.75676e-12 -6.9969e-13 0 8.27488e-16
1147 14 0.001 -0.0176581 -0.000888045 -0.0468127 -5.10805e-13 1.75682e-12 -6.99474e-13 0 8.27488e-16
1543 16 0.001 0.00234188 -0.000888045 -0.0468127 -5.23294e-13 1.75794e-12 -6.99708e-13 0 8.27488e-16
1939 18 0.001 0.0223419 -0.000888045 -0.0468127 -5.18707e-13 1.75572e-12 -7.00114e-13 0 8.27488e-16
373 11 0.001 -0.0575896 0.00104019 -0.0463529 1.77526e-13 1.60555e-12 -1.62526e-13 0 2.59095e-16
374 11 0.001 -0.0577439 8.17113e-05 -0.0465885 -2.89972e-13 1.72137e-12 -4.40844e-13 0 4.99498e-16
749 12 0.001 -0.0375896 0.00104018 -0.0463529 8.43525e-14 1.58996e-12 -1.70864e-13 0 2.59633e-16
750 12 0.001 -0.0377439 8.17038e-05 -0.0465885 -2.2038e-13 1.73167e-12 -4.25855e-13 0 5.00202e-16
1145 14 0.001 -0.0175896 0.00104018 -0.0463529 7.89919e-14 1.5899e-12 -1.72238e-13 0 2.59633e-16
1146 14 0.001 -0.0177439 8.17038e-05 -0.0465885 -2.25676e-13 1.73053e-12 -4.26332e-13 0 5.00202e-16
1541 16 0.001 0.00241043 0.00104018 -0.0463529 8.20751e-14 1.59318e-12 -1.70252e-13 0 2.59633e-16
1542 16 0.001 0.00225608 8.17038e-05 -0.0465885 -2.10208e-13 1.72842e-12 -4.26197e-13 0 5.00202e-16
1937 18 0.001 0.0224104 0.00104018 -0.0463529 7.26746e-14 1.59328e-12 -1.71465e-13 0 2.59633e-16
1938 18 0.001 0.0222561 8.17038e-05 -0.0465885 -2.08608e-13 1.72912e-12 -4.25633e-13 0 5.00202e-16
372 11 0.001 -0.0572054 0.00192823 -0.0461042 3.34214e-13 1.44775e-12 6.20236e-14 0 1.13061e-16
748 12 0.001 -0.0372054 0.00192822 -0.0461042 3.84375e-13 1.43472e-12 6.9103e-14 0 1.13425e-16
1144 14 0.001 -0.0172054 0.00192822 -0.0461042 4.06552e-13 1.42981e-12 7.30346e-14 0 1.13425e-16
1540 16 0.001 0.00279458 0.00192822 -0.0461042 3.95136e-13 1.42447e-12 6.9839e-14 0 1.13425e-16
1936 18 0.001 0.0227946 0.00192822 -0.0461042 4.06404e-13 1.422e-12 7.18692e-14 0 1.13425e-16
371 11 0.001 -0.0566161 0.00269118 -0.0458424 6.43172e-13 1.14702e-12 2.3012e-13 0 4.12287e-17
747 12 0.001 -0.0366161 0.00269117 -0.0458424 6.3485e-13 1.13053e-12 2.34803e-13 0 4.14476e-17
1143 14 0.001 -0.0166161 0.00269117 -0.0458424 6.04075e-13 1.13548e-12 2.27561e-13 0 4.14476e-17
1539 16 0.001 0.00338394 0.00269117 -0.0458424 6.03377e-13 1.14259e-12 2.29072e-13 0 4.14476e-17
1935 18 0.001 0.0233839 0.00269117 -0.0458424 5.77977e-13 1.14565e-12 2.22296e-13 0 4.14476e-17
370 11 0.001 -0.0558587 0.00328221 -0.0455684 8.12879e-13 8.49931e-13 3.3228e-13 0 1.38793e-17
369 11 0.001 -0.0549808 0.00366514 -0.0452844 1.00196e-12 5.0987e-13 3.65891e-13 0 7.32168e-18
368 11 0.001 -0.0540372 0.00381661 -0.0449933 1.00501e-12 1.42879e-13 2.88627e-13 0 1.13281e-17
367 11 0.001 -0.0530869 0.00372751 -0.0446982 1.05403e-12 -2.16784e-13 1.82324e-13 0 2.75354e-17
745 12 0.001 -0.0349808 0.00366514 -0.0452844 9.67569e-13 5.052e-13 3.61085e-13 0 7.40873e-18
746 12 0.001 -0.0358587 0.00328221 -0.0455684 7.78513e-13 8.4831e-13 3.25411e-13 0 1.4004e-17
744 12 0.001 -0.0340372 0.00381661 -0.0449933 1.04619e-12 1.42068e-13 3.05241e-13 0 1.14235e-17
743 12 0.001 -0.0330869 0.00372751 -0.0446982 9.8989e-13 -2.30602e-13 1.73716e-13 0 2.76638e-17
1142 14 0.001 -0.0158587 0.00328221 -0.0455684 8.07463e-13 8.49801e-13 3.3404e-13 0 1.4004e-17
1140 14 0.001 -0.0140372 0.00381661 -0.0449933 1.03259e-12 1.4241e-13 3.01975e-13 0 1.14235e-17
1141 14 0.001 -0.0149808 0.00366514 -0.0452844 9.57919e-13 4.9864e-13 3.57734e-13 0 7.40873e-18
1139 14 0.001 -0.0130869 0.00372751 -0.0446982 1.00968e-12 -2.12166e-13 1.76254e-13 0 2.76638e-17
1538 16 0.001 0.00414132 0.00328221 -0.0455684 8.14831e-13 8.4141e-13 3.34052e-13 0 1.4004e-17
1537 16 0.001 0.00501924 0.00366514 -0.0452844 9.59403e-13 5.05234e-13 3.59223e-13 0 7.40873e-18
1536 16 0.001 0.00596281 0.00381661 -0.0449933 1.02264e-12 1.42061e-13 2.98287e-13 0 1.14235e-17
1535 16 0.001 0.00691308 0.00372751 -0.0446982 1.01826e-12 -2.16259e-13 1.80187e-13 0 2.76638e-17
1933 18 0.001 0.0250192 0.00366514 -0.0452844 9.50034e-13 5.09083e-13 3.55837e-13 0 7.40873e-18
1934 18 0.001 0.0241413 0.00328221 -0.0455684 8.4547e-13 8.39767e-13 3.43209e-13 0 1.4004e-17
1932 18 0.001 0.0259628 0.00381661 -0.0449933 1.02527e-12 1.40335e-13 2.99396e-13 0 1.14235e-17
1931 18 0.001 0.0269131 0.00372751 -0.0446982 1.00694e-12 -2.17896e-13 1.76823e-13 0 2.76638e-17
361 11 0.001 -0.0501683 -0.000609096 -0.0429908 -3.23241e-13 -1.39514e-12 -7.28937e-13 0 3.18748e-16
737 12 0.001 -0.0301683 -0.000609088 -0.0429908 -2.0118e-13 -1.37389e-12 -7.26585e-13 0 3.1884e-16
1133 14 0.001 -0.0101683 -0.000609088 -0.0429908 -2.17629e-13 -1.36922e-12 -7.28247e-13 0 3.1884e-16
1529 16 0.001 0.00983165 -0.000609088 -0.0429908 -2.15762e-13 -1.37177e-12 -7.28171e-13 0 3.1884e-16
1925 18 0.001 0.0298317 -0.000609088 -0.0429908 -2.01884e-13 -1.37441e-12 -7.27158e-13 0 3.1884e-16
362 11 0.001 -0.0501342 0.000352274 -0.0432603 2.06643e-13 -1.3775e-12 -6.66951e-13 0 2.99713e-16
363 11 0.001 -0.0503396 0.00129011 -0.0435366 2.81783e-13 -1.30882e-12 -5.49603e-13 0 2.50914e-16
738 12 0.001 -0.0301342 0.000352282 -0.0432603 4.07841e-14 -1.38828e-12 -6.62448e-13 0 2.99833e-16
739 12 0.001 -0.0303396 0.00129012 -0.0435366 3.77031e-13 -1.27499e-12 -5.46494e-13 0 2.51066e-16
1134 14 0.001 -0.0101342 0.000352282 -0.0432603 7.89677e-14 -1.38572e-12 -6.60397e-13 0 2.99833e-16
1135 14 0.001 -0.0103396 0.00129012 -0.0435366 3.40696e-13 -1.28527e-12 -5.47648e-13 0 2.51066e-16
1530 16 0.001 0.00986575 0.000352282 -0.0432603 8.44673e-14 -1.3847e-12 -6.60391e-13 0 2.99833e-16
1531 16 0.001 0.00966042 0.00129012 -0.0435366 3.38571e-13 -1.28466e-12 -5.4764e-13 0 2.51066e-16
1926 18 0.001 0.0298658 0.000352282 -0.0432603 5.8953e-14 -1.38551e-12 -6.61661e-13 0 2.99833e-16
1927 18 0.001 0.0296604 0.00129012 -0.0435366 3.58701e-13 -1.28236e-12 -5.46607e-13 0 2.51066e-16
365 11 0.001 -0.0514008 0.00286504 -0.0441088 8.61566e-13 -8.69044e-13 -1.76048e-13 0 1.1643e-16
364 11 0.001 -0.050771 0.00214556 -0.0438196 6.11173e-13 -1.12159e-12 -3.88511e-13 0 1.84268e-16
740 12 0.001 -0.030771 0.00214557 -0.0438196 5.99362e-13 -1.10389e-12 -3.8272e-13 0 1.84445e-16
741 12 0.001 -0.0314009 0.00286504 -0.0441088 7.81836e-13 -8.84021e-13 -1.84996e-13 0 1.16611e-16
1136 14 0.001 -0.010771 0.00214557 -0.0438196 6.03768e-13 -1.10035e-12 -3.83602e-13 0 1.84445e-16
1137 14 0.001 -0.0114009 0.00286504 -0.0441088 8.02221e-13 -8.64992e-13 -1.84345e-13 0 1.16611e-16
1533 16 0.001 0.00859915 0.00286504 -0.0441088 8.08962e-13 -8.64767e-13 -1.81263e-13 0 1.16611e-16
1532 16 0.001 0.00922904 0.00214557 -0.0438196 6.01799e-13 -1.10272e-12 -3.84221e-13 0 1.84445e-16
1928 18 0.001 0.029229 0.00214557 -0.0438196 5.89948e-13 -1.1e-12 -3.86425e-13 0 1.84445e-16
1929 18 0.001 0.0285991 0.00286504 -0.0441088 8.18021e-13 -8.69542e-13 -1.78777e-13 0 1.16611e-16
366 11 0.001 -0.0521894 0.00340357 -0.0444024 9.12994e-13 -5.72617e-13 -1.00248e-14 0 6.19216e-17
742 12 0.001 -0.0321894 0.00340357 -0.0444024 9.76886e-13 -5.3661e-13 5.05762e-15 0 6.20847e-17
1138 14 0.001 -0.0121894 0.00340357 -0.0444024 9.54719e-13 -5.67894e-13 5.15312e-15 0 6.20847e-17
1534 16 0.001 0.00781062 0.00340357 -0.0444024 9.45421e-13 -5.6459e-13 3.85884e-16 0 6.20847e-17
1930 18 0.001 0.0278106 0.00340357 -0.0444024 9.49561e-13 -5.62596e-13 1.9966e-15 0 6.20847e-17
355 11 0.001 -0.0543405 -0.00384403 -0.0414512 -1.04858e-12 -5.0196e-15 -1.90433e-13 0 9.12288e-17
356 11 0.001 -0.0533752 -0.00380988 -0.041706 -1.11145e-12 -3.39228e-13 -2.94528e-13 0 1.19888e-16
357 11 0.001 -0.0524479 -0.00353808 -0.0419597 -1.0477e-12 -6.3672e-13 -4.32181e-13 0 1.624e-16
358 11 0.001 -0.0516166 -0.00304556 -0.0422134 -9.35179e-13 -8.90127e-13 -5.67398e-13 0 2.14374e-16
731 12 0.001 -0.0343405 -0.00384404 -0.0414512 -1.06651e-12 -2.33372e-14 -1.76414e-13 0 9.13876e-17
732 12 0.001 -0.0333752 -0.00380988 -0.041706 -1.06465e-12 -3.13254e-13 -3.01199e-13 0 1.20028e-16
733 12 0.001 -0.0324479 -0.00353808 -0.0419597 -1.02688e-12 -6.34842e-13 -4.30417e-13 0 1.62519e-16
734 12 0.001 -0.0316166 -0.00304555 -0.0422134 -9.14994e-13 -8.98703e-13 -5.58393e-13 0 2.14472e-16
1127 14 0.001 -0.0143405 -0.00384404 -0.0414512 -1.07086e-12 -8.26701e-15 -1.76434e-13 0 9.13876e-17
1128 14 0.001 -0.0133752 -0.00380988 -0.041706 -1.08702e-12 -3.27918e-13 -2.94318e-13 0 1.20028e-16
1129 14 0.001 -0.0124479 -0.00353808 -0.0419597 -1.01902e-12 -6.26741e-13 -4.3329e-13 0 1.62519e-16
1130 14 0.001 -0.0116166 -0.00304555 -0.0422134 -9.12713e-13 -9.0113e-13 -5.58709e-13 0 2.14472e-16
1523 16 0.001 0.00565946 -0.00384404 -0.0414512 -1.07432e-12 -4.13715e-15 -1.73499e-13 0 9.13876e-17
1524 16 0.001 0.00662483 -0.00380988 -0.041706 -1.07466e-12 -3.30904e-13 -2.98537e-13 0 1.20028e-16
1525 16 0.001 0.00755208 -0.00353808 -0.0419597 -1.03197e-12 -6.25835e-13 -4.29633e-13 0 1.62519e-16
1526 16 0.001 0.00838338 -0.00304555 -0.0422134 -9.19114e-13 -9.01553e-13 -5.58165e-13 0 2.14472e-16
1919 18 0.001 0.0256595 -0.00384404 -0.0414512 -1.09417e-12 -1.56605e-14 -1.68885e-13 0 9.13876e-17
1920 18 0.001 0.0266248 -0.00380988 -0.041706 -1.0637e-12 -3.20616e-13 -3.01573e-13 0 1.20028e-16
1921 18 0.001 0.0275521 -0.00353808 -0.0419597 -1.04441e-12 -6.40681e-13 -4.25202e-13 0 1.62519e-16
1922 18 0.001 0.0283834 -0.00304555 -0.0422134 -9.24483e-13 -8.90056e-13 -5.59067e-13 0 2.14472e-16
359 11 0.001 -0.0509332 -0.00236313 -0.0424688 -6.99441e-13 -1.15468e-12 -6.66482e-13 0 2.66386e-16
360 11 0.001 -0.0504402 -0.0015336 -0.0427274 -4.89838e-13 -1.30138e-12 -7.28086e-13 0 3.05369e-16
735 12 0.001 -0.0309332 -0.00236312 -0.0424688 -7.4531e-13 -1.13782e-12 -6.6021e-13 0 2.66469e-16
736 12 0.001 -0.0304402 -0.00153359 -0.0427274 -4.85285e-13 -1.28856e-12 -7.24905e-13 0 3.05448e-16
1131 14 0.001 -0.0109332 -0.00236312 -0.0424688 -7.39938e-13 -1.13197e-12 -6.62072e-13 0 2.66469e-16
1132 14 0.001 -0.0104402 -0.00153359 -0.0427274 -4.87405e-13 -1.29677e-12 -7.22369e-13 0 3.05448e-16
1527 16 0.001 0.00906682 -0.00236312 -0.0424688 -7.16737e-13 -1.134e-12 -6.64788e-13 0 2.66469e-16
1528 16 0.001 0.00955979 -0.00153359 -0.0427274 -5.03869e-13 -1.29231e-12 -7.21515e-13 0 3.05448e-16
1923 18 0.001 0.0290668 -0.00236312 -0.0424688 -7.01532e-13 -1.13922e-12 -6.66304e-13 0 2.66469e-16
1924 18 0.001 0.0295598 -0.00153359 -0.0427274 -5.12047e-13 -1.28753e-12 -7.21817e-13 0 3.05448e-16
353 11 0.001 -0.0561464 -0.00320632 -0.040935 -8.32286e-13 5.58661e-13 -6.65439e-14 0 7.68726e-17
354 11 0.001 -0.0552838 -0.00363853 -0.0411944 -9.9405e-13 2.97539e-13 -9.32982e-14 0 7.70704e-17
729 12 0.001 -0.0361464 -0.00320632 -0.040935 -7.61839e-13 5.57863e-13 -7.34037e-14 0 7.70889e-17
730 12 0.001 -0.0352838 -0.00363853 -0.0411944 -9.91199e-13 2.87304e-13 -8.88007e-14 0 7.72524e-17
1125 14 0.001 -0.0161464 -0.00320632 -0.040935 -8.28584e-13 5.65658e-13 -5.87203e-14 0 7.70889e-17
1126 14 0.001 -0.0152838 -0.00363853 -0.0411944 -9.38216e-13 2.72648e-13 -1.01216e-13 0 7.72524e-17
1521 16 0.001 0.00385364 -0.00320632 -0.040935 -7.96345e-13 5.6526e-13 -6.48137e-14 0 7.70889e-17
1522 16 0.001 0.00471616 -0.00363853 -0.0411944 -9.56209e-13 2.7198e-13 -9.85018e-14 0 7.72524e-17
1917 18 0.001 0.0238536 -0.00320632 -0.040935 -8.32699e-13 5.5383e-13 -5.66849e-14 0 7.70889e-17
1918 18 0.001 0.0247162 -0.00363853 -0.0411944 -9.1594e-13 2.86804e-13 -1.07698e-13 0 7.72524e-17
351 11 0.001 -0.057423 -0.00178241 -0.0404089 -4.21211e-13 9.97579e-13 -1.25928e-13 0 1.20844e-16
352 11 0.001 -0.0568745 -0.00257446 -0.0406731 -5.61857e-13 8.29027e-13 -7.72731e-14 0 9.09489e-17
727 12 0.001 -0.037423 -0.00178242 -0.0404089 -2.80586e-13 9.97323e-13 -1.33379e-13 0 1.21183e-16
728 12 0.001 -0.0368745 -0.00257447 -0.0406731 -6.56919e-13 8.13348e-13 -5.50666e-14 0 9.1217e-17
1123 14 0.001 -0.017423 -0.00178242 -0.0404089 -3.53781e-13 9.89875e-13 -1.26922e-13 0 1.21183e-16
1124 14 0.001 -0.0168745 -0.00257447 -0.0406731 -5.94964e-13 8.17363e-13 -6.44674e-14 0 9.1217e-17
1519 16 0.001 0.00257699 -0.00178242 -0.0404089 -3.45571e-13 9.91531e-13 -1.28127e-13 0 1.21183e-16
1520 16 0.001 0.0031255 -0.00257447 -0.0406731 -6.1938e-13 8.13852e-13 -6.09535e-14 0 9.1217e-17
1915 18 0.001 0.022577 -0.00178242 -0.0404089 -3.41305e-13 9.86478e-13 -1.29245e-13 0 1.21183e-16
1916 18 0.001 0.0231255 -0.00257447 -0.0406731 -6.09512e-13 8.22943e-13 -6.27982e-14 0 9.1217e-17
350 11 0.001 -0.0577579 -0.000879562 -0.0401429 5.3491e-17 1.14228e-12 -2.24305e-13 0 1.67992e-16
726 12 0.001 -0.0377579 -0.000879573 -0.0401429 -1.45388e-13 1.10931e-12 -2.15005e-13 0 1.68417e-16
1122 14 0.001 -0.0177579 -0.000879573 -0.0401429 -7.33541e-14 1.11444e-12 -2.18408e-13 0 1.68417e-16
1518 16 0.001 0.00224212 -0.000879573 -0.0401429 -6.32924e-14 1.11209e-12 -2.19066e-13 0 1.68417e-16
1914 18 0.001 0.0222421 -0.000879573 -0.0401429 -5.7862e-14 1.11345e-12 -2.18647e-13 0 1.68417e-16
348 11 0.001 -0.0577182 0.00103009 -0.0396083 5.77241e-13 1.17353e-12 -4.38177e-13 0 3.06903e-16
349 11 0.001 -0.0578583 7.78249e-05 -0.0398759 1.6083e-13 1.19608e-12 -3.28407e-13 0 2.31574e-16
724 12 0.001 -0.0377182 0.00103008 -0.0396083 4.57821e-13 1.16361e-12 -4.37651e-13 0 3.07509e-16
725 12 0.001 -0.0378583 7.78138e-05 -0.0398759 2.98143e-13 1.1759e-12 -3.24419e-13 0 2.32093e-16
1120 14 0.001 -0.0177182 0.00103008 -0.0396083 5.0616e-13 1.15993e-12 -4.35094e-13 0 3.07509e-16
1121 14 0.001 -0.0178583 7.78138e-05 -0.0398759 2.42233e-13 1.17838e-12 -3.23768e-13 0 2.32093e-16
1516 16 0.001 0.00228182 0.00103008 -0.0396083 5.11145e-13 1.1582e-12 -4.3591e-13 0 3.07509e-16
1517 16 0.001 0.00214166 7.78138e-05 -0.0398759 2.25717e-13 1.18177e-12 -3.22964e-13 0 2.32093e-16
1912 18 0.001 0.0222818 0.00103008 -0.0396083 5.4016e-13 1.15569e-12 -4.34063e-13 0 3.07509e-16
1913 18 0.001 0.0221417 7.78138e-05 -0.0398759 2.06703e-13 1.18084e-12 -3.23717e-13 0 2.32093e-16
347 11 0.001 -0.0573461 0.00191785 -0.039341 7.40918e-13 1.09036e-12 -5.37763e-13 0 3.85338e-16
346 11 0.001 -0.0567654 0.00268573 -0.0390743 1.08826e-12 9.33008e-13 -5.78592e-13 0 4.55972e-16
722 12 0.001 -0.0367654 0.00268572 -0.0390743 9.89058e-13 9.28858e-13 -5.8817e-13 0 4.567e-16
723 12 0.001 -0.0373461 0.00191784 -0.039341 8.14149e-13 1.06755e-12 -5.24747e-13 0 3.86016e-16
1118 14 0.001 -0.0167654 0.00268572 -0.0390743 1.01297e-12 9.25249e-13 -5.83806e-13 0 4.567e-16
1119 14 0.001 -0.0173461 0.00191784 -0.039341 7.8079e-13 1.06864e-12 -5.28609e-13 0 3.86016e-16
1515 16 0.001 0.00265386 0.00191784 -0.039341 7.88213e-13 1.07066e-12 -5.26809e-13 0 3.86016e-16
1514 16 0.001 0.00323458 0.00268572 -0.0390743 1.00718e-12 9.20789e-13 -5.85626e-13 0 4.567e-16
1910 18 0.001 0.0232346 0.00268572 -0.0390743 1.01988e-12 9.15326e-13 -5.84799e-13 0 4.567e-16
1911 18 0.001 0.0226539 0.00191784 -0.039341 7.62075e-13 1.0789e-12 -5.28263e-13 0 3.86016e-16
345 11 0.001 -0.0560122 0.00328576 -0.0388084 1.11368e-12 7.12881e-13 -6.29131e-13 0 5.08464e-16
344 11 0.001 -0.0551335 0.00368042 -0.0385435 1.33332e-12 4.66867e-13 -5.78093e-13 0 5.35868e-16
721 12 0.001 -0.0360122 0.00328575 -0.0388084 1.21629e-12 7.00036e-13 -5.976e-13 0 5.09217e-16
720 12 0.001 -0.0351335 0.00368042 -0.0385435 1.23064e-12 4.73715e-13 -5.92365e-13 0 5.36626e-16
1117 14 0.001 -0.0160122 0.00328575 -0.0388084 1.17969e-12 7.0999e-13 -6.0533e-13 0 5.09217e-16
1116 14 0.001 -0.0151335 0.00368042 -0.0385435 1.27171e-12 4.60191e-13 -5.83357e-13 0 5.36626e-16
1513 16 0.001 0.00398778 0.00328575 -0.0388084 1.18045e-12 7.16325e-13 -6.04096e-13 0 5.09217e-16
1512 16 0.001 0.00486646 0.00368042 -0.0385435 1.27175e-12 4.54843e-13 -5.83998e-13 0 5.36626e-16
1909 18 0.001 0.0239878 0.00328575 -0.0388084 1.1781e-12 7.14286e-13 -6.04768e-13 0 5.09217e-16
1908 18 0.001 0.0248665 0.00368042 -0.0385435 1.25798e-12 4.56447e-13 -5.87818e-13 0 5.36626e-16
338 11 0.001 -0.0504011 0.00136909 -0.0369616 5.00208e-13 -8.32208e-13 -6.92009e-14 0 3.41346e-16
714 12 0.001 -0.0304011 0.0013691 -0.0369616 4.52958e-13 -8.46328e-13 -5.76773e-14 0 3.42001e-16
1110 14 0.001 -0.0104011 0.0013691 -0.0369616 4.7261e-13 -8.4379e-13 -5.6862e-14 0 3.42001e-16
1506 16 0.001 0.0095989 0.0013691 -0.0369616 4.73579e-13 -8.44099e-13 -5.70865e-14 0 3.42001e-16
1902 18 0.001 0.0295989 0.0013691 -0.0369616 4.74968e-13 -8.42954e-13 -5.72253e-14 0 3.42001e-16
340 11 0.001 -0.0515052 0.00292997 -0.0374895 1.03189e-12 -5.41063e-13 -2.05089e-13 0 4.272e-16
339 11 0.001 -0.0508549 0.00221896 -0.0372258 6.73839e-13 -7.58968e-13 -1.27155e-13 0 3.80878e-16
716 12 0.001 -0.0315052 0.00292998 -0.0374895 9.29291e-13 -5.32648e-13 -2.1792e-13 0 4.27881e-16
715 12 0.001 -0.0308549 0.00221897 -0.0372258 7.31943e-13 -7.23299e-13 -1.17885e-13 0 3.81542e-16
1111 14 0.001 -0.0108549 0.00221897 -0.0372258 7.21329e-13 -7.2652e-13 -1.18744e-13 0 3.81542e-16
1112 14 0.001 -0.0115052 0.00292998 -0.0374895 9.46482e-13 -5.26668e-13 -2.15135e-13 0 4.27881e-16
1508 16 0.001 0.00849475 0.00292998 -0.0374895 9.45593e-13 -5.32423e-13 -2.14383e-13 0 4.27881e-16
1507 16 0.001 0.00914511 0.00221897 -0.0372258 7.23676e-13 -7.23372e-13 -1.18913e-13 0 3.81542e-16
1904 18 0.001 0.0284948 0.00292998 -0.0374895 9.55733e-13 -5.26315e-13 -2.13246e-13 0 4.27881e-16
1903 18 0.001 0.0291451 0.00221897 -0.0372258 7.18898e-13 -7.282e-13 -1.18895e-13 0 3.81542e-16
343 11 0.001 -0.0541842 0.00384502 -0.0382795 1.32806e-12 1.9519e-13 -5.19175e-13 0 5.36379e-16
342 11 0.001 -0.0532236 0.00376921 -0.038016 1.2686e-12 -7.64977e-14 -4.30325e-13 0 5.13395e-16
341 11 0.001 -0.0523116 0.00345771 -0.0377528 1.1205e-12 -3.37874e-13 -3.26526e-13 0 4.74092e-16
719 12 0.001 -0.0341842 0.00384502 -0.0382795 1.34226e-12 1.8654e-13 -5.07643e-13 0 5.37125e-16
718 12 0.001 -0.0332236 0.00376921 -0.038016 1.22407e-12 -7.91861e-14 -4.31053e-13 0 5.14121e-16
717 12 0.001 -0.0323116 0.00345772 -0.0377528 1.16472e-12 -3.21603e-13 -3.09349e-13 0 4.74795e-16
1115 14 0.001 -0.0141842 0.00384502 -0.0382795 1.30506e-12 1.90644e-13 -5.16869e-13 0 5.37125e-16
1113 14 0.001 -0.0123116 0.00345772 -0.0377528 1.13742e-12 -3.29215e-13 -3.1491e-13 0 4.74795e-16
1114 14 0.001 -0.0132236 0.00376921 -0.038016 1.25623e-12 -7.31353e-14 -4.23395e-13 0 5.14121e-16
1511 16 0.001 0.00581578 0.00384502 -0.0382795 1.30787e-12 1.94591e-13 -5.15875e-13 0 5.37125e-16
1510 16 0.001 0.00677643 0.00376921 -0.038016 1.25444e-12 -7.66425e-14 -4.2372e-13 0 5.14121e-16
1509 16 0.001 0.00768841 0.00345772 -0.0377528 1.13613e-12 -3.23708e-13 -3.15956e-13 0 4.74795e-16
1907 18 0.001 0.0258158 0.00384502 -0.0382795 1.333e-12 1.88287e-13 -5.08369e-13 0 5.37125e-16
1906 18 0.001 0.0267764 0.00376921 -0.038016 1.23944e-12 -6.34665e-14 -4.28968e-13 0 5.14121e-16
1905 18 0.001 0.0276884 0.00345772 -0.0377528 1.13436e-12 -3.35544e-13 -3.14773e-13 0 4.74795e-16
333 11 0.001 -0.0515674 -0.00299558 -0.0356319 -8.57635e-13 -5.44303e-13 -2.79135e-13 0 3.18886e-16
334 11 0.001 -0.0509024 -0.00229929 -0.0358985 -6.09479e-13 -7.27593e-13 -1.93505e-13 0 3.00267e-16
709 12 0.001 -0.0315673 -0.00299557 -0.0356319 -8.5338e-13 -5.32301e-13 -2.70381e-13 0 3.19664e-16
710 12 0.001 -0.0309024 -0.00229927 -0.0358985 -6.38038e-13 -7.18963e-13 -1.78374e-13 0 3.00997e-16
1105 14 0.001 -0.0115673 -0.00299557 -0.0356319 -8.49249e-13 -5.25548e-13 -2.71655e-13 0 3.19664e-16
1106 14 0.001 -0.0109024 -0.00229927 -0.0358985 -6.15502e-13 -7.2286e-13 -1.81018e-13 0 3.00997e-16
1501 16 0.001 0.00843266 -0.00299557 -0.0356319 -8.30279e-13 -5.30536e-13 -2.77186e-13 0 3.19664e-16
1502 16 0.001 0.00909758 -0.00229927 -0.0358985 -6.29161e-13 -7.27455e-13 -1.76122e-13 0 3.00997e-16
1897 18 0.001 0.0284327 -0.00299557 -0.0356319 -8.55184e-13 -5.32136e-13 -2.69213e-13 0 3.19664e-16
1898 18 0.001 0.0290976 -0.00229927 -0.0358985 -6.28737e-13 -7.19477e-13 -1.80423e-13 0 3.00997e-16
335 11 0.001 -0.050431 -0.00145982 -0.036165 -4.13913e-13 -8.72094e-13 -9.59734e-14 0 2.92135e-16
336 11 0.001 -0.0501824 -0.000529556 -0.0364311 -1.30342e-13 -8.89083e-13 -7.13066e-14 0 2.95956e-16
711 12 0.001 -0.0304309 -0.0014598 -0.036165 -3.6773e-13 -8.45548e-13 -1.0221e-13 0 2.92828e-16
712 12 0.001 -0.0301823 -0.000529542 -0.0364311 -1.33977e-13 -8.69781e-13 -6.05152e-14 0 2.96624e-16
1107 14 0.001 -0.0104309 -0.0014598 -0.036165 -4.1344e-13 -8.43117e-13 -9.8737e-14 0 2.92828e-16
1108 14 0.001 -0.0101823 -0.000529542 -0.0364311 -8.4774e-14 -8.69443e-13 -6.25672e-14 0 2.96624e-16
1503 16 0.001 0.00956905 -0.0014598 -0.036165 -4.08383e-13 -8.40103e-13 -1.00448e-13 0 2.92828e-16
1504 16 0.001 0.00981765 -0.000529542 -0.0364311 -8.39419e-14 -8.67764e-13 -6.31358e-14 0 2.96624e-16
1899 18 0.001 0.0295691 -0.0014598 -0.036165 -3.82654e-13 -8.42595e-13 -1.01821e-13 0 2.92828e-16
1900 18 0.001 0.0298177 -0.000529542 -0.0364311 -1.00855e-13 -8.70542e-13 -6.07155e-14 0 2.96624e-16
337 11 0.001 -0.0501722 0.000433448 -0.0366967 1.91797e-13 -9.2032e-13 -3.7273e-14 0 3.12451e-16
713 12 0.001 -0.0301722 0.000433462 -0.0366967 2.05456e-13 -8.91732e-13 -3.82614e-14 0 3.13106e-16
1109 14 0.001 -0.0101722 0.000433462 -0.0366967 1.71291e-13 -8.94657e-13 -3.80348e-14 0 3.13106e-16
1505 16 0.001 0.00982783 0.000433462 -0.0366967 1.67546e-13 -8.9634e-13 -3.7404e-14 0 3.13106e-16
1901 18 0.001 0.0298278 0.000433462 -0.0366967 1.66993e-13 -8.92554e-13 -3.88745e-14 0 3.13106e-16
328 11 0.001 -0.0560784 -0.00325127 -0.0343038 -9.99061e-13 5.97345e-13 -4.81699e-13 0 4.75747e-16
329 11 0.001 -0.0552086 -0.00366539 -0.0345684 -1.0561e-12 3.93075e-13 -5.10097e-13 0 4.46371e-16
330 11 0.001 -0.0542635 -0.00385096 -0.0348336 -1.18507e-12 1.47122e-13 -4.68838e-13 0 4.12906e-16
331 11 0.001 -0.053302 -0.00379643 -0.0350992 -1.06773e-12 -1.02204e-13 -4.48057e-13 0 3.78268e-16
332 11 0.001 -0.0523842 -0.00350523 -0.0353654 -1.04788e-12 -3.42514e-13 -3.53567e-13 0 3.45828e-16
704 12 0.001 -0.0360784 -0.00325128 -0.0343038 -9.39831e-13 5.8138e-13 -4.83552e-13 0 4.76817e-16
705 12 0.001 -0.0352086 -0.0036654 -0.0345684 -1.08022e-12 3.78353e-13 -4.94742e-13 0 4.47387e-16
706 12 0.001 -0.0342635 -0.00385096 -0.0348335 -1.14653e-12 1.5295e-13 -4.65363e-13 0 4.13863e-16
707 12 0.001 -0.033302 -0.00379643 -0.0350992 -1.07609e-12 -1.01797e-13 -4.35213e-13 0 3.79163e-16
708 12 0.001 -0.0323842 -0.00350523 -0.0353654 -9.75035e-13 -3.33581e-13 -3.60087e-13 0 3.46663e-16
1100 14 0.001 -0.0160784 -0.00325128 -0.0343038 -9.63603e-13 5.98332e-13 -4.75644e-13 0 4.76817e-16
1101 14 0.001 -0.0152086 -0.0036654 -0.0345684 -1.07702e-12 3.80134e-13 -4.95057e-13 0 4.47387e-16
1102 14 0.001 -0.0142635 -0.00385096 -0.0348335 -1.09924e-12 1.46378e-13 -4.78796e-13 0 4.13863e-16
1104 14 0.001 -0.0123842 -0.00350523 -0.0353654 -9.95005e-13 -3.40069e-13 -3.54888e-13 0 3.46663e-16
1103 14 0.001 -0.013302 -0.00379643 -0.0350992 -1.08842e-12 -1.03136e-13 -4.31644e-13 0 3.79164e-16
1496 16 0.001 0.00392159 -0.00325128 -0.0343038 -9.67858e-13 5.89641e-13 -4.76104e-13 0 4.76817e-16
1497 16 0.001 0.00479137 -0.0036654 -0.0345684 -1.06497e-12 3.84431e-13 -4.97643e-13 0 4.47387e-16
1498 16 0.001 0.00573651 -0.00385096 -0.0348335 -1.11782e-12 1.4814e-13 -4.73421e-13 0 4.13863e-16
1499 16 0.001 0.00669799 -0.00379643 -0.0350992 -1.07691e-12 -1.08967e-13 -4.35412e-13 0 3.79163e-16
1500 16 0.001 0.00761581 -0.00350523 -0.0353654 -1.00996e-12 -3.29216e-13 -3.5062e-13 0 3.46663e-16
1892 18 0.001 0.0239216 -0.00325128 -0.0343038 -9.62469e-13 5.84346e-13 -4.78016e-13 0 4.76817e-16
1893 18 0.001 0.0247914 -0.0036654 -0.0345684 -1.06146e-12 3.87323e-13 -4.98276e-13 0 4.47387e-16
1894 18 0.001 0.0257365 -0.00385096 -0.0348335 -1.12461e-12 1.46706e-13 -4.72305e-13 0 4.13863e-16
1895 18 0.001 0.026698 -0.00379643 -0.0350992 -1.08205e-12 -1.08006e-13 -4.32917e-13 0 3.79163e-16
1896 18 0.001 0.0276158 -0.00350523 -0.0353654 -9.88616e-13 -3.32716e-13 -3.57119e-13 0 3.46663e-16
327 11 0.001 -0.0568185 -0.00263441 -0.0340397 -7.90654e-13 7.87499e-13 -4.45281e-13 0 4.99057e-16
703 12 0.001 -0.0368185 -0.00263443 -0.0340397 -7.77432e-13 7.67602e-13 -4.39127e-13 0 5.00178e-16
1099 14 0.001 -0.0168185 -0.00263443 -0.0340397 -8.0141e-13 7.66493e-13 -4.33562e-13 0 5.00178e-16