ITEM: TIMESTEP
3600000
ITEM: NUMBER OF ATOMS
1970
ITEM: BOX BOUNDS ff ff ff
-6.0000000000000005e-02 6.0000000000000005e-02
-6.0000000000000001e-03 6.0000000000000001e-03
-5.5000000000000000e-02 5.5000000000000000e-02
ITEM: ATOMS id type radius x y z fx fy fz c_bendingE c_stretchingE
384 11 0.001 -0.050857 -0.00262552 -0.0489949 -1.6391e-12 5.23341e-14 -1.36976e-12 0 3.32385e-16
385 11 0.001 -0.0503461 -0.00182913 -0.0493154 -1.12411e-12 -1.10628e-13 -9.12993e-13 0 6.1494e-15
760 12 0.001 -0.030857 -0.00262552 -0.0489949 -1.64627e-12 5.90609e-14 -1.37045e-12 0 3.32388e-16
761 12 0.001 -0.0303461 -0.00182913 -0.0493154 -1.13629e-12 -1.16434e-13 -9.10411e-13 0 6.14939e-15
1156 14 0.001 -0.010857 -0.00262552 -0.0489949 -1.62345e-12 6.10106e-14 -1.3743e-12 0 3.32388e-16
1157 14 0.001 -0.0103461 -0.00182913 -0.0493154 -1.14582e-12 -1.18278e-13 -9.08696e-13 0 6.14939e-15
1552 16 0.001 0.00914299 -0.00262552 -0.0489949 -1.62099e-12 5.78235e-14 -1.3739e-12 0 3.32388e-16
1553 16 0.001 0.00965388 -0.00182913 -0.0493154 -1.14391e-12 -1.1689e-13 -9.09197e-13 0 6.14939e-15
1948 18 0.001 0.029143 -0.00262552 -0.0489949 -1.62047e-12 6.03702e-14 -1.37454e-12 0 3.32388e-16
1949 18 0.001 0.0296539 -0.00182913 -0.0493154 -1.14037e-12 -1.15317e-13 -9.09935e-13 0 6.14939e-15
2 2 0.001 -0.05 -4.31175e-17 -0.05 -5.04418e-06 6.56845e-06 1.88072e-06 0 4.22204e-15
386 11 0.001 -0.0500546 -0.000934876 -0.0496521 -5.93634e-13 -1.22593e-13 -4.47866e-13 0 1.00591e-14
762 12 0.001 -0.0300546 -0.000934876 -0.0496521 -5.80173e-13 -1.18738e-13 -4.4952e-13 0 1.00591e-14
4 4 0.001 -0.03 -4.31175e-17 -0.05 -5.04418e-06 6.56846e-06 1.88072e-06 0 4.22203e-15
6 6 0.001 -0.01 -4.31175e-17 -0.05 -5.04418e-06 6.56846e-06 1.88072e-06 0 4.22203e-15
1158 14 0.001 -0.0100546 -0.000934876 -0.0496521 -5.79419e-13 -1.18142e-13 -4.49785e-13 0 1.00591e-14
8 8 0.001 0.01 -4.31175e-17 -0.05 -5.04418e-06 6.56846e-06 1.88072e-06 0 4.22203e-15
1554 16 0.001 0.00994544 -0.000934876 -0.0496521 -5.80673e-13 -1.16913e-13 -4.5018e-13 0 1.00591e-14
10 10 0.001 0.03 -4.31175e-17 -0.05 -5.04418e-06 6.56846e-06 1.88072e-06 0 4.22203e-15
1950 18 0.001 0.0299454 -0.000934876 -0.0496521 -5.85012e-13 -1.18427e-13 -4.49611e-13 0 1.00591e-14
378 11 0.001 -0.0561036 -0.00325254 -0.0474696 -2.09931e-12 2.35491e-12 -2.21965e-12 0 2.33978e-15
379 11 0.001 -0.0552471 -0.00371882 -0.0476863 -2.38896e-12 1.95801e-12 -2.38973e-12 0 2.18807e-15
380 11 0.001 -0.0543046 -0.0039605 -0.0479128 -2.48717e-12 1.52386e-12 -2.43597e-12 0 1.71672e-15
381 11 0.001 -0.0533351 -0.00396347 -0.048154 -2.49248e-12 1.08392e-12 -2.32899e-12 0 1.04291e-15
382 11 0.001 -0.0523994 -0.00372882 -0.0484136 -2.31922e-12 6.61466e-13 -2.10622e-12 0 4.00972e-16
383 11 0.001 -0.0515559 -0.00327278 -0.0486937 -2.04306e-12 3.07103e-13 -1.77321e-12 0 8.18481e-17
754 12 0.001 -0.0361036 -0.00325254 -0.0474696 -2.04668e-12 2.34683e-12 -2.23244e-12 0 2.33978e-15
755 12 0.001 -0.0352471 -0.00371882 -0.0476863 -2.39755e-12 1.94585e-12 -2.38908e-12 0 2.18807e-15
756 12 0.001 -0.0343046 -0.0039605 -0.0479128 -2.46669e-12 1.52147e-12 -2.4389e-12 0 1.71672e-15
757 12 0.001 -0.0333351 -0.00396347 -0.048154 -2.53753e-12 1.09833e-12 -2.31952e-12 0 1.04291e-15
758 12 0.001 -0.0323994 -0.00372882 -0.0484136 -2.31265e-12 6.51077e-13 -2.10799e-12 0 4.0097e-16
759 12 0.001 -0.0315559 -0.00327278 -0.0486937 -2.02013e-12 3.06883e-13 -1.77558e-12 0 8.18479e-17
1151 14 0.001 -0.0152471 -0.00371882 -0.0476863 -2.39336e-12 1.97305e-12 -2.38444e-12 0 2.18807e-15
1150 14 0.001 -0.0161036 -0.00325254 -0.0474696 -2.0892e-12 2.32828e-12 -2.22874e-12 0 2.33978e-15
1152 14 0.001 -0.0143046 -0.0039605 -0.0479128 -2.49547e-12 1.5184e-12 -2.43636e-12 0 1.71672e-15
1153 14 0.001 -0.0133351 -0.00396347 -0.048154 -2.4774e-12 1.08343e-12 -2.33008e-12 0 1.04291e-15
1154 14 0.001 -0.0123994 -0.00372882 -0.0484136 -2.33486e-12 6.6542e-13 -2.10513e-12 0 4.0097e-16
1155 14 0.001 -0.0115559 -0.00327278 -0.0486937 -2.0389e-12 3.00428e-13 -1.77151e-12 0 8.18479e-17
1546 16 0.001 0.0038964 -0.00325254 -0.0474696 -2.10201e-12 2.32639e-12 -2.22691e-12 0 2.33978e-15
1547 16 0.001 0.00475293 -0.00371882 -0.0476863 -2.37808e-12 1.96898e-12 -2.38792e-12 0 2.18807e-15
1548 16 0.001 0.00569543 -0.0039605 -0.0479128 -2.50035e-12 1.51908e-12 -2.43504e-12 0 1.71672e-15
1549 16 0.001 0.00666489 -0.00396347 -0.048154 -2.48722e-12 1.08818e-12 -2.32847e-12 0 1.04291e-15
1550 16 0.001 0.00760061 -0.00372882 -0.0484136 -2.32339e-12 6.59223e-13 -2.10649e-12 0 4.0097e-16
1551 16 0.001 0.00844414 -0.00327278 -0.0486937 -2.04711e-12 3.04618e-13 -1.77091e-12 0 8.18479e-17
1942 18 0.001 0.0238964 -0.00325254 -0.0474696 -2.11744e-12 2.32625e-12 -2.22387e-12 0 2.33978e-15
1943 18 0.001 0.0247529 -0.00371882 -0.0476863 -2.35625e-12 1.96253e-12 -2.39405e-12 0 2.18807e-15
1944 18 0.001 0.0256954 -0.0039605 -0.0479128 -2.52789e-12 1.5237e-12 -2.42649e-12 0 1.71672e-15
1945 18 0.001 0.0266649 -0.00396347 -0.048154 -2.46436e-12 1.08902e-12 -2.33539e-12 0 1.04291e-15
1946 18 0.001 0.0276006 -0.00372882 -0.0484136 -2.33268e-12 6.62831e-13 -2.10452e-12 0 4.0097e-16
1947 18 0.001 0.0284441 -0.00327278 -0.0486937 -2.04836e-12 2.98016e-13 -1.76948e-12 0 8.18479e-17
376 11 0.001 -0.0573538 -0.00177258 -0.0470442 -1.27341e-12 2.84533e-12 -1.52851e-12 0 1.80288e-15
377 11 0.001 -0.0568207 -0.00259014 -0.0472574 -1.75992e-12 2.62079e-12 -1.92899e-12 0 2.17931e-15
753 12 0.001 -0.0368207 -0.00259014 -0.0472574 -1.8088e-12 2.6531e-12 -1.91139e-12 0 2.17931e-15
752 12 0.001 -0.0373538 -0.00177258 -0.0470442 -1.26956e-12 2.80818e-12 -1.54211e-12 0 1.80288e-15
1149 14 0.001 -0.0168207 -0.00259014 -0.0472574 -1.76291e-12 2.65888e-12 -1.9174e-12 0 2.17931e-15
1148 14 0.001 -0.0173538 -0.00177258 -0.0470442 -1.28081e-12 2.80198e-12 -1.53988e-12 0 1.80288e-15
1544 16 0.001 0.00264624 -0.00177258 -0.0470442 -1.27049e-12 2.80385e-12 -1.53914e-12 0 1.80288e-15
1545 16 0.001 0.00317932 -0.00259014 -0.0472574 -1.75446e-12 2.66261e-12 -1.91823e-12 0 2.17931e-15
1941 18 0.001 0.0231793 -0.00259014 -0.0472574 -1.73648e-12 2.66448e-12 -1.92015e-12 0 2.17931e-15
1940 18 0.001 0.0226462 -0.00177258 -0.0470442 -1.29782e-12 2.79977e-12 -1.5386e-12 0 1.80288e-15
375 11 0.001 -0.0576701 -0.000850594 -0.0468254 -7.60849e-13 2.86747e-12 -1.0949e-12 0 1.33985e-15
751 12 0.001 -0.0376701 -0.000850594 -0.0468254 -7.35425e-13 2.90438e-12 -1.08246e-12 0 1.33985e-15
1147 14 0.001 -0.0176701 -0.000850594 -0.0468254 -7.44577e-13 2.89277e-12 -1.08878e-12 0 1.33985e-15
1543 16 0.001 0.00232993 -0.000850594 -0.0468254 -7.78175e-13 2.89276e-12 -1.08897e-12 0 1.33985e-15
1939 18 0.001 0.0223299 -0.000850594 -0.0468254 -7.39775e-13 2.89606e-12 -1.08822e-12 0 1.33985e-15
373 11 0.001 -0.057591 0.00107506 -0.0463566 2.97521e-13 2.60715e-12 -2.02613e-13 0 5.58581e-16
374 11 0.001 -0.0577506 0.00011862 -0.046597 -2.49076e-13 2.81573e-12 -6.27445e-13 0 9.02664e-16
749 12 0.001 -0.037591 0.00107506 -0.0463566 3.21369e-13 2.59993e-12 -2.02326e-13 0 5.58583e-16
750 12 0.001 -0.0377506 0.00011862 -0.046597 -2.86365e-13 2.79507e-12 -6.35751e-13 0 9.02666e-16
1145 14 0.001 -0.017591 0.00107506 -0.0463566 2.96596e-13 2.59789e-12 -2.07588e-13 0 5.58583e-16
1146 14 0.001 -0.0177506 0.00011862 -0.046597 -2.6228e-13 2.81559e-12 -6.25945e-13 0 9.02666e-16
1541 16 0.001 0.00240897 0.00107506 -0.0463566 2.88031e-13 2.59887e-12 -2.07202e-13 0 5.58583e-16
1542 16 0.001 0.00224942 0.00011862 -0.046597 -2.32379e-13 2.81133e-12 -6.26053e-13 0 9.02666e-16
1937 18 0.001 0.022409 0.00107506 -0.0463566 3.15345e-13 2.59303e-12 -2.06204e-13 0 5.58583e-16
1938 18 0.001 0.0222494 0.00011862 -0.046597 -2.7128e-13 2.81584e-12 -6.26857e-13 0 9.02666e-16
372 11 0.001 -0.0572021 0.00195969 -0.0461032 7.78892e-13 2.25983e-12 1.41878e-13 0 3.26481e-16
748 12 0.001 -0.0372021 0.00195969 -0.0461032 7.6945e-13 2.26527e-12 1.4178e-13 0 3.26482e-16
1144 14 0.001 -0.0172021 0.00195969 -0.0461032 7.72456e-13 2.26285e-12 1.41693e-13 0 3.26482e-16
1540 16 0.001 0.00279786 0.00195969 -0.0461032 7.75606e-13 2.26528e-12 1.42289e-13 0 3.26482e-16
1936 18 0.001 0.0227979 0.00195969 -0.0461032 7.52512e-13 2.26715e-12 1.39199e-13 0 3.26482e-16
371 11 0.001 -0.0566088 0.00271803 -0.045837 1.16803e-12 1.83211e-12 3.73549e-13 0 1.91526e-16
747 12 0.001 -0.0366088 0.00271803 -0.045837 1.19381e-12 1.84357e-12 3.83437e-13 0 1.91527e-16
1143 14 0.001 -0.0166088 0.00271803 -0.045837 1.22408e-12 1.83864e-12 3.89933e-13 0 1.91527e-16
1539 16 0.001 0.00339125 0.00271803 -0.045837 1.21111e-12 1.83955e-12 3.87396e-13 0 1.91527e-16
1935 18 0.001 0.0233912 0.00271803 -0.045837 1.23745e-12 1.83781e-12 3.92515e-13 0 1.91527e-16
370 11 0.001 -0.0558483 0.00330351 -0.0455598 1.60806e-12 1.32081e-12 5.11808e-13 0 1.25925e-16
369 11 0.001 -0.0549683 0.00368023 -0.0452738 1.75442e-12 7.40862e-13 4.64407e-13 0 1.05468e-16
368 11 0.001 -0.0540239 0.00382514 -0.0449822 1.88124e-12 1.43378e-13 3.16832e-13 0 1.165e-16
367 11 0.001 -0.0530739 0.00372945 -0.0446882 1.94509e-12 -4.83587e-13 1.06762e-13 0 1.53712e-16
745 12 0.001 -0.0349683 0.00368023 -0.0452738 1.78718e-12 7.47904e-13 4.73454e-13 0 1.05469e-16
746 12 0.001 -0.0358483 0.00330351 -0.0455598 1.55849e-12 1.31017e-12 4.95483e-13 0 1.25926e-16
744 12 0.001 -0.0340239 0.00382514 -0.0449822 1.87701e-12 1.22829e-13 3.19153e-13 0 1.16501e-16
743 12 0.001 -0.0330739 0.00372945 -0.0446882 2.00488e-12 -4.5615e-13 1.19218e-13 0 1.53712e-16
1142 14 0.001 -0.0158483 0.00330351 -0.0455598 1.52235e-12 1.31464e-12 4.86762e-13 0 1.25926e-16
1140 14 0.001 -0.0140239 0.00382514 -0.0449822 1.89605e-12 1.30028e-13 3.23564e-13 0 1.16501e-16
1141 14 0.001 -0.0149683 0.00368023 -0.0452738 1.79744e-12 7.45587e-13 4.76373e-13 0 1.05469e-16
1139 14 0.001 -0.0130739 0.00372945 -0.0446882 1.90737e-12 -4.66338e-13 9.19598e-14 0 1.53712e-16
1538 16 0.001 0.00415173 0.00330351 -0.0455598 1.53894e-12 1.3146e-12 4.90661e-13 0 1.25926e-16
1537 16 0.001 0.00503169 0.00368023 -0.0452738 1.78644e-12 7.39898e-13 4.72992e-13 0 1.05469e-16
1536 16 0.001 0.00597613 0.00382514 -0.0449822 1.89993e-12 1.38161e-13 3.24895e-13 0 1.16501e-16
1535 16 0.001 0.00692609 0.00372945 -0.0446882 1.90667e-12 -4.73492e-13 9.1892e-14 0 1.53712e-16
1933 18 0.001 0.0250317 0.00368023 -0.0452738 1.80199e-12 7.42085e-13 4.77211e-13 0 1.05469e-16
1934 18 0.001 0.0241517 0.00330351 -0.0455598 1.51881e-12 1.31631e-12 4.86202e-13 0 1.25926e-16
1932 18 0.001 0.0259761 0.00382514 -0.0449822 1.88765e-12 1.31377e-13 3.21662e-13 0 1.16501e-16
1931 18 0.001 0.0269261 0.00372945 -0.0446882 1.9195e-12 -4.63541e-13 9.45967e-14 0 1.53712e-16
361 11 0.001 -0.0501773 -0.000630474 -0.0430024 -2.6757e-13 -2.30741e-12 -1.12745e-12 0 4.25175e-16
737 12 0.001 -0.0301773 -0.000630474 -0.0430024 -2.4402e-13 -2.30341e-12 -1.12956e-12 0 4.25174e-16
1133 14 0.001 -0.0101773 -0.000630474 -0.0430024 -2.51064e-13 -2.30127e-12 -1.1303e-12 0 4.25174e-16
1529 16 0.001 0.00982266 -0.000630474 -0.0430024 -2.49639e-13 -2.30179e-12 -1.13106e-12 0 4.25174e-16
1925 18 0.001 0.0298227 -0.000630474 -0.0430024 -2.46011e-13 -2.30611e-12 -1.12926e-12 0 4.25174e-16
362 11 0.001 -0.0501382 0.000331601 -0.0432686 2.95176e-13 -2.32091e-12 -1.11117e-12 0 4.36315e-16
363 11 0.001 -0.0503387 0.00127165 -0.0435409 6.6309e-13 -2.21911e-12 -9.95667e-13 0 4.12837e-16
738 12 0.001 -0.0301382 0.000331601 -0.0432686 2.28309e-13 -2.33725e-12 -1.11001e-12 0 4.36315e-16
739 12 0.001 -0.0303387 0.00127165 -0.0435409 7.65369e-13 -2.19795e-12 -9.89664e-13 0 4.12836e-16
1134 14 0.001 -0.0101382 0.000331601 -0.0432686 2.42674e-13 -2.33406e-12 -1.10951e-12 0 4.36315e-16
1135 14 0.001 -0.0103387 0.00127165 -0.0435409 7.44726e-13 -2.20221e-12 -9.9172e-13 0 4.12836e-16
1530 16 0.001 0.00986178 0.000331601 -0.0432686 2.47178e-13 -2.33305e-12 -1.1094e-12 0 4.36315e-16
1531 16 0.001 0.00966133 0.00127165 -0.0435409 7.38875e-13 -2.20718e-12 -9.91315e-13 0 4.12836e-16
1926 18 0.001 0.0298618 0.000331601 -0.0432686 2.34444e-13 -2.33197e-12 -1.11023e-12 0 4.36315e-16
1927 18 0.001 0.0296613 0.00127165 -0.0435409 7.48129e-13 -2.20615e-12 -9.90741e-13 0 4.12836e-16
365 11 0.001 -0.051392 0.00285498 -0.0441047 1.50172e-12 -1.54042e-12 -5.11493e-13 0 2.86371e-16
364 11 0.001 -0.0507657 0.00213071 -0.0438197 1.23348e-12 -1.91718e-12 -7.78565e-13 0 3.58562e-16
740 12 0.001 -0.0307657 0.00213071 -0.0438197 1.13461e-12 -1.93567e-12 -7.91648e-13 0 3.58562e-16
741 12 0.001 -0.031392 0.00285498 -0.0441047 1.59867e-12 -1.52471e-12 -4.90715e-13 0 2.86371e-16
1136 14 0.001 -0.0107657 0.00213071 -0.0438197 1.16781e-12 -1.93361e-12 -7.84063e-13 0 3.58562e-16
1137 14 0.001 -0.011392 0.00285498 -0.0441047 1.51496e-12 -1.5218e-12 -5.14591e-13 0 2.86371e-16
1533 16 0.001 0.00860804 0.00285498 -0.0441047 1.51207e-12 -1.52752e-12 -5.14094e-13 0 2.86371e-16
1532 16 0.001 0.00923433 0.00213071 -0.0438197 1.17478e-12 -1.92692e-12 -7.84226e-13 0 3.58562e-16
1928 18 0.001 0.0292343 0.00213071 -0.0438197 1.16115e-12 -1.92871e-12 -7.86505e-13 0 3.58562e-16
1929 18 0.001 0.028608 0.00285498 -0.0441047 1.53941e-12 -1.52531e-12 -5.07993e-13 0 2.86371e-16
366 11 0.001 -0.0521779 0.0033992 -0.0443948 1.78325e-12 -1.02149e-12 -2.04863e-13 0 2.13199e-16
742 12 0.001 -0.0321779 0.0033992 -0.0443948 1.6695e-12 -1.03995e-12 -2.32583e-13 0 2.132e-16
1138 14 0.001 -0.0121779 0.0033992 -0.0443948 1.81092e-12 -1.03972e-12 -1.91998e-13 0 2.132e-16
1534 16 0.001 0.00782213 0.0033992 -0.0443948 1.81032e-12 -1.03437e-12 -1.92633e-13 0 2.132e-16
1930 18 0.001 0.0278221 0.0033992 -0.0443948 1.78411e-12 -1.04143e-12 -1.98612e-13 0 2.132e-16
355 11 0.001 -0.054364 -0.00384484 -0.041459 -1.69642e-12 1.32988e-13 -2.12702e-13 0 1.91326e-16
356 11 0.001 -0.0533992 -0.0038157 -0.0417165 -1.77837e-12 -4.21101e-13 -3.13124e-13 0 1.99498e-16
357 11 0.001 -0.0524712 -0.00354873 -0.0419724 -1.68509e-12 -9.3483e-13 -4.98265e-13 0 2.28253e-16
358 11 0.001 -0.0516378 -0.0030605 -0.0422276 -1.40456e-12 -1.43378e-12 -7.06846e-13 0 2.7421e-16
731 12 0.001 -0.034364 -0.00384484 -0.041459 -1.72442e-12 1.2089e-13 -2.05008e-13 0 1.91326e-16
732 12 0.001 -0.0333992 -0.0038157 -0.0417165 -1.77473e-12 -4.04221e-13 -3.15451e-13 0 1.99498e-16
733 12 0.001 -0.0324712 -0.00354873 -0.0419724 -1.63582e-12 -9.51606e-13 -5.07472e-13 0 2.28253e-16
734 12 0.001 -0.0316378 -0.0030605 -0.0422276 -1.50349e-12 -1.42852e-12 -6.86463e-13 0 2.7421e-16
1127 14 0.001 -0.014364 -0.00384484 -0.041459 -1.72852e-12 1.27752e-13 -2.03611e-13 0 1.91326e-16
1128 14 0.001 -0.0133992 -0.0038157 -0.0417165 -1.76738e-12 -4.13489e-13 -3.17164e-13 0 1.99498e-16
1129 14 0.001 -0.0124712 -0.00354873 -0.0419724 -1.67122e-12 -9.45807e-13 -4.98388e-13 0 2.28253e-16
1130 14 0.001 -0.0116378 -0.0030605 -0.0422276 -1.4418e-12 -1.41968e-12 -7.03056e-13 0 2.7421e-16
1523 16 0.001 0.00563595 -0.00384484 -0.041459 -1.73559e-12 1.34224e-13 -2.01821e-13 0 1.91326e-16
1524 16 0.001 0.00660075 -0.0038157 -0.0417165 -1.76739e-12 -4.20395e-13 -3.16939e-13 0 1.99498e-16
1525 16 0.001 0.00752879 -0.00354873 -0.0419724 -1.66952e-12 -9.44139e-13 -4.9903e-13 0 2.28253e-16
1526 16 0.001 0.00836217 -0.0030605 -0.0422276 -1.45325e-12 -1.41941e-12 -7.00004e-13 0 2.7421e-16
1919 18 0.001 0.025636 -0.00384484 -0.041459 -1.73686e-12 1.34064e-13 -2.01432e-13 0 1.91326e-16
1920 18 0.001 0.0266008 -0.0038157 -0.0417165 -1.75722e-12 -4.19199e-13 -3.19529e-13 0 1.99498e-16
1921 18 0.001 0.0275288 -0.00354873 -0.0419724 -1.67611e-12 -9.41639e-13 -4.97803e-13 0 2.28253e-16
1922 18 0.001 0.0283622 -0.0030605 -0.0422276 -1.45163e-12 -1.42725e-12 -6.98909e-13 0 2.7421e-16
359 11 0.001 -0.0509511 -0.00238147 -0.0424833 -1.1849e-12 -1.82857e-12 -8.92214e-13 0 3.30476e-16
360 11 0.001 -0.050454 -0.00155416 -0.0427411 -7.07068e-13 -2.13994e-12 -1.05111e-12 0 3.85591e-16
735 12 0.001 -0.0309511 -0.00238147 -0.0424833 -1.10734e-12 -1.83294e-12 -9.05828e-13 0 3.30475e-16
736 12 0.001 -0.030454 -0.00155416 -0.0427411 -7.33839e-13 -2.13094e-12 -1.04829e-12 0 3.8559e-16
1131 14 0.001 -0.0109511 -0.00238147 -0.0424833 -1.14782e-12 -1.83988e-12 -8.95503e-13 0 3.30475e-16
1132 14 0.001 -0.010454 -0.00155416 -0.0427411 -7.22083e-13 -2.1356e-12 -1.0492e-12 0 3.8559e-16
1527 16 0.001 0.00904886 -0.00238147 -0.0424833 -1.12743e-12 -1.83651e-12 -9.00753e-13 0 3.30475e-16
1528 16 0.001 0.00954601 -0.00155416 -0.0427411 -7.36026e-13 -2.13704e-12 -1.04613e-12 0 3.8559e-16
1923 18 0.001 0.0290489 -0.00238147 -0.0424833 -1.13829e-12 -1.83447e-12 -8.99591e-13 0 3.30475e-16
1924 18 0.001 0.029546 -0.00155416 -0.0427411 -7.23791e-13 -2.13109e-12 -1.0492e-12 0 3.8559e-16
353 11 0.001 -0.056165 -0.00319782 -0.0409375 -1.38872e-12 1.14093e-12 -1.82618e-13 0 2.45155e-16
354 11 0.001 -0.0553055 -0.00363447 -0.0411993 -1.61851e-12 6.53675e-13 -1.48302e-13 0 2.05806e-16
729 12 0.001 -0.036165 -0.00319782 -0.0409375 -1.38034e-12 1.13136e-12 -1.85682e-13 0 2.45155e-16
730 12 0.001 -0.0353055 -0.00363447 -0.0411993 -1.59675e-12 6.64981e-13 -1.53024e-13 0 2.05806e-16
1125 14 0.001 -0.016165 -0.00319782 -0.0409375 -1.36277e-12 1.15013e-12 -1.85616e-13 0 2.45155e-16
1126 14 0.001 -0.0153055 -0.00363447 -0.0411993 -1.59752e-12 6.51323e-13 -1.54629e-13 0 2.05806e-16
1521 16 0.001 0.00383497 -0.00319782 -0.0409375 -1.36871e-12 1.14297e-12 -1.86226e-13 0 2.45155e-16
1522 16 0.001 0.00469449 -0.00363447 -0.0411993 -1.58921e-12 6.50381e-13 -1.56425e-13 0 2.05806e-16
1917 18 0.001 0.023835 -0.00319782 -0.0409375 -1.37378e-12 1.14849e-12 -1.84313e-13 0 2.45155e-16
1918 18 0.001 0.0246945 -0.00363447 -0.0411993 -1.58891e-12 6.47422e-13 -1.568e-13 0 2.05806e-16
351 11 0.001 -0.057433 -0.00176729 -0.0404083 -6.79704e-13 1.87666e-12 -4.46859e-13 0 4.04273e-16
352 11 0.001 -0.0568892 -0.00256221 -0.0406736 -9.53487e-13 1.56583e-12 -3.04105e-13 0 3.11368e-16
727 12 0.001 -0.037433 -0.00176729 -0.0404083 -6.43897e-13 1.89456e-12 -4.45835e-13 0 4.04274e-16
728 12 0.001 -0.0368892 -0.00256221 -0.0406736 -9.69067e-13 1.55795e-12 -3.02449e-13 0 3.11369e-16
1123 14 0.001 -0.017433 -0.00176729 -0.0404083 -5.65857e-13 1.88769e-12 -4.55997e-13 0 4.04274e-16
1124 14 0.001 -0.0168892 -0.00256221 -0.0406736 -1.02436e-12 1.551e-12 -2.95915e-13 0 3.11369e-16
1519 16 0.001 0.00256702 -0.00176729 -0.0404083 -6.06038e-13 1.88489e-12 -4.52454e-13 0 4.04274e-16
1520 16 0.001 0.00311081 -0.00256221 -0.0406736 -9.99623e-13 1.55993e-12 -2.96996e-13 0 3.11369e-16
1915 18 0.001 0.022567 -0.00176729 -0.0404083 -6.02465e-13 1.88703e-12 -4.52145e-13 0 4.04274e-16
1916 18 0.001 0.0231108 -0.00256221 -0.0406736 -9.96876e-13 1.55241e-12 -2.99257e-13 0 3.11369e-16
350 11 0.001 -0.0577626 -0.000862598 -0.040142 -4.31778e-14 2.09398e-12 -6.42131e-13 0 5.1926e-16
726 12 0.001 -0.0377626 -0.000862598 -0.040142 -1.09017e-13 2.07975e-12 -6.4213e-13 0 5.19261e-16
1122 14 0.001 -0.0177626 -0.000862598 -0.040142 -1.58634e-13 2.08421e-12 -6.37223e-13 0 5.19261e-16
1518 16 0.001 0.00223739 -0.000862598 -0.040142 -1.37489e-13 2.08777e-12 -6.38401e-13 0 5.19261e-16
1914 18 0.001 0.0222374 -0.000862598 -0.040142 -1.36054e-13 2.08887e-12 -6.37789e-13 0 5.19261e-16
348 11 0.001 -0.057712 0.00104727 -0.0396091 8.47742e-13 2.14584e-12 -9.43121e-13 0 7.70611e-16
349 11 0.001 -0.0578576 9.5491e-05 -0.0398754 2.9295e-13 2.18486e-12 -8.08278e-13 0 6.46219e-16
724 12 0.001 -0.037712 0.00104727 -0.0396091 8.71315e-13 2.13643e-12 -9.41043e-13 0 7.70612e-16
725 12 0.001 -0.0378576 9.5491e-05 -0.0398754 3.35271e-13 2.19748e-12 -8.06752e-13 0 6.4622e-16
1120 14 0.001 -0.017712 0.00104727 -0.0396091 8.33395e-13 2.13164e-12 -9.47329e-13 0 7.70612e-16
1121 14 0.001 -0.0178576 9.5491e-05 -0.0398754 3.55499e-13 2.19577e-12 -8.06443e-13 0 6.4622e-16
1516 16 0.001 0.002288 0.00104727 -0.0396091 8.3021e-13 2.13736e-12 -9.46375e-13 0 7.70612e-16
1517 16 0.001 0.00214242 9.5491e-05 -0.0398754 3.60815e-13 2.18951e-12 -8.07178e-13 0 6.4622e-16
1912 18 0.001 0.022288 0.00104727 -0.0396091 8.33696e-13 2.1362e-12 -9.46332e-13 0 7.70612e-16
1913 18 0.001 0.0221424 9.5491e-05 -0.0398754 3.48313e-13 2.19109e-12 -8.07354e-13 0 6.4622e-16
347 11 0.001 -0.0573349 0.00193337 -0.0393433 1.28541e-12 1.95713e-12 -1.02216e-12 0 8.76557e-16
346 11 0.001 -0.0567498 0.00269849 -0.0390783 1.63111e-12 1.68902e-12 -1.02033e-12 0 9.50811e-16
722 12 0.001 -0.0367498 0.00269849 -0.0390783 1.66792e-12 1.67364e-12 -1.01761e-12 0 9.50812e-16
723 12 0.001 -0.0373349 0.00193337 -0.0393433 1.22739e-12 1.96646e-12 -1.02747e-12 0 8.76558e-16
1118 14 0.001 -0.0167498 0.00269849 -0.0390783 1.63653e-12 1.67439e-12 -1.02383e-12 0 9.50812e-16
1119 14 0.001 -0.0173349 0.00193337 -0.0393433 1.28216e-12 1.97531e-12 -1.01683e-12 0 8.76558e-16
1515 16 0.001 0.0026651 0.00193337 -0.0393433 1.26989e-12 1.97102e-12 -1.01909e-12 0 8.76558e-16
1514 16 0.001 0.00325023 0.00269849 -0.0390783 1.64917e-12 1.67541e-12 -1.02186e-12 0 9.50812e-16
1910 18 0.001 0.0232502 0.00269849 -0.0390783 1.63745e-12 1.68619e-12 -1.02137e-12 0 9.50812e-16
1911 18 0.001 0.0226651 0.00193337 -0.0393433 1.28277e-12 1.9676e-12 -1.01844e-12 0 8.76558e-16
345 11 0.001 -0.0559931 0.00329485 -0.0388141 1.90932e-12 1.29854e-12 -9.50577e-13 0 9.86114e-16
344 11 0.001 -0.0551121 0.00368518 -0.0385504 2.06704e-12 8.46468e-13 -8.16959e-13 0 9.8269e-16
720 12 0.001 -0.0351121 0.00368518 -0.0385504 2.07579e-12 8.39405e-13 -8.15604e-13 0 9.82691e-16
721 12 0.001 -0.0359931 0.00329485 -0.0388141 1.88634e-12 1.30787e-12 -9.53322e-13 0 9.86115e-16
1117 14 0.001 -0.0159931 0.00329485 -0.0388141 1.89972e-12 1.30335e-12 -9.50001e-13 0 9.86115e-16
1116 14 0.001 -0.0151121 0.00368518 -0.0385504 2.06267e-12 8.43329e-13 -8.19363e-13 0 9.82691e-16
1513 16 0.001 0.0040069 0.00329485 -0.0388141 1.9035e-12 1.30456e-12 -9.48611e-13 0 9.86115e-16
1512 16 0.001 0.00488789 0.00368518 -0.0385504 2.05545e-12 8.40987e-13 -8.21348e-13 0 9.82691e-16
1908 18 0.001 0.0248879 0.00368518 -0.0385504 2.05694e-12 8.49064e-13 -8.20363e-13 0 9.82691e-16
1909 18 0.001 0.0240069 0.00329485 -0.0388141 1.90913e-12 1.29558e-12 -9.48937e-13 0 9.86115e-16
338 11 0.001 -0.0503916 0.0013512 -0.0369659 6.12107e-13 -1.49563e-12 -1.06159e-13 0 6.88166e-16
714 12 0.001 -0.0303916 0.0013512 -0.0369659 6.21869e-13 -1.50876e-12 -9.93145e-14 0 6.88167e-16
1110 14 0.001 -0.0103916 0.0013512 -0.0369659 6.39059e-13 -1.5085e-12 -9.74721e-14 0 6.88167e-16
1506 16 0.001 0.00960841 0.0013512 -0.0369659 6.35927e-13 -1.50755e-12 -9.79314e-14 0 6.88167e-16
1902 18 0.001 0.0296084 0.0013512 -0.0369659 6.24433e-13 -1.51094e-12 -9.75137e-14 0 6.88167e-16
340 11 0.001 -0.0514876 0.00291702 -0.0374961 1.4609e-12 -9.49699e-13 -1.71275e-13 0 7.68227e-16
339 11 0.001 -0.050841 0.00220302 -0.0372313 1.10462e-12 -1.27274e-12 -9.75502e-14 0 7.19778e-16
715 12 0.001 -0.030841 0.00220302 -0.0372313 1.09876e-12 -1.24767e-12 -1.04376e-13 0 7.19779e-16
716 12 0.001 -0.0314876 0.00291702 -0.0374961 1.42333e-12 -9.55981e-13 -1.76938e-13 0 7.68228e-16
1111 14 0.001 -0.010841 0.00220302 -0.0372313 1.06362e-12 -1.25036e-12 -1.11383e-13 0 7.19779e-16
1112 14 0.001 -0.0114876 0.00291702 -0.0374961 1.48401e-12 -9.59732e-13 -1.61941e-13 0 7.68228e-16
1508 16 0.001 0.00851243 0.00291702 -0.0374961 1.4689e-12 -9.5408e-13 -1.6569e-13 0 7.68228e-16
1507 16 0.001 0.00915904 0.00220302 -0.0372313 1.07163e-12 -1.25045e-12 -1.10119e-13 0 7.19779e-16
1903 18 0.001 0.029159 0.00220302 -0.0372313 1.06555e-12 -1.24548e-12 -1.12382e-13 0 7.19779e-16
1904 18 0.001 0.0285124 0.00291702 -0.0374961 1.47618e-12 -9.56868e-13 -1.64071e-13 0 7.68228e-16
343 11 0.001 -0.0541618 0.00384507 -0.0382871 2.08592e-12 3.73442e-13 -6.45863e-13 0 9.47518e-16
342 11 0.001 -0.0532015 0.00376453 -0.0380238 1.98362e-12 -1.08573e-13 -4.65094e-13 0 8.91896e-16
341 11 0.001 -0.0522911 0.0034486 -0.0377602 1.76153e-12 -5.48751e-13 -2.9849e-13 0 8.2839e-16
719 12 0.001 -0.0341618 0.00384507 -0.0382871 2.09608e-12 3.76584e-13 -6.42724e-13 0 9.47518e-16
718 12 0.001 -0.0332015 0.00376453 -0.0380238 1.95946e-12 -1.0545e-13 -4.69977e-13 0 8.91897e-16
717 12 0.001 -0.0322911 0.0034486 -0.0377602 1.80858e-12 -5.51178e-13 -2.88058e-13 0 8.28391e-16
1115 14 0.001 -0.0141618 0.00384507 -0.0382871 2.09123e-12 3.76656e-13 -6.44253e-13 0 9.47518e-16
1113 14 0.001 -0.0122911 0.0034486 -0.0377602 1.76961e-12 -5.51497e-13 -2.98238e-13 0 8.28391e-16
1114 14 0.001 -0.0132015 0.00376453 -0.0380238 1.97795e-12 -1.0761e-13 -4.64474e-13 0 8.91897e-16
1511 16 0.001 0.00583822 0.00384507 -0.0382871 2.08032e-12 3.7828e-13 -6.46986e-13 0 9.47518e-16
1510 16 0.001 0.00679854 0.00376453 -0.0380238 1.99633e-12 -1.0762e-13 -4.59888e-13 0 8.91897e-16
1509 16 0.001 0.00770888 0.0034486 -0.0377602 1.77033e-12 -5.5668e-13 -2.97735e-13 0 8.28391e-16
1907 18 0.001 0.0258382 0.00384507 -0.0382871 2.06342e-12 3.70444e-13 -6.51734e-13 0 9.47518e-16
1906 18 0.001 0.0267985 0.00376453 -0.0380238 2.01462e-12 -1.07301e-13 -4.549e-13 0 8.91897e-16
1905 18 0.001 0.0277089 0.0034486 -0.0377602 1.7632e-12 -5.5375e-13 -2.99674e-13 0 8.28391e-16
333 11 0.001 -0.0515801 -0.00300678 -0.0356336 -1.56449e-12 -1.0723e-12 -6.94992e-13 0 7.91146e-16
709 12 0.001 -0.0315801 -0.00300678 -0.0356336 -1.49134e-12 -1.04679e-12 -7.17764e-13 0 7.91148e-16
1105 14 0.001 -0.0115801 -0.00300678 -0.0356336 -1.53419e-12 -1.05199e-12 -7.08231e-13 0 7.91148e-16
1501 16 0.001 0.0084199 -0.00300678 -0.0356336 -1.55639e-12 -1.0435e-12 -7.05639e-13 0 7.91148e-16
1897 18 0.001 0.0284199 -0.00300678 -0.0356336 -1.54066e-12 -1.04376e-12 -7.08998e-13 0 7.91148e-16
334 11 0.001 -0.0509116 -0.00231382 -0.0359 -1.2238e-12 -1.33998e-12 -5.74515e-13 0 7.43564e-16
710 12 0.001 -0.0309116 -0.00231382 -0.0359 -1.22598e-12 -1.34592e-12 -5.69115e-13 0 7.43565e-16
1106 14 0.001 -0.0109116 -0.00231382 -0.0359 -1.23766e-12 -1.34184e-12 -5.69086e-13 0 7.43565e-16
1502 16 0.001 0.00908838 -0.00231382 -0.0359 -1.20948e-12 -1.35068e-12 -5.71775e-13 0 7.43565e-16
1898 18 0.001 0.0290884 -0.00231382 -0.0359 -1.20757e-12 -1.35015e-12 -5.71615e-13 0 7.43565e-16
335 11 0.001 -0.0504359 -0.00147681 -0.0361666 -7.78669e-13 -1.53675e-12 -4.29608e-13 0 7.05808e-16
336 11 0.001 -0.0501826 -0.000547977 -0.0364333 -3.49576e-13 -1.64589e-12 -2.78491e-13 0 6.82103e-16
711 12 0.001 -0.0304359 -0.00147681 -0.0361666 -8.35484e-13 -1.55621e-12 -4.1892e-13 0 7.05809e-16
712 12 0.001 -0.0301826 -0.000547977 -0.0364333 -3.20661e-13 -1.63818e-12 -2.82577e-13 0 6.82104e-16
1107 14 0.001 -0.0104359 -0.00147681 -0.0361666 -7.93283e-13 -1.55552e-12 -4.24011e-13 0 7.05809e-16
1108 14 0.001 -0.0101826 -0.000547977 -0.0364333 -3.29248e-13 -1.63894e-12 -2.80261e-13 0 6.82104e-16
1503 16 0.001 0.00956413 -0.00147681 -0.0361666 -8.08097e-13 -1.55092e-12 -4.22929e-13 0 7.05809e-16
1504 16 0.001 0.00981745 -0.000547977 -0.0364333 -3.30862e-13 -1.63864e-12 -2.80663e-13 0 6.82104e-16
1899 18 0.001 0.0295641 -0.00147681 -0.0361666 -8.20326e-13 -1.55306e-12 -4.21106e-13 0 7.05809e-16
1900 18 0.001 0.0298174 -0.000547977 -0.0364333 -3.3254e-13 -1.6379e-12 -2.81628e-13 0 6.82104e-16
337 11 0.001 -0.0501675 0.000414714 -0.0366998 1.61409e-13 -1.62104e-12 -1.67683e-13 0 6.75624e-16
713 12 0.001 -0.0301675 0.000414714 -0.0366998 1.64112e-13 -1.61998e-12 -1.6878e-13 0 6.75625e-16
1109 14 0.001 -0.0101675 0.000414714 -0.0366998 1.42983e-13 -1.61277e-12 -1.71387e-13 0 6.75625e-16
1505 16 0.001 0.00983253 0.000414714 -0.0366998 1.48418e-13 -1.61598e-12 -1.70541e-13 0 6.75625e-16
1901 18 0.001 0.0298325 0.000414714 -0.0366998 1.6747e-13 -1.61465e-12 -1.70074e-13 0 6.75625e-16
328 11 0.001 -0.0560935 -0.00324074 -0.0343091 -1.61294e-12 9.10799e-13 -6.48591e-13 0 1.02128e-15
329 11 0.001 -0.0552255 -0.00365897 -0.0345731 -1.84759e-12 5.23944e-13 -7.47713e-13 0 9.87211e-16
330 11 0.001 -0.054281 -0.00384906 -0.0348374 -1.94614e-12 1.43941e-13 -8.12357e-13 0 9.45218e-16
331 11 0.001 -0.0533191 -0.00379916 -0.0351023 -1.91534e-12 -2.9825e-13 -8.31754e-13 0 8.96452e-16
332 11 0.001 -0.0523996 -0.00351242 -0.0353677 -1.81294e-12 -6.96338e-13 -7.90609e-13 0 8.4372e-16
704 12 0.001 -0.0360935 -0.00324074 -0.0343091 -1.59077e-12 9.1615e-13 -6.55148e-13 0 1.02128e-15
705 12 0.001 -0.0352255 -0.00365897 -0.0345731 -1.83733e-12 5.26568e-13 -7.47038e-13 0 9.87213e-16
706 12 0.001 -0.034281 -0.00384906 -0.0348374 -1.94393e-12 1.32638e-13 -8.1377e-13 0 9.4522e-16
707 12 0.001 -0.0333191 -0.00379916 -0.0351023 -1.91732e-12 -2.91574e-13 -8.31997e-13 0 8.96454e-16
708 12 0.001 -0.0323996 -0.00351242 -0.0353677 -1.86099e-12 -7.04765e-13 -7.7504e-13 0 8.43721e-16
1100 14 0.001 -0.0160935 -0.00324074 -0.0343091 -1.63034e-12 9.06877e-13 -6.47991e-13 0 1.02128e-15
1101 14 0.001 -0.0152255 -0.00365897 -0.0345731 -1.84821e-12 5.37277e-13 -7.43391e-13 0 9.87213e-16
1102 14 0.001 -0.014281 -0.00384906 -0.0348374 -1.9441e-12 1.29184e-13 -8.12944e-13 0 9.4522e-16
1104 14 0.001 -0.0123996 -0.00351242 -0.0353677 -1.80999e-12 -7.07236e-13 -7.85804e-13 0 8.43721e-16
1103 14 0.001 -0.0133191 -0.00379916 -0.0351023 -1.93066e-12 -2.86579e-13 -8.29976e-13 0 8.96454e-16
1496 16 0.001 0.00390652 -0.00324074 -0.0343091 -1.62054e-12 9.07962e-13 -6.48793e-13 0 1.02128e-15
1497 16 0.001 0.00477451 -0.00365897 -0.0345731 -1.83537e-12 5.37451e-13 -7.46942e-13 0 9.87213e-16
1498 16 0.001 0.00571897 -0.00384906 -0.0348374 -1.9503e-12 1.30444e-13 -8.11585e-13 0 9.4522e-16
1499 16 0.001 0.00668093 -0.00379916 -0.0351023 -1.93361e-12 -2.90286e-13 -8.29069e-13 0 8.96454e-16
1500 16 0.001 0.00760037 -0.00351242 -0.0353677 -1.80348e-12 -7.09101e-13 -7.86557e-13 0 8.43721e-16
1892 18 0.001 0.0239065 -0.00324074 -0.0343091 -1.62448e-12 9.00981e-13 -6.49583e-13 0 1.02128e-15
1893 18 0.001 0.0247745 -0.00365897 -0.0345731 -1.84998e-12 5.42466e-13 -7.42321e-13 0 9.87213e-16
1894 18 0.001 0.025719 -0.00384906 -0.0348374 -1.93584e-12 1.28997e-13 -8.15602e-13 0 9.4522e-16
1895 18 0.001 0.0266809 -0.00379916 -0.0351023 -1.93314e-12 -2.89624e-13 -8.29009e-13 0 8.96454e-16
1896 18 0.001 0.0276004 -0.00351242 -0.0353677 -1.81781e-12 -7.09413e-13 -7.83493e-13 0 8.43721e-16
327 11 0.001 -0.0568308 -0.00262044 -0.0340454 -1.33781e-12 1.21408e-12 -5.2599e-13 0 1.0479e-15
703 12 0.001 -0.0368308 -0.00262044 -0.0340454 -1.39312e-12 1.20819e-12 -5.14394e-13 0 1.0479e-15
1099 14 0.001 -0.0168308 -0.00262044 -0.0340454 -1.31012e-12 1.2124e-12 -5.29402e-13 0 1.0479e-15