ITEM: TIMESTEP
9700000
ITEM: NUMBER OF ATOMS
1970
ITEM: BOX BOUNDS ff ff ff
-6.0000000000000005e-02 6.0000000000000005e-02
-6.0000000000000001e-03 6.0000000000000001e-03
-5.5000000000000000e-02 5.5000000000000000e-02
ITEM: ATOMS id type radius x y z fx fy fz c_bendingE c_stretchingE
384 11 0.001 -0.050808 -0.00264352 -0.0490015 -2.0892e-14 3.86799e-14 9.99008e-15 0 1.55687e-17
385 11 0.001 -0.0503123 -0.00183833 -0.0493238 -1.48414e-13 4.03554e-14 2.4979e-14 0 1.01405e-14
760 12 0.001 -0.0308068 -0.0026434 -0.0490002 -7.95446e-14 2.85224e-14 1.16803e-14 0 1.46638e-17
761 12 0.001 -0.0303114 -0.00183814 -0.049323 -8.31799e-14 7.00767e-14 -1.8013e-15 0 1.00116e-14
1156 14 0.001 -0.0108068 -0.0026434 -0.0490002 -1.16242e-13 2.77353e-14 1.62532e-14 0 1.46638e-17
1157 14 0.001 -0.0103114 -0.00183814 -0.049323 -6.54077e-14 6.35273e-14 -3.14136e-17 0 1.00116e-14
1552 16 0.001 0.00919315 -0.0026434 -0.0490002 -1.07299e-13 3.10976e-14 1.40511e-14 0 1.46638e-17
1553 16 0.001 0.00968855 -0.00183814 -0.049323 -7.24362e-14 6.1533e-14 1.29145e-15 0 1.00116e-14
1948 18 0.001 0.0291932 -0.0026434 -0.0490002 -1.17471e-13 1.96196e-14 1.968e-14 0 1.46638e-17
1949 18 0.001 0.0296886 -0.00183814 -0.049323 -6.71669e-14 7.08163e-14 -3.468e-15 0 1.00116e-14
2 2 0.001 -0.05 -4.31175e-17 -0.05 -2.02111e-06 2.1549e-06 1.78732e-06 0 9.265e-15
386 11 0.001 -0.0500373 -0.000938003 -0.0496583 -3.8718e-14 -2.54392e-14 2.58932e-14 0 1.94037e-14
762 12 0.001 -0.0300369 -0.000937851 -0.0496578 -4.28381e-14 -2.58623e-14 3.1307e-14 0 1.91266e-14
4 4 0.001 -0.03 -4.31175e-17 -0.05 -2.0686e-06 2.2523e-06 1.77129e-06 0 9.1184e-15
6 6 0.001 -0.01 -4.31175e-17 -0.05 -2.0686e-06 2.2523e-06 1.77129e-06 0 9.1184e-15
1158 14 0.001 -0.0100369 -0.000937851 -0.0496578 -5.12262e-14 -2.447e-14 3.05231e-14 0 1.91266e-14
8 8 0.001 0.01 -4.31175e-17 -0.05 -2.0686e-06 2.2523e-06 1.77129e-06 0 9.1184e-15
1554 16 0.001 0.00996311 -0.000937851 -0.0496578 -4.88636e-14 -2.31922e-14 2.97688e-14 0 1.91266e-14
10 10 0.001 0.03 -4.31175e-17 -0.05 -2.0686e-06 2.2523e-06 1.77129e-06 0 9.1184e-15
1950 18 0.001 0.0299631 -0.000937851 -0.0496578 -4.90137e-14 -2.38372e-14 3.08917e-14 0 1.91266e-14
379 11 0.001 -0.0551673 -0.00380504 -0.0476502 -2.57629e-13 1.85486e-13 -1.01702e-13 0 6.3644e-16
380 11 0.001 -0.0542234 -0.00403213 -0.0478856 -1.44749e-13 1.78691e-13 -1.01662e-13 0 5.50964e-16
381 11 0.001 -0.0532566 -0.00402013 -0.0481369 -1.86268e-13 1.22882e-13 -5.99046e-14 0 4.00862e-16
382 11 0.001 -0.0523274 -0.00377108 -0.0484064 -1.86347e-13 8.33821e-14 -1.71481e-14 0 2.28474e-16
383 11 0.001 -0.0514939 -0.00330195 -0.0486949 -1.90134e-13 8.49524e-14 -5.48904e-15 0 8.53119e-17
755 12 0.001 -0.0351657 -0.00380629 -0.0476487 -2.32966e-13 1.83523e-13 -1.12162e-13 0 6.49961e-16
756 12 0.001 -0.0342216 -0.00403306 -0.0478839 -1.49271e-13 1.70228e-13 -1.03076e-13 0 5.57872e-16
757 12 0.001 -0.0332548 -0.00402074 -0.0481351 -2.41603e-13 1.2536e-13 -5.36671e-14 0 4.00768e-16
758 12 0.001 -0.0323258 -0.00377139 -0.0484047 -1.28953e-13 1.0081e-13 -4.19438e-14 0 2.23289e-16
759 12 0.001 -0.0314925 -0.00330201 -0.0486934 -2.15484e-13 5.15524e-14 8.61969e-15 0 7.93126e-17
1151 14 0.001 -0.0151657 -0.00380629 -0.0476487 -1.88725e-13 2.00409e-13 -1.21209e-13 0 6.49961e-16
1152 14 0.001 -0.0142216 -0.00403306 -0.0478839 -1.92493e-13 1.68651e-13 -9.21902e-14 0 5.57872e-16
1153 14 0.001 -0.0132548 -0.00402074 -0.0481351 -1.97474e-13 1.16103e-13 -6.4498e-14 0 4.00768e-16
1154 14 0.001 -0.0123258 -0.00377139 -0.0484047 -1.64643e-13 1.08803e-13 -3.51516e-14 0 2.23289e-16
1155 14 0.001 -0.0114925 -0.00330201 -0.0486934 -1.68939e-13 5.35853e-14 -4.44475e-16 0 7.93126e-17
1547 16 0.001 0.00483428 -0.00380629 -0.0476487 -1.99398e-13 1.92551e-13 -1.19285e-13 0 6.49961e-16
1548 16 0.001 0.00577835 -0.00403306 -0.0478839 -1.83127e-13 1.70854e-13 -9.44761e-14 0 5.57872e-16
1549 16 0.001 0.00674516 -0.00402074 -0.0481351 -2.13345e-13 1.1373e-13 -5.99115e-14 0 4.00768e-16
1550 16 0.001 0.00767423 -0.00377139 -0.0484047 -1.51421e-13 1.14976e-13 -3.91972e-14 0 2.23289e-16
1551 16 0.001 0.00850753 -0.00330201 -0.0486934 -1.79803e-13 4.88426e-14 2.6941e-15 0 7.93126e-17
1943 18 0.001 0.0248343 -0.00380629 -0.0476487 -2.22013e-13 2.04904e-13 -1.1234e-13 0 6.49961e-16
1944 18 0.001 0.0257784 -0.00403306 -0.0478839 -1.69781e-13 1.68821e-13 -9.8576e-14 0 5.57872e-16
1945 18 0.001 0.0267452 -0.00402074 -0.0481351 -2.16189e-13 1.13223e-13 -5.88724e-14 0 4.00768e-16
1946 18 0.001 0.0276742 -0.00377139 -0.0484047 -1.55792e-13 1.12266e-13 -3.82507e-14 0 2.23289e-16
1947 18 0.001 0.0285075 -0.00330201 -0.0486934 -1.68104e-13 5.54581e-14 -1.0682e-15 0 7.93126e-17
378 11 0.001 -0.0560294 -0.00335195 -0.0474275 -1.58211e-13 2.33857e-13 -1.36295e-13 0 6.36594e-16
754 12 0.001 -0.036028 -0.00335349 -0.0474261 -1.33989e-13 2.39681e-13 -1.43153e-13 0 6.54687e-16
1150 14 0.001 -0.016028 -0.00335349 -0.0474261 -1.93209e-13 2.13983e-13 -1.34393e-13 0 6.54687e-16
1546 16 0.001 0.00397205 -0.00335349 -0.0474261 -1.7925e-13 2.20308e-13 -1.36851e-13 0 6.54687e-16
1942 18 0.001 0.023972 -0.00335349 -0.0474261 -1.76795e-13 2.07633e-13 -1.39687e-13 0 6.54687e-16
376 11 0.001 -0.0573007 -0.00189014 -0.047002 -1.38161e-13 2.6313e-13 -1.31365e-13 0 4.23888e-16
377 11 0.001 -0.0567556 -0.00270031 -0.047213 -1.61929e-13 2.29296e-13 -1.43121e-13 0 5.56787e-16
753 12 0.001 -0.0367544 -0.00270209 -0.0472118 -2.65788e-13 2.28343e-13 -1.30927e-13 0 5.76655e-16
752 12 0.001 -0.0372999 -0.00189209 -0.047001 1.82096e-14 2.83882e-13 -1.41931e-13 0 4.42804e-16
1149 14 0.001 -0.0167544 -0.00270209 -0.0472118 -1.75725e-13 2.54374e-13 -1.38474e-13 0 5.76655e-16
1148 14 0.001 -0.0172999 -0.00189209 -0.047001 -1.18837e-13 2.67684e-13 -1.33679e-13 0 4.42804e-16
1544 16 0.001 0.00270013 -0.00189209 -0.047001 -1.30154e-13 2.69234e-13 -1.32393e-13 0 4.42804e-16
1545 16 0.001 0.00324557 -0.00270209 -0.0472118 -1.73429e-13 2.48893e-13 -1.39377e-13 0 5.76655e-16
1941 18 0.001 0.0232456 -0.00270209 -0.0472118 -1.56605e-13 2.50796e-13 -1.41488e-13 0 5.76655e-16
1940 18 0.001 0.0227001 -0.00189209 -0.047001 -1.29443e-13 2.73543e-13 -1.30503e-13 0 4.42804e-16
375 11 0.001 -0.0576309 -0.000971488 -0.0467897 -1.06771e-13 2.8861e-13 -1.05704e-13 0 2.75168e-16
374 11 0.001 -0.0577261 -1.17568e-06 -0.0465719 -1.08854e-13 2.57023e-13 -8.50599e-14 0 1.45242e-16
751 12 0.001 -0.0376305 -0.000973517 -0.046789 -2.31928e-13 2.6243e-13 -1.06522e-13 0 2.91041e-16
750 12 0.001 -0.0377261 -3.19513e-06 -0.0465714 -3.44899e-14 2.40541e-13 -8.7371e-14 0 1.56866e-16
1147 14 0.001 -0.0176305 -0.000973517 -0.046789 -1.32229e-13 2.71889e-13 -1.10549e-13 0 2.91041e-16
1146 14 0.001 -0.0177261 -3.19513e-06 -0.0465714 -2.69584e-14 2.43559e-13 -8.15052e-14 0 1.56866e-16
1543 16 0.001 0.00236952 -0.000973517 -0.046789 -1.12505e-13 2.75556e-13 -1.09673e-13 0 2.91041e-16
1542 16 0.001 0.00227394 -3.19513e-06 -0.0465714 -7.32242e-14 2.45328e-13 -8.41484e-14 0 1.56866e-16
1939 18 0.001 0.0223695 -0.000973517 -0.046789 -1.5101e-13 2.73415e-13 -1.10537e-13 0 2.91041e-16
1938 18 0.001 0.0222739 -3.19513e-06 -0.0465714 -8.41325e-15 2.41778e-13 -8.16944e-14 0 1.56866e-16
373 11 0.001 -0.0575809 0.000960806 -0.0463449 1.19185e-14 2.35424e-13 -3.39534e-14 0 5.58743e-17
749 12 0.001 -0.0375813 0.000958892 -0.0463446 -4.15385e-14 2.80621e-13 -3.49789e-14 0 6.29178e-17
1145 14 0.001 -0.0175813 0.000958892 -0.0463446 -9.7922e-14 2.67099e-13 -4.66736e-14 0 6.29178e-17
1541 16 0.001 0.00241875 0.000958892 -0.0463446 -3.74073e-14 2.64349e-13 -4.11957e-14 0 6.29178e-17
1937 18 0.001 0.0224187 0.000958892 -0.0463446 -9.71703e-14 2.64929e-13 -4.66764e-14 0 6.29178e-17
372 11 0.001 -0.0572049 0.00185509 -0.0461063 -6.91008e-14 2.27388e-13 -7.67941e-15 0 1.17908e-17
748 12 0.001 -0.0372057 0.00185338 -0.0461061 -1.64805e-15 2.1004e-13 4.4919e-15 0 1.46332e-17
1144 14 0.001 -0.0172057 0.00185338 -0.0461061 1.54087e-14 2.1567e-13 1.11639e-14 0 1.46332e-17
1540 16 0.001 0.00279429 0.00185338 -0.0461061 -1.40639e-14 2.12223e-13 7.59957e-15 0 1.46332e-17
1936 18 0.001 0.0227943 0.00185338 -0.0461061 1.08972e-14 2.17341e-13 1.14431e-14 0 1.46332e-17
371 11 0.001 -0.0566224 0.00262664 -0.0458546 9.83081e-15 1.91785e-13 4.83075e-14 0 3.06178e-18
747 12 0.001 -0.0366235 0.0026252 -0.0458546 4.08605e-15 1.95052e-13 4.05054e-14 0 2.56893e-18
1143 14 0.001 -0.0166235 0.0026252 -0.0458546 3.24167e-14 2.02802e-13 4.45237e-14 0 2.56893e-18
1539 16 0.001 0.00337654 0.0026252 -0.0458546 1.00949e-14 2.08666e-13 3.94508e-14 0 2.56893e-18
1935 18 0.001 0.0233765 0.0026252 -0.0458546 2.02338e-14 1.9982e-13 4.07635e-14 0 2.56893e-18
370 11 0.001 -0.0558699 0.00322811 -0.0455899 4.21035e-14 1.69511e-13 8.24642e-14 0 1.21124e-17
369 11 0.001 -0.0549949 0.00362275 -0.0453131 9.15018e-14 1.08287e-13 1.23053e-13 0 2.20669e-17
368 11 0.001 -0.0540521 0.00378664 -0.0450261 -4.14243e-15 7.16549e-14 1.01042e-13 0 2.31391e-17
367 11 0.001 -0.0531006 0.00371008 -0.0447317 8.66289e-15 3.36919e-14 9.7913e-14 0 1.49984e-17
745 12 0.001 -0.0349965 0.00362208 -0.045313 9.27609e-14 1.05232e-13 1.14865e-13 0 1.83569e-17
746 12 0.001 -0.0358713 0.00322703 -0.0455899 7.23648e-15 1.63445e-13 7.48054e-14 0 9.41332e-18
744 12 0.001 -0.0340538 0.00378641 -0.045026 4.09185e-14 7.15789e-14 1.12235e-13 0 1.95143e-17
743 12 0.001 -0.0331022 0.00371029 -0.0447316 -5.17575e-16 2.57069e-14 9.17122e-14 0 1.23229e-17
1142 14 0.001 -0.0158713 0.00322703 -0.0455899 8.55219e-15 1.59619e-13 7.74577e-14 0 9.41332e-18
1140 14 0.001 -0.0140538 0.00378641 -0.045026 3.75881e-14 5.83392e-14 1.11917e-13 0 1.95143e-17
1141 14 0.001 -0.0149965 0.00362208 -0.045313 4.26969e-14 1.09603e-13 9.89383e-14 0 1.83569e-17
1139 14 0.001 -0.0131022 0.00371029 -0.0447316 6.35836e-14 2.71823e-14 1.10162e-13 0 1.23229e-17
1538 16 0.001 0.0041287 0.00322703 -0.0455899 3.77596e-14 1.48437e-13 8.24864e-14 0 9.41332e-18
1537 16 0.001 0.00500352 0.00362208 -0.045313 3.73559e-14 1.17182e-13 1.0042e-13 0 1.83569e-17
1536 16 0.001 0.0059462 0.00378641 -0.045026 4.89672e-14 6.16473e-14 1.13489e-13 0 1.95143e-17
1535 16 0.001 0.0068978 0.00371029 -0.0447316 3.95077e-14 2.4598e-14 1.03866e-13 0 1.23229e-17
1933 18 0.001 0.0250035 0.00362208 -0.045313 6.2171e-14 1.0883e-13 1.06343e-13 0 1.83569e-17
1934 18 0.001 0.0241287 0.00322703 -0.0455899 1.92259e-14 1.61245e-13 7.96299e-14 0 9.41332e-18
1932 18 0.001 0.0259462 0.00378641 -0.045026 6.2411e-15 6.23105e-14 1.01435e-13 0 1.95143e-17
1931 18 0.001 0.0268978 0.00371029 -0.0447316 8.68835e-14 3.25587e-14 1.16538e-13 0 1.23229e-17
361 11 0.001 -0.0501406 -0.000577923 -0.0429744 -8.69481e-14 -1.50521e-13 -1.09688e-13 0 1.16823e-16
737 12 0.001 -0.0301403 -0.000576271 -0.0429739 -4.36142e-14 -1.52703e-13 -1.1175e-13 0 1.21064e-16
1133 14 0.001 -0.0101403 -0.000576271 -0.0429739 -8.72458e-14 -1.52323e-13 -1.12142e-13 0 1.21064e-16
1529 16 0.001 0.00985966 -0.000576271 -0.0429739 -8.05871e-14 -1.56564e-13 -1.10772e-13 0 1.21064e-16
1925 18 0.001 0.0298597 -0.000576271 -0.0429739 -7.20464e-14 -1.53366e-13 -1.11404e-13 0 1.21064e-16
362 11 0.001 -0.0501156 0.000380765 -0.0432543 -1.18166e-13 -1.03753e-13 -9.23763e-14 0 8.06794e-17
363 11 0.001 -0.0503299 0.00131328 -0.0435416 5.203e-14 -1.58472e-13 -8.99849e-15 0 4.32041e-17
738 12 0.001 -0.0301158 0.000382416 -0.0432538 -7.91451e-14 -1.44362e-13 -7.7673e-14 0 8.46171e-17
739 12 0.001 -0.0303305 0.00131482 -0.0435411 -5.3057e-14 -1.29363e-13 -2.9063e-14 0 4.64191e-17
1134 14 0.001 -0.0101158 0.000382416 -0.0432538 -5.12754e-14 -1.49927e-13 -7.57694e-14 0 8.46171e-17
1135 14 0.001 -0.0103305 0.00131482 -0.0435411 -4.93936e-14 -1.31901e-13 -2.81065e-14 0 4.64191e-17
1530 16 0.001 0.00988416 0.000382416 -0.0432538 -6.2334e-14 -1.52403e-13 -7.57337e-14 0 8.46171e-17
1531 16 0.001 0.00966951 0.00131482 -0.0435411 -4.06325e-14 -1.26623e-13 -2.86331e-14 0 4.64191e-17
1926 18 0.001 0.0298842 0.000382416 -0.0432538 -9.04027e-14 -1.57596e-13 -7.64831e-14 0 8.46171e-17
1927 18 0.001 0.0296695 0.00131482 -0.0435411 -3.7164e-15 -1.23685e-13 -2.49143e-14 0 4.64191e-17
365 11 0.001 -0.051406 0.00287086 -0.0441332 -8.19267e-15 -5.54254e-14 4.83249e-14 0 2.48277e-18
364 11 0.001 -0.0507693 0.00216104 -0.0438352 -3.98727e-14 -9.58593e-14 1.211e-14 0 1.50486e-17
740 12 0.001 -0.0307703 0.00216236 -0.0438348 1.89667e-14 -7.56622e-14 4.94849e-15 0 1.70844e-17
741 12 0.001 -0.0314073 0.00287188 -0.0441329 -1.50396e-14 -8.30926e-14 5.4062e-14 0 2.97648e-18
1136 14 0.001 -0.0107703 0.00216236 -0.0438348 2.10291e-14 -8.52097e-14 8.81537e-15 0 1.70844e-17
1137 14 0.001 -0.0114073 0.00287188 -0.0441329 5.91291e-15 -7.7999e-14 5.75325e-14 0 2.97649e-18
1533 16 0.001 0.0085927 0.00287188 -0.0441329 -4.44637e-15 -7.64486e-14 5.42414e-14 0 2.97649e-18
1532 16 0.001 0.00922969 0.00216236 -0.0438348 1.85434e-14 -8.70883e-14 9.34646e-15 0 1.70844e-17
1928 18 0.001 0.0292297 0.00216236 -0.0438348 -1.56681e-14 -9.75487e-14 5.30317e-15 0 1.70844e-17
1929 18 0.001 0.0285927 0.00287188 -0.0441329 3.22204e-14 -5.73301e-14 5.95433e-14 0 2.97649e-18
366 11 0.001 -0.0521997 0.00339824 -0.044433 7.15432e-14 -3.35162e-14 1.04076e-13 0 4.83041e-18
742 12 0.001 -0.0322012 0.00339889 -0.0444328 8.65184e-14 -3.14788e-14 1.00896e-13 0 3.64627e-18
1138 14 0.001 -0.0122012 0.00339889 -0.0444328 2.51424e-14 -1.97877e-14 8.30613e-14 0 3.64627e-18
1534 16 0.001 0.00779878 0.00339889 -0.0444328 4.63951e-14 -2.16285e-14 8.93012e-14 0 3.64627e-18
1930 18 0.001 0.0277988 0.00339889 -0.0444328 4.13424e-15 -3.8968e-14 8.03229e-14 0 3.64627e-18
356 11 0.001 -0.0533196 -0.00380075 -0.0416759 -1.77041e-13 -1.01092e-13 -1.07145e-13 0 7.18986e-17
357 11 0.001 -0.0523937 -0.0035212 -0.0419262 -1.9607e-13 -5.03577e-14 -1.40571e-13 0 1.04871e-16
358 11 0.001 -0.0515663 -0.00302202 -0.0421795 -1.17465e-13 -1.70722e-13 -1.50952e-13 0 1.325e-16
732 12 0.001 -0.0333179 -0.00380051 -0.0416754 -1.52252e-13 -6.05004e-14 -1.18452e-13 0 7.53455e-17
733 12 0.001 -0.0323922 -0.00352054 -0.0419256 -2.24303e-13 -1.0971e-13 -1.24254e-13 0 1.08595e-16
734 12 0.001 -0.031565 -0.00302099 -0.042179 -1.14014e-13 -1.25782e-13 -1.6082e-13 0 1.3643e-16
1128 14 0.001 -0.0133179 -0.00380051 -0.0416754 -1.65266e-13 -7.64237e-14 -1.13894e-13 0 7.53455e-17
1129 14 0.001 -0.0123922 -0.00352054 -0.0419256 -1.89581e-13 -1.02703e-13 -1.3223e-13 0 1.08595e-16
1130 14 0.001 -0.011565 -0.00302099 -0.042179 -1.56277e-13 -1.18164e-13 -1.55282e-13 0 1.3643e-16
1524 16 0.001 0.00668205 -0.00380051 -0.0416754 -1.34614e-13 -7.64073e-14 -1.2284e-13 0 7.53455e-17
1525 16 0.001 0.00760781 -0.00352054 -0.0419256 -1.9601e-13 -1.02637e-13 -1.30177e-13 0 1.08595e-16
1526 16 0.001 0.00843503 -0.00302099 -0.042179 -1.59581e-13 -1.22157e-13 -1.53629e-13 0 1.3643e-16
1920 18 0.001 0.0266821 -0.00380051 -0.0416754 -1.53383e-13 -7.35461e-14 -1.15519e-13 0 7.53455e-17
1921 18 0.001 0.0276078 -0.00352054 -0.0419256 -1.94005e-13 -9.53664e-14 -1.34562e-13 0 1.08595e-16
1922 18 0.001 0.028435 -0.00302099 -0.042179 -1.36851e-13 -1.24972e-13 -1.55907e-13 0 1.3643e-16
359 11 0.001 -0.0508889 -0.00233466 -0.0424378 -1.78015e-13 -1.07042e-13 -1.56086e-13 0 1.46292e-16
360 11 0.001 -0.0504036 -0.00150248 -0.0427024 -9.49068e-14 -1.78158e-13 -1.33565e-13 0 1.40918e-16
735 12 0.001 -0.0308879 -0.00233333 -0.0424372 -1.75225e-13 -1.31341e-13 -1.50384e-13 0 1.50405e-16
736 12 0.001 -0.030403 -0.00150093 -0.0427018 -1.30379e-13 -1.76565e-13 -1.33776e-13 0 1.45169e-16
1131 14 0.001 -0.0108879 -0.00233333 -0.0424372 -1.3498e-13 -1.41584e-13 -1.53913e-13 0 1.50405e-16
1132 14 0.001 -0.010403 -0.00150093 -0.0427018 -1.29522e-13 -1.69793e-13 -1.33399e-13 0 1.45169e-16
1527 16 0.001 0.00911212 -0.00233333 -0.0424372 -1.3951e-13 -1.39916e-13 -1.53974e-13 0 1.50405e-16
1528 16 0.001 0.00959699 -0.00150093 -0.0427018 -1.24374e-13 -1.63881e-13 -1.35729e-13 0 1.45169e-16
1923 18 0.001 0.0291121 -0.00233333 -0.0424372 -1.58088e-13 -1.4351e-13 -1.50805e-13 0 1.50405e-16
1924 18 0.001 0.029597 -0.00150093 -0.0427018 -1.21806e-13 -1.63122e-13 -1.35761e-13 0 1.45169e-16
353 11 0.001 -0.0561016 -0.00322032 -0.0409266 -1.24805e-13 -6.99194e-15 7.13473e-16 0 7.17465e-18
355 11 0.001 -0.0542862 -0.00384306 -0.041427 -1.92591e-13 -3.95254e-14 -7.34777e-14 0 4.18125e-17
354 11 0.001 -0.0552332 -0.00364545 -0.0411777 -9.16784e-14 -3.1243e-15 -6.09446e-14 0 1.9841e-17
729 12 0.001 -0.0361002 -0.00322132 -0.0409261 -5.08448e-14 -1.44294e-15 -3.2326e-14 0 8.87359e-18
730 12 0.001 -0.0352316 -0.00364606 -0.0411772 -2.17946e-13 4.69852e-15 -2.38797e-14 0 2.2266e-17
731 12 0.001 -0.0342845 -0.00384325 -0.0414265 -1.4012e-13 -4.87303e-14 -8.79123e-14 0 4.48376e-17
1125 14 0.001 -0.0161002 -0.00322132 -0.0409261 -1.37102e-13 1.81305e-14 -1.29255e-14 0 8.87359e-18
1126 14 0.001 -0.0152316 -0.00364606 -0.0411772 -1.58196e-13 -9.1748e-15 -3.67728e-14 0 2.2266e-17
1127 14 0.001 -0.0142845 -0.00384325 -0.0414265 -1.56192e-13 -3.58266e-14 -8.60306e-14 0 4.48376e-17
1521 16 0.001 0.00389975 -0.00322132 -0.0409261 -1.23479e-13 1.33505e-14 -1.59017e-14 0 8.87359e-18
1523 16 0.001 0.00571549 -0.00384325 -0.0414265 -1.84074e-13 -3.30139e-14 -7.66707e-14 0 4.48376e-17
1522 16 0.001 0.0047684 -0.00364606 -0.0411772 -1.66459e-13 -9.37464e-15 -3.68574e-14 0 2.2266e-17
1917 18 0.001 0.0238998 -0.00322132 -0.0409261 -1.25803e-13 1.94646e-14 -1.44912e-14 0 8.87359e-18
1918 18 0.001 0.0247684 -0.00364606 -0.0411772 -1.66869e-13 -6.4432e-15 -3.52611e-14 0 2.2266e-17
1919 18 0.001 0.0257155 -0.00384325 -0.0414265 -1.67085e-13 -4.1085e-14 -8.32347e-14 0 4.48376e-17
351 11 0.001 -0.0573952 -0.00180644 -0.0404151 -4.60271e-14 3.29281e-14 4.68884e-14 0 2.5235e-19
352 11 0.001 -0.0568375 -0.00259427 -0.0406726 -1.38184e-13 5.92964e-14 1.86562e-14 0 1.75757e-18
727 12 0.001 -0.0373945 -0.00180803 -0.0404146 6.54799e-14 4.90607e-14 1.9005e-14 0 7.83292e-19
728 12 0.001 -0.0368364 -0.00259561 -0.0406721 -1.93628e-13 4.88992e-14 4.11943e-14 0 2.75405e-18
1123 14 0.001 -0.0173945 -0.00180803 -0.0404146 -4.469e-14 4.61453e-14 2.98752e-14 0 7.83292e-19
1124 14 0.001 -0.0168364 -0.00259561 -0.0406721 -1.07392e-13 4.24792e-14 2.72783e-14 0 2.75405e-18
1519 16 0.001 0.0026055 -0.00180803 -0.0404146 -5.73175e-14 4.10985e-14 2.90547e-14 0 7.83292e-19
1520 16 0.001 0.00316356 -0.00259561 -0.0406721 -9.97834e-14 4.61976e-14 2.72738e-14 0 2.75405e-18
1915 18 0.001 0.0226055 -0.00180803 -0.0404146 -2.60102e-15 5.61692e-14 2.74572e-14 0 7.83292e-19
1916 18 0.001 0.0231636 -0.00259561 -0.0406721 -1.22681e-13 3.06245e-14 2.69211e-14 0 2.75405e-18
350 11 0.001 -0.0577402 -0.000905986 -0.040154 -4.55408e-14 8.99883e-14 4.60401e-14 0 1.25667e-19
726 12 0.001 -0.0377399 -0.000907738 -0.0401534 -1.59352e-13 5.6393e-14 5.41875e-14 0 6.40561e-19
1122 14 0.001 -0.0177399 -0.000907738 -0.0401534 -2.97888e-14 5.2266e-14 4.57847e-14 0 6.40562e-19
1518 16 0.001 0.0022601 -0.000907738 -0.0401534 -2.89852e-14 6.27145e-14 4.94176e-14 0 6.40562e-19
1914 18 0.001 0.0222601 -0.000907738 -0.0401534 -8.73533e-14 5.54394e-14 5.11295e-14 0 6.40562e-19
348 11 0.001 -0.0577216 0.00100475 -0.0396221 -3.31664e-15 7.798e-14 2.51736e-14 0 4.20382e-18
349 11 0.001 -0.0578512 5.09469e-05 -0.0398894 6.98138e-14 4.22592e-14 5.17102e-14 0 9.12462e-19
724 12 0.001 -0.0377221 0.001003 -0.0396216 -6.81315e-14 9.93556e-14 2.96149e-14 0 6.47357e-18
725 12 0.001 -0.0378514 4.91407e-05 -0.0398889 1.34907e-13 8.70291e-14 4.72621e-14 0 2.0013e-18
1120 14 0.001 -0.0177221 0.001003 -0.0396216 7.65147e-14 8.38797e-14 3.61276e-14 0 6.47357e-18
1121 14 0.001 -0.0178514 4.91407e-05 -0.0398889 -5.74645e-15 9.90563e-14 4.86991e-14 0 2.0013e-18
1516 16 0.001 0.00227786 0.001003 -0.0396216 6.08115e-14 8.01718e-14 3.47366e-14 0 6.47357e-18
1517 16 0.001 0.00214864 4.91407e-05 -0.0398889 8.09794e-15 9.40393e-14 4.67552e-14 0 2.0013e-18
1912 18 0.001 0.0222779 0.001003 -0.0396216 4.94698e-14 8.43357e-14 3.48947e-14 0 6.47357e-18
1913 18 0.001 0.0221486 4.91407e-05 -0.0398889 3.7267e-14 9.42752e-14 4.62156e-14 0 2.0013e-18
347 11 0.001 -0.0573595 0.001896 -0.0393527 5.23955e-14 3.04718e-14 3.33054e-15 0 1.25152e-17
346 11 0.001 -0.0567876 0.00266918 -0.0390822 1.75467e-13 5.74875e-14 -1.01759e-14 0 2.76625e-17
722 12 0.001 -0.036789 0.00266786 -0.0390816 1.15037e-13 7.8244e-14 -1.56545e-14 0 3.35272e-17
723 12 0.001 -0.0373605 0.00189442 -0.0393522 1.69604e-13 2.49781e-14 8.35751e-15 0 1.6453e-17
1118 14 0.001 -0.016789 0.00266786 -0.0390816 1.05994e-13 4.94421e-14 -2.39691e-14 0 3.35272e-17
1119 14 0.001 -0.0173605 0.00189442 -0.0393522 7.90457e-14 4.50171e-14 2.81325e-15 0 1.6453e-17
1515 16 0.001 0.00263954 0.00189442 -0.0393522 8.74877e-14 5.26154e-14 5.20371e-15 0 1.6453e-17
1514 16 0.001 0.00321103 0.00266786 -0.0390816 1.11603e-13 3.97987e-14 -2.4404e-14 0 3.35272e-17
1910 18 0.001 0.023211 0.00266786 -0.0390816 1.09994e-13 4.15602e-14 -2.55311e-14 0 3.35272e-17
1911 18 0.001 0.0226395 0.00189442 -0.0393522 9.24104e-14 4.72778e-14 5.02081e-15 0 1.6453e-17
345 11 0.001 -0.0560417 0.00327608 -0.0388113 1.5578e-13 2.76215e-14 -3.55558e-14 0 4.94296e-17
344 11 0.001 -0.0551684 0.00367878 -0.038541 1.38751e-13 1.15212e-14 -8.07704e-14 0 7.51259e-17
721 12 0.001 -0.0360434 0.0032751 -0.0388108 9.12941e-14 -2.54577e-15 -6.62024e-14 0 5.72025e-17
720 12 0.001 -0.0351702 0.00367821 -0.0385405 2.11575e-13 1.6481e-14 -6.11199e-14 0 8.45291e-17
1117 14 0.001 -0.0160434 0.0032751 -0.0388108 1.63829e-13 2.26924e-14 -4.66029e-14 0 5.72025e-17
1116 14 0.001 -0.0151702 0.00367821 -0.0385405 1.63036e-13 7.73314e-15 -7.3217e-14 0 8.45291e-17
1513 16 0.001 0.00395664 0.0032751 -0.0388108 1.43121e-13 3.09151e-14 -5.02598e-14 0 5.72025e-17
1512 16 0.001 0.00482982 0.00367821 -0.0385405 1.73493e-13 4.42734e-16 -7.16905e-14 0 8.45291e-17
1909 18 0.001 0.0239566 0.0032751 -0.0388108 1.50049e-13 3.45768e-14 -4.61981e-14 0 5.72025e-17
1908 18 0.001 0.0248298 0.00367821 -0.0385405 1.68566e-13 -3.28975e-15 -7.43828e-14 0 8.45291e-17
338 11 0.001 -0.0504198 0.00140944 -0.0369475 1.19256e-13 -1.49452e-13 -5.65592e-14 0 9.98689e-17
714 12 0.001 -0.0304205 0.0014111 -0.036947 1.13714e-13 -1.49744e-13 -5.21206e-14 0 1.09255e-16
1110 14 0.001 -0.0104205 0.0014111 -0.036947 1.23388e-13 -1.60314e-13 -4.83399e-14 0 1.09255e-16
1506 16 0.001 0.00957954 0.0014111 -0.036947 1.13624e-13 -1.62535e-13 -4.91138e-14 0 1.09255e-16
1902 18 0.001 0.0295795 0.0014111 -0.036947 1.36674e-13 -1.70439e-13 -4.48214e-14 0 1.09255e-16
340 11 0.001 -0.0515375 0.00296131 -0.0374733 7.24679e-14 -8.07908e-14 -1.16246e-13 0 1.2871e-16
339 11 0.001 -0.050881 0.00225581 -0.0372099 1.86469e-13 -1.2476e-13 -7.0595e-14 0 1.17739e-16
716 12 0.001 -0.0315389 0.00296245 -0.0374728 2.23566e-13 -1.06986e-13 -8.36771e-14 0 1.39649e-16
715 12 0.001 -0.0308821 0.00225726 -0.0372095 7.9045e-14 -1.05285e-13 -9.75254e-14 0 1.28003e-16
1111 14 0.001 -0.0108821 0.00225726 -0.0372095 1.00917e-13 -8.72757e-14 -9.80384e-14 0 1.28003e-16
1112 14 0.001 -0.0115389 0.00296245 -0.0374728 1.64986e-13 -1.1546e-13 -9.40278e-14 0 1.39649e-16
1508 16 0.001 0.00846107 0.00296245 -0.0374728 1.61291e-13 -1.25446e-13 -9.28609e-14 0 1.39649e-16
1507 16 0.001 0.00911786 0.00225726 -0.0372095 1.14049e-13 -8.08349e-14 -9.72186e-14 0 1.28003e-16
1904 18 0.001 0.0284611 0.00296245 -0.0374728 1.4316e-13 -1.33597e-13 -9.68729e-14 0 1.39649e-16
1903 18 0.001 0.0291179 0.00225726 -0.0372095 1.01428e-13 -7.4995e-14 -9.88892e-14 0 1.28003e-16
343 11 0.001 -0.0542221 0.0038521 -0.0382718 1.23224e-13 -4.02093e-14 -1.08389e-13 0 1.00208e-16
342 11 0.001 -0.0532619 0.00378512 -0.038004 2.3146e-13 -5.96938e-14 -8.56225e-14 0 1.19685e-16
341 11 0.001 -0.052348 0.0034819 -0.0377379 1.68959e-13 -7.34306e-14 -1.11018e-13 0 1.29706e-16
719 12 0.001 -0.0342239 0.00385197 -0.0382713 1.58571e-13 -4.13261e-14 -1.00548e-13 0 1.1078e-16
718 12 0.001 -0.0332638 0.00378544 -0.0380035 2.01145e-13 -2.97642e-14 -1.01995e-13 0 1.3088e-16
717 12 0.001 -0.0323497 0.00348265 -0.0377374 1.15369e-13 -9.52667e-14 -1.1985e-13 0 1.40994e-16
1115 14 0.001 -0.0142239 0.00385197 -0.0382713 1.65724e-13 -3.37293e-14 -9.94982e-14 0 1.1078e-16
1113 14 0.001 -0.0123497 0.00348265 -0.0377374 1.72266e-13 -8.42649e-14 -1.07895e-13 0 1.40994e-16
1114 14 0.001 -0.0132638 0.00378544 -0.0380035 1.80605e-13 -4.71138e-14 -1.0582e-13 0 1.3088e-16
1511 16 0.001 0.00577605 0.00385197 -0.0382713 1.69629e-13 -3.35489e-14 -9.80015e-14 0 1.1078e-16
1510 16 0.001 0.00673621 0.00378544 -0.0380035 1.85496e-13 -4.53656e-14 -1.04556e-13 0 1.3088e-16
1509 16 0.001 0.00765028 0.00348265 -0.0377374 1.63842e-13 -7.88515e-14 -1.10771e-13 0 1.40994e-16
1907 18 0.001 0.0257761 0.00385197 -0.0382713 1.77026e-13 -2.32512e-14 -9.57229e-14 0 1.1078e-16
1906 18 0.001 0.0267362 0.00378544 -0.0380035 1.65778e-13 -6.41583e-14 -1.08775e-13 0 1.3088e-16
1905 18 0.001 0.0276503 0.00348265 -0.0377374 1.9072e-13 -6.02927e-14 -1.05792e-13 0 1.40994e-16
333 11 0.001 -0.0515475 -0.00297003 -0.0356335 1.77467e-14 -7.96957e-14 1.59579e-14 0 2.22682e-17
334 11 0.001 -0.0508887 -0.00226699 -0.0358976 -6.86921e-14 -5.67307e-14 3.08982e-14 0 3.01174e-17
709 12 0.001 -0.0315461 -0.0029689 -0.035633 -3.30533e-14 -9.01424e-14 2.77744e-14 0 2.74598e-17
710 12 0.001 -0.0308876 -0.00226554 -0.0358971 -3.87556e-14 -7.54839e-14 1.97144e-14 0 3.58541e-17
1105 14 0.001 -0.0115461 -0.0029689 -0.035633 -5.97452e-14 -8.30686e-14 3.29333e-14 0 2.74598e-17
1106 14 0.001 -0.0108876 -0.00226554 -0.0358971 -1.87872e-14 -8.33093e-14 1.77667e-14 0 3.58541e-17
1501 16 0.001 0.00845394 -0.0029689 -0.035633 -6.61884e-14 -8.38001e-14 3.58333e-14 0 2.74598e-17
1502 16 0.001 0.00911239 -0.00226554 -0.0358971 -2.33237e-14 -8.28266e-14 1.77011e-14 0 3.58541e-17
1897 18 0.001 0.0284539 -0.0029689 -0.035633 -5.83923e-14 -7.64216e-14 3.09299e-14 0 2.74598e-17
1898 18 0.001 0.0291124 -0.00226554 -0.0358971 -1.05081e-14 -8.37642e-14 1.66452e-14 0 3.58541e-17
335 11 0.001 -0.0504246 -0.00142239 -0.0361608 -4.96941e-14 -1.37335e-13 1.90341e-14 0 4.23771e-17
336 11 0.001 -0.0501842 -0.000488953 -0.0364233 1.79942e-13 -1.0343e-13 -2.21362e-14 0 5.90738e-17
711 12 0.001 -0.0304239 -0.00142073 -0.0361603 9.08843e-15 -1.27766e-13 1.56002e-14 0 4.88838e-17
712 12 0.001 -0.030184 -0.000487173 -0.0364228 2.10963e-14 -1.06616e-13 -1.81755e-14 0 6.64974e-17
1107 14 0.001 -0.0104239 -0.00142073 -0.0361603 -9.505e-15 -1.1736e-13 1.46442e-14 0 4.88838e-17
1108 14 0.001 -0.010184 -0.000487173 -0.0364228 4.50834e-14 -1.08816e-13 -1.78336e-14 0 6.64974e-17
1503 16 0.001 0.00957609 -0.00142073 -0.0361603 -7.40117e-15 -1.18919e-13 1.48025e-14 0 4.88838e-17
1504 16 0.001 0.00981604 -0.000487173 -0.0364228 4.73468e-14 -1.09759e-13 -1.76389e-14 0 6.64974e-17
1899 18 0.001 0.0295761 -0.00142073 -0.0361603 -2.04001e-14 -1.18603e-13 1.62513e-14 0 4.88838e-17
1900 18 0.001 0.029816 -0.000487173 -0.0364228 4.87437e-14 -1.13527e-13 -1.71524e-14 0 6.64974e-17
337 11 0.001 -0.0501825 0.00047506 -0.0366854 -3.85239e-14 -9.1806e-14 -4.20641e-14 0 7.90845e-17
713 12 0.001 -0.0301828 0.00047684 -0.0366849 8.07863e-14 -1.14095e-13 -4.27084e-14 0 8.74943e-17
1109 14 0.001 -0.0101828 0.00047684 -0.0366849 5.66291e-14 -1.18664e-13 -4.29674e-14 0 8.74943e-17
1505 16 0.001 0.00981722 0.00047684 -0.0366849 5.71733e-14 -1.15988e-13 -4.3354e-14 0 8.74943e-17
1901 18 0.001 0.0298172 0.00047684 -0.0366849 5.24813e-14 -1.10771e-13 -4.53761e-14 0 8.74943e-17
328 11 0.001 -0.0560551 -0.00326879 -0.0343031 -1.92873e-13 8.3465e-14 -1.05489e-14 0 3.10699e-17
329 11 0.001 -0.0551821 -0.00367467 -0.0345698 -1.26962e-14 8.37396e-14 -3.46372e-14 0 2.38148e-17
330 11 0.001 -0.0542357 -0.0038513 -0.0348365 -1.0686e-13 3.50944e-14 1.86512e-14 0 1.92145e-17
331 11 0.001 -0.0532749 -0.00378766 -0.0351028 1.28531e-14 -1.85772e-14 -1.43507e-14 0 1.732e-17
332 11 0.001 -0.0523598 -0.00348767 -0.0353686 -1.3562e-13 -1.63155e-14 5.63322e-14 0 1.8217e-17
704 12 0.001 -0.0360535 -0.00326988 -0.0343025 -4.88681e-14 1.52227e-13 -3.56298e-14 0 3.83135e-17
705 12 0.001 -0.0351803 -0.00367532 -0.0345692 -9.73089e-14 4.1366e-14 -2.27982e-14 0 3.00567e-17
706 12 0.001 -0.0342338 -0.00385149 -0.0348359 -5.53613e-14 2.41057e-14 -3.73392e-15 0 2.46937e-17
707 12 0.001 -0.0332731 -0.00378737 -0.0351023 -1.56896e-13 -4.84445e-16 3.39241e-14 0 2.2354e-17
708 12 0.001 -0.0323581 -0.00348694 -0.0353681 -3.1419e-14 4.54009e-15 1.56705e-14 0 2.31586e-17
1100 14 0.001 -0.0160535 -0.00326988 -0.0343025 -1.12522e-13 1.16286e-13 -2.22801e-14 0 3.83135e-17
1101 14 0.001 -0.0151803 -0.00367532 -0.0345692 -7.45931e-14 6.8145e-14 -2.70904e-14 0 3.00567e-17
1102 14 0.001 -0.0142338 -0.00385149 -0.0348359 -7.42403e-14 3.03596e-14 8.88339e-16 0 2.46937e-17
1104 14 0.001 -0.0123581 -0.00348694 -0.0353681 -2.86169e-14 2.36877e-15 1.55693e-14 0 2.31586e-17
1103 14 0.001 -0.0132731 -0.00378737 -0.0351023 -1.13982e-13 -1.50781e-14 2.26459e-14 0 2.2354e-17
1496 16 0.001 0.00394654 -0.00326988 -0.0343025 -1.0125e-13 1.18424e-13 -2.57701e-14 0 3.83135e-17
1497 16 0.001 0.00481973 -0.00367532 -0.0345692 -8.02426e-14 7.0906e-14 -2.54855e-14 0 3.00567e-17
1498 16 0.001 0.00576623 -0.00385149 -0.0348359 -7.84138e-14 1.77709e-14 1.35505e-15 0 2.46937e-17
1499 16 0.001 0.00672693 -0.00378737 -0.0351023 -1.21445e-13 -5.16096e-15 2.5285e-14 0 2.2354e-17
1500 16 0.001 0.00764188 -0.00348694 -0.0353681 -1.02002e-14 1.1393e-15 9.6158e-15 0 2.31586e-17
1892 18 0.001 0.0239465 -0.00326988 -0.0343025 -1.05447e-13 1.28066e-13 -2.36038e-14 0 3.83135e-17
1893 18 0.001 0.0248197 -0.00367532 -0.0345692 -1.11719e-13 6.14586e-14 -1.85284e-14 0 3.00567e-17
1894 18 0.001 0.0257662 -0.00385149 -0.0348359 -5.64889e-14 3.28558e-14 -3.13436e-15 0 2.46937e-17
1895 18 0.001 0.0267269 -0.00378737 -0.0351023 -1.04479e-13 -1.40483e-14 1.8932e-14 0 2.2354e-17
1896 18 0.001 0.0276419 -0.00348694 -0.0353681 -4.0505e-14 -4.29569e-15 2.05452e-14 0 2.31586e-17
327 11 0.001 -0.0568002 -0.00265902 -0.0340365 2.36215e-14 1.22975e-13 -6.68691e-14 0 4.06592e-17
703 12 0.001 -0.0367988 -0.00266047 -0.0340359 -1.02612e-13 5.4272e-14 -6.8917e-14 0 4.90351e-17
1099 14 0.001 -0.0167988 -0.00266047 -0.0340359 -6.37776e-14 8.4609e-14 -7.40744e-14 0 4.90351e-17