ITEM: TIMESTEP
6100000
ITEM: NUMBER OF ATOMS
1970
ITEM: BOX BOUNDS ff ff ff
-6.0000000000000005e-02 6.0000000000000005e-02
-6.0000000000000001e-03 6.0000000000000001e-03
-5.5000000000000000e-02 5.5000000000000000e-02
ITEM: ATOMS id type radius x y z fx fy fz c_bendingE c_stretchingE
384 11 0.001 -0.0508259 -0.0026341 -0.0489912 -5.21543e-13 6.08055e-14 -2.84071e-13 0 3.30106e-17
385 11 0.001 -0.0503246 -0.0018329 -0.049315 -3.58421e-13 4.21306e-16 -1.72056e-13 0 8.91298e-15
760 12 0.001 -0.0308258 -0.00263408 -0.0489911 -4.77274e-13 7.03195e-14 -2.63408e-13 0 3.40973e-17
761 12 0.001 -0.0303245 -0.00183288 -0.0493149 -3.58279e-13 -5.84485e-15 -1.47051e-13 0 8.87086e-15
1156 14 0.001 -0.0108258 -0.00263408 -0.0489911 -5.22424e-13 7.08122e-14 -2.56326e-13 0 3.40973e-17
1157 14 0.001 -0.0103245 -0.00183288 -0.0493149 -3.14603e-13 -2.46072e-15 -1.54546e-13 0 8.87086e-15
1552 16 0.001 0.00917423 -0.00263408 -0.0489911 -5.04173e-13 7.24873e-14 -2.60183e-13 0 3.40973e-17
1553 16 0.001 0.00967551 -0.00183288 -0.0493149 -3.35359e-13 -1.40317e-14 -1.47154e-13 0 8.87086e-15
1948 18 0.001 0.0291742 -0.00263408 -0.0489911 -4.97213e-13 6.6369e-14 -2.5915e-13 0 3.40973e-17
1949 18 0.001 0.0296755 -0.00183288 -0.0493149 -3.51168e-13 -1.01188e-14 -1.47063e-13 0 8.87086e-15
2 2 0.001 -0.05 -4.31175e-17 -0.05 -3.17816e-06 3.52591e-06 2.06145e-06 0 7.6207e-15
386 11 0.001 -0.0500436 -0.00093574 -0.0496528 -1.95722e-13 -3.07038e-14 -7.21369e-14 0 1.65094e-14
762 12 0.001 -0.0300435 -0.000935726 -0.0496528 -1.68281e-13 -8.05762e-15 -7.06125e-14 0 1.64191e-14
4 4 0.001 -0.03 -4.31175e-17 -0.05 -3.1901e-06 3.55818e-06 2.05207e-06 0 7.57442e-15
6 6 0.001 -0.01 -4.31175e-17 -0.05 -3.1901e-06 3.55818e-06 2.05207e-06 0 7.57442e-15
1158 14 0.001 -0.0100435 -0.000935726 -0.0496528 -1.86942e-13 -8.48412e-15 -6.79943e-14 0 1.64191e-14
8 8 0.001 0.01 -4.31175e-17 -0.05 -3.1901e-06 3.55818e-06 2.05207e-06 0 7.57442e-15
1554 16 0.001 0.00995647 -0.000935726 -0.0496528 -1.77415e-13 -1.28017e-15 -7.19828e-14 0 1.64191e-14
10 10 0.001 0.03 -4.31175e-17 -0.05 -3.1901e-06 3.55818e-06 2.05207e-06 0 7.57442e-15
1950 18 0.001 0.0299565 -0.000935726 -0.0496528 -1.67084e-13 -2.87619e-15 -7.20251e-14 0 1.64191e-14
379 11 0.001 -0.0551975 -0.00376851 -0.0476567 -8.56274e-13 6.64019e-13 -6.76103e-13 0 1.19781e-15
380 11 0.001 -0.0542538 -0.00400126 -0.0478873 -7.87876e-13 5.42393e-13 -6.70499e-13 0 1.02462e-15
381 11 0.001 -0.0532857 -0.00399508 -0.0481339 -8.33917e-13 3.85286e-13 -5.8833e-13 0 7.21121e-16
382 11 0.001 -0.0523539 -0.00375169 -0.0483995 -7.30118e-13 2.7903e-13 -5.14527e-13 0 3.78802e-16
383 11 0.001 -0.0515166 -0.00328783 -0.0486854 -6.36904e-13 1.43504e-13 -3.98236e-13 0 1.14797e-16
755 12 0.001 -0.0351974 -0.00376861 -0.0476565 -7.08059e-13 6.63142e-13 -6.69825e-13 0 1.20066e-15
756 12 0.001 -0.0342536 -0.00400133 -0.0478872 -8.29515e-13 4.94373e-13 -6.12529e-13 0 1.02449e-15
757 12 0.001 -0.0332856 -0.00399512 -0.0481338 -7.70577e-13 3.93141e-13 -5.60715e-13 0 7.18343e-16
758 12 0.001 -0.0323538 -0.00375171 -0.0483994 -6.91569e-13 2.6256e-13 -4.77294e-13 0 3.74754e-16
759 12 0.001 -0.0315165 -0.00328783 -0.0486853 -6.31299e-13 1.39241e-13 -3.59403e-13 0 1.11839e-16
1151 14 0.001 -0.0151974 -0.00376861 -0.0476565 -7.4072e-13 6.41014e-13 -6.62327e-13 0 1.20066e-15
1152 14 0.001 -0.0142536 -0.00400133 -0.0478872 -7.90414e-13 5.13754e-13 -6.2344e-13 0 1.02449e-15
1153 14 0.001 -0.0132856 -0.00399512 -0.0481338 -7.82828e-13 3.82308e-13 -5.56288e-13 0 7.18343e-16
1154 14 0.001 -0.0123538 -0.00375171 -0.0483994 -6.93926e-13 2.63861e-13 -4.77399e-13 0 3.74754e-16
1155 14 0.001 -0.0115165 -0.00328783 -0.0486853 -6.13368e-13 1.3711e-13 -3.61686e-13 0 1.11839e-16
1547 16 0.001 0.0048026 -0.00376861 -0.0476565 -7.52776e-13 6.46349e-13 -6.58078e-13 0 1.20066e-15
1548 16 0.001 0.00574635 -0.00400133 -0.0478872 -7.87684e-13 5.18299e-13 -6.24542e-13 0 1.02449e-15
1549 16 0.001 0.00671442 -0.00399512 -0.0481338 -7.75257e-13 3.81504e-13 -5.58539e-13 0 7.18343e-16
1550 16 0.001 0.00764621 -0.00375171 -0.0483994 -7.03336e-13 2.58964e-13 -4.737e-13 0 3.74754e-16
1551 16 0.001 0.00848352 -0.00328783 -0.0486853 -6.1367e-13 1.43293e-13 -3.63676e-13 0 1.11839e-16
1943 18 0.001 0.0248026 -0.00376861 -0.0476565 -7.44541e-13 6.41218e-13 -6.6029e-13 0 1.20066e-15
1944 18 0.001 0.0257464 -0.00400133 -0.0478872 -8.2956e-13 5.22524e-13 -6.14662e-13 0 1.02449e-15
1945 18 0.001 0.0267144 -0.00399512 -0.0481338 -7.53599e-13 3.79914e-13 -5.6302e-13 0 7.18343e-16
1946 18 0.001 0.0276462 -0.00375171 -0.0483994 -6.93614e-13 2.62579e-13 -4.77343e-13 0 3.74754e-16
1947 18 0.001 0.0284835 -0.00328783 -0.0486853 -6.18578e-13 1.44483e-13 -3.62535e-13 0 1.11839e-16
378 11 0.001 -0.0560579 -0.00331027 -0.0474378 -6.45961e-13 8.03571e-13 -6.92718e-13 0 1.20044e-15
754 12 0.001 -0.0360577 -0.0033104 -0.0474377 -7.02275e-13 7.57802e-13 -6.43438e-13 0 1.2058e-15
1150 14 0.001 -0.0160577 -0.0033104 -0.0474377 -6.92259e-13 7.80855e-13 -6.43854e-13 0 1.2058e-15
1546 16 0.001 0.00394226 -0.0033104 -0.0474377 -6.9681e-13 7.65961e-13 -6.4574e-13 0 1.2058e-15
1942 18 0.001 0.0239423 -0.0033104 -0.0474377 -6.74272e-13 7.69106e-13 -6.4928e-13 0 1.2058e-15
376 11 0.001 -0.0573219 -0.00184122 -0.0470157 -5.0248e-13 9.54761e-13 -5.30883e-13 0 7.99244e-16
377 11 0.001 -0.056781 -0.00265438 -0.0472259 -6.49641e-13 8.93438e-13 -6.14776e-13 0 1.04844e-15
753 12 0.001 -0.0367809 -0.00265453 -0.0472258 -6.17652e-13 8.5892e-13 -5.96429e-13 0 1.05534e-15
752 12 0.001 -0.0373218 -0.00184138 -0.0470156 -4.16583e-13 9.1964e-13 -5.10929e-13 0 8.06547e-16
1149 14 0.001 -0.0167809 -0.00265453 -0.0472258 -6.17203e-13 8.43999e-13 -5.97828e-13 0 1.05534e-15
1148 14 0.001 -0.0173218 -0.00184138 -0.0470156 -4.33281e-13 9.28243e-13 -5.08833e-13 0 8.06547e-16
1544 16 0.001 0.00267816 -0.00184138 -0.0470156 -4.62053e-13 9.26431e-13 -5.06809e-13 0 8.06547e-16
1545 16 0.001 0.00321911 -0.00265453 -0.0472258 -5.88812e-13 8.54052e-13 -5.99553e-13 0 1.05534e-15
1941 18 0.001 0.0232191 -0.00265453 -0.0472258 -6.26429e-13 8.48942e-13 -5.95712e-13 0 1.05534e-15
1940 18 0.001 0.0226782 -0.00184138 -0.0470156 -4.29326e-13 9.32686e-13 -5.08943e-13 0 8.06547e-16
375 11 0.001 -0.0576472 -0.0009211 -0.0468023 -2.81469e-13 9.86348e-13 -4.04471e-13 0 5.25667e-16
751 12 0.001 -0.0376472 -0.000921264 -0.0468022 -3.64252e-13 9.50326e-13 -3.87184e-13 0 5.32363e-16
1147 14 0.001 -0.0176472 -0.000921264 -0.0468022 -3.37404e-13 9.41737e-13 -3.89169e-13 0 5.32363e-16
1543 16 0.001 0.00235281 -0.000921264 -0.0468022 -3.17594e-13 9.40959e-13 -3.89451e-13 0 5.32363e-16
1939 18 0.001 0.0223528 -0.000921264 -0.0468022 -3.30771e-13 9.39226e-13 -3.8927e-13 0 5.32363e-16
373 11 0.001 -0.0575869 0.00100906 -0.0463495 -2.37216e-15 8.86138e-13 -1.21766e-13 0 1.25954e-16
374 11 0.001 -0.0577372 4.89969e-05 -0.0465813 -1.94266e-13 9.70191e-13 -2.55631e-13 0 2.89764e-16
749 12 0.001 -0.0375869 0.00100891 -0.0463495 -4.01824e-14 8.47761e-13 -1.10351e-13 0 1.29614e-16
750 12 0.001 -0.0377372 4.8833e-05 -0.0465812 -1.26393e-13 9.16214e-13 -2.48364e-13 0 2.95123e-16
1145 14 0.001 -0.0175869 0.00100891 -0.0463495 -4.9743e-14 8.44016e-13 -1.12377e-13 0 1.29614e-16
1146 14 0.001 -0.0177372 4.8833e-05 -0.0465812 -1.41825e-13 9.22113e-13 -2.4766e-13 0 2.95123e-16
1541 16 0.001 0.00241305 0.00100891 -0.0463495 -1.95383e-14 8.47835e-13 -1.08355e-13 0 1.29614e-16
1542 16 0.001 0.00226281 4.8833e-05 -0.0465812 -1.68969e-13 9.19233e-13 -2.50466e-13 0 2.95123e-16
1937 18 0.001 0.0224131 0.00100891 -0.0463495 -6.29971e-14 8.52095e-13 -1.13214e-13 0 1.29614e-16
1938 18 0.001 0.0222628 4.8833e-05 -0.0465812 -1.46509e-13 9.1498e-13 -2.48813e-13 0 2.95123e-16
372 11 0.001 -0.0572065 0.00189985 -0.0461051 1.40747e-13 8.11941e-13 3.81192e-14 0 3.76237e-17
748 12 0.001 -0.0372065 0.00189971 -0.046105 9.88714e-14 7.70581e-13 2.53627e-14 0 3.95924e-17
1144 14 0.001 -0.0172065 0.00189971 -0.046105 1.32709e-13 7.73457e-13 3.18242e-14 0 3.95924e-17
1540 16 0.001 0.00279347 0.00189971 -0.046105 1.2363e-13 7.76386e-13 3.13493e-14 0 3.95924e-17
1936 18 0.001 0.0227935 0.00189971 -0.046105 1.61863e-13 7.73142e-13 3.6776e-14 0 3.95924e-17
371 11 0.001 -0.0566202 0.00266654 -0.0458472 2.75398e-13 6.57599e-13 1.3584e-13 0 5.46441e-18
747 12 0.001 -0.0366203 0.00266643 -0.0458472 2.91218e-13 6.31999e-13 1.54604e-13 0 6.05137e-18
1143 14 0.001 -0.0166203 0.00266643 -0.0458472 2.52758e-13 6.37077e-13 1.47018e-13 0 6.05137e-18
1539 16 0.001 0.00337972 0.00266643 -0.0458472 2.52492e-13 6.33932e-13 1.46591e-13 0 6.05137e-18
1935 18 0.001 0.0233797 0.00266643 -0.0458472 2.30733e-13 6.33926e-13 1.42652e-13 0 6.05137e-18
370 11 0.001 -0.0558651 0.0032621 -0.0455766 3.20383e-13 4.99338e-13 2.10084e-13 0 1.80186e-18
369 11 0.001 -0.0549887 0.00365009 -0.045295 4.78722e-13 3.08788e-13 2.60056e-13 0 4.1438e-18
368 11 0.001 -0.0540456 0.00380692 -0.045005 4.48705e-13 1.22551e-13 2.35211e-13 0 2.87054e-18
367 11 0.001 -0.053095 0.00372322 -0.0447096 4.17698e-13 -6.93756e-14 1.67041e-13 0 1.27716e-18
745 12 0.001 -0.0349888 0.00365004 -0.045295 4.08814e-13 3.05543e-13 2.55039e-13 0 3.52846e-18
746 12 0.001 -0.0358652 0.00326201 -0.0455766 2.82229e-13 4.71255e-13 2.03075e-13 0 1.50875e-18
744 12 0.001 -0.0340458 0.00380691 -0.045005 4.36755e-13 1.1436e-13 2.39321e-13 0 2.41766e-18
743 12 0.001 -0.0330951 0.00372325 -0.0447096 4.44891e-13 -6.88424e-14 1.9334e-13 0 1.30333e-18
1142 14 0.001 -0.0158652 0.00326201 -0.0455766 3.19653e-13 4.6873e-13 2.12421e-13 0 1.50875e-18
1140 14 0.001 -0.0140458 0.00380691 -0.045005 4.20458e-13 1.22865e-13 2.33927e-13 0 2.41766e-18
1141 14 0.001 -0.0149888 0.00365004 -0.045295 3.94997e-13 3.02107e-13 2.50953e-13 0 3.52846e-18
1139 14 0.001 -0.0130951 0.00372325 -0.0447096 4.30131e-13 -8.50306e-14 1.90844e-13 0 1.30333e-18
1538 16 0.001 0.00413475 0.00326201 -0.0455766 3.16339e-13 4.70402e-13 2.11539e-13 0 1.50875e-18
1537 16 0.001 0.00501119 0.00365004 -0.045295 3.95623e-13 2.96312e-13 2.50766e-13 0 3.52846e-18
1536 16 0.001 0.00595421 0.00380691 -0.045005 4.21072e-13 1.24328e-13 2.3466e-13 0 2.41766e-18
1535 16 0.001 0.00690487 0.00372325 -0.0447096 4.38588e-13 -8.24776e-14 1.92817e-13 0 1.30333e-18
1933 18 0.001 0.0250112 0.00365004 -0.045295 4.02226e-13 3.03411e-13 2.53098e-13 0 3.52846e-18
1934 18 0.001 0.0241348 0.00326201 -0.0455766 3.24271e-13 4.6981e-13 2.13033e-13 0 1.50875e-18
1932 18 0.001 0.0259542 0.00380691 -0.045005 4.03248e-13 1.2056e-13 2.29041e-13 0 2.41766e-18
1931 18 0.001 0.0269049 0.00372325 -0.0447096 4.44195e-13 -8.6194e-14 1.95016e-13 0 1.30333e-18
361 11 0.001 -0.0501587 -0.000593299 -0.0429821 -1.63132e-13 -7.42487e-13 -4.13032e-13 0 2.29183e-16
737 12 0.001 -0.0301587 -0.000593149 -0.0429821 -1.68647e-13 -6.85959e-13 -4.1152e-13 0 2.30523e-16
1133 14 0.001 -0.0101587 -0.000593149 -0.0429821 -1.57296e-13 -6.90764e-13 -4.10859e-13 0 2.30523e-16
1529 16 0.001 0.00984131 -0.000593149 -0.0429821 -1.7261e-13 -6.9232e-13 -4.10143e-13 0 2.30523e-16
1925 18 0.001 0.0298413 -0.000593149 -0.0429821 -1.5603e-13 -6.89347e-13 -4.10844e-13 0 2.30523e-16
362 11 0.001 -0.0501286 0.000367189 -0.0432552 -8.12945e-14 -7.18521e-13 -3.61195e-13 0 1.94154e-16
363 11 0.001 -0.0503378 0.00130295 -0.0435355 1.804e-13 -6.51662e-13 -2.53268e-13 0 1.40453e-16
738 12 0.001 -0.0301286 0.000367339 -0.0432551 -5.48659e-14 -6.93966e-13 -3.46316e-13 0 1.95628e-16
739 12 0.001 -0.0303379 0.00130309 -0.0435355 1.60947e-13 -6.35144e-13 -2.37842e-13 0 1.41992e-16
1134 14 0.001 -0.0101286 0.000367339 -0.0432551 -3.5446e-14 -6.90334e-13 -3.44488e-13 0 1.95628e-16
1135 14 0.001 -0.0103379 0.00130309 -0.0435355 1.07016e-13 -6.45896e-13 -2.42479e-13 0 1.41992e-16
1530 16 0.001 0.00987138 0.000367339 -0.0432551 -3.38014e-14 -6.87349e-13 -3.45414e-13 0 1.95628e-16
1531 16 0.001 0.00966214 0.00130309 -0.0435355 1.0988e-13 -6.44644e-13 -2.42838e-13 0 1.41992e-16
1926 18 0.001 0.0298714 0.000367339 -0.0432551 -5.78373e-14 -6.93765e-13 -3.45852e-13 0 1.95628e-16
1927 18 0.001 0.0296621 0.00130309 -0.0435355 1.48614e-13 -6.42387e-13 -2.38022e-13 0 1.41992e-16
365 11 0.001 -0.0514055 0.00287068 -0.0441156 3.62784e-13 -4.26688e-13 -1.77923e-14 0 3.64464e-17
364 11 0.001 -0.0507727 0.00215525 -0.0438227 1.97856e-13 -5.69023e-13 -1.53858e-13 0 8.29389e-17
740 12 0.001 -0.0307728 0.00215538 -0.0438227 1.60774e-13 -5.39461e-13 -1.55236e-13 0 8.43805e-17
741 12 0.001 -0.0314056 0.00287078 -0.0441156 3.69954e-13 -3.92231e-13 7.26261e-16 0 3.75712e-17
1136 14 0.001 -0.0107728 0.00215538 -0.0438227 2.24563e-13 -5.22726e-13 -1.47721e-13 0 8.43805e-17
1137 14 0.001 -0.0114056 0.00287078 -0.0441156 3.10753e-13 -4.07572e-13 -9.61454e-15 0 3.75712e-17
1533 16 0.001 0.00859443 0.00287078 -0.0441156 3.1611e-13 -4.16483e-13 -6.41609e-15 0 3.75712e-17
1532 16 0.001 0.00922724 0.00215538 -0.0438227 2.26851e-13 -5.21999e-13 -1.47142e-13 0 8.43805e-17
1928 18 0.001 0.0292272 0.00215538 -0.0438227 1.94463e-13 -5.22892e-13 -1.52267e-13 0 8.43805e-17
1929 18 0.001 0.0285944 0.00287078 -0.0441156 3.1714e-13 -4.10358e-13 -8.09468e-15 0 3.75712e-17
366 11 0.001 -0.0521961 0.00340447 -0.0444121 4.61556e-13 -2.68985e-13 1.02058e-13 0 9.54598e-18
742 12 0.001 -0.0321963 0.00340453 -0.0444121 3.54157e-13 -2.52582e-13 7.94348e-14 0 1.01601e-17
1138 14 0.001 -0.0121963 0.00340453 -0.0444121 4.05383e-13 -2.36726e-13 9.06596e-14 0 1.01601e-17
1534 16 0.001 0.00780372 0.00340453 -0.0444121 3.89242e-13 -2.31772e-13 8.52599e-14 0 1.01601e-17
1930 18 0.001 0.0278037 0.00340453 -0.0444121 4.02848e-13 -2.32807e-13 8.94312e-14 0 1.01601e-17
355 11 0.001 -0.0543194 -0.00384309 -0.0414429 -5.9744e-13 -6.45232e-14 -1.50775e-13 0 5.3661e-17
356 11 0.001 -0.0533536 -0.00380514 -0.0416951 -6.24631e-13 -2.10172e-13 -2.28906e-13 0 8.67448e-17
357 11 0.001 -0.0524269 -0.00352971 -0.041947 -5.64502e-13 -3.66973e-13 -3.26131e-13 0 1.30154e-16
358 11 0.001 -0.0515972 -0.003034 -0.0421999 -5.42071e-13 -5.17941e-13 -3.83946e-13 0 1.77125e-16
731 12 0.001 -0.0343193 -0.00384312 -0.0414428 -5.2764e-13 -4.89691e-14 -1.49877e-13 0 5.49061e-17
732 12 0.001 -0.0333534 -0.00380512 -0.0416951 -5.77513e-13 -2.35569e-13 -2.1965e-13 0 8.80253e-17
733 12 0.001 -0.0324267 -0.00352965 -0.0419469 -5.71191e-13 -3.40565e-13 -3.08207e-13 0 1.31417e-16
734 12 0.001 -0.0315971 -0.00303391 -0.0421999 -4.92153e-13 -4.85183e-13 -3.8054e-13 0 1.78341e-16
1127 14 0.001 -0.0143193 -0.00384312 -0.0414428 -5.52581e-13 -6.21183e-14 -1.41577e-13 0 5.49061e-17
1128 14 0.001 -0.0133534 -0.00380512 -0.0416951 -5.80624e-13 -2.1401e-13 -2.22143e-13 0 8.80253e-17
1129 14 0.001 -0.0124267 -0.00352965 -0.0419469 -5.5749e-13 -3.63395e-13 -3.07602e-13 0 1.31417e-16
1130 14 0.001 -0.0115971 -0.00303391 -0.0421999 -5.08748e-13 -4.72462e-13 -3.79849e-13 0 1.78341e-16
1523 16 0.001 0.00568071 -0.00384312 -0.0414428 -5.49181e-13 -6.42848e-14 -1.42515e-13 0 5.49061e-17
1524 16 0.001 0.0066466 -0.00380512 -0.0416951 -5.89238e-13 -2.13274e-13 -2.19201e-13 0 8.80253e-17
1525 16 0.001 0.00757326 -0.00352965 -0.0419469 -5.50314e-13 -3.57072e-13 -3.11028e-13 0 1.31417e-16
1526 16 0.001 0.00840289 -0.00303391 -0.0421999 -5.03489e-13 -4.78545e-13 -3.78815e-13 0 1.78341e-16
1919 18 0.001 0.0256807 -0.00384312 -0.0414428 -5.44252e-13 -6.06647e-14 -1.4403e-13 0 5.49061e-17
1920 18 0.001 0.0266466 -0.00380512 -0.0416951 -5.85783e-13 -2.20596e-13 -2.1984e-13 0 8.80253e-17
1921 18 0.001 0.0275733 -0.00352965 -0.0419469 -5.6617e-13 -3.46831e-13 -3.07942e-13 0 1.31417e-16
1922 18 0.001 0.0284029 -0.00303391 -0.0421999 -4.8347e-13 -4.84404e-13 -3.82643e-13 0 1.78341e-16
359 11 0.001 -0.0509164 -0.00234913 -0.0424557 -4.63601e-13 -6.13767e-13 -4.33802e-13 0 2.16609e-16
360 11 0.001 -0.0504268 -0.00151813 -0.0427159 -2.84067e-13 -6.95931e-13 -4.48913e-13 0 2.36642e-16
735 12 0.001 -0.0309163 -0.00234901 -0.0424556 -4.2066e-13 -5.98996e-13 -4.22099e-13 0 2.17798e-16
736 12 0.001 -0.0304267 -0.00151799 -0.0427159 -3.0313e-13 -6.69427e-13 -4.32004e-13 0 2.37871e-16
1131 14 0.001 -0.0109163 -0.00234901 -0.0424556 -4.1117e-13 -6.08695e-13 -4.21386e-13 0 2.17798e-16
1132 14 0.001 -0.0104267 -0.00151799 -0.0427159 -3.12739e-13 -6.59862e-13 -4.34041e-13 0 2.37871e-16
1527 16 0.001 0.0090837 -0.00234901 -0.0424556 -4.29384e-13 -6.05813e-13 -4.19936e-13 0 2.17798e-16
1528 16 0.001 0.0095733 -0.00151799 -0.0427159 -2.92179e-13 -6.61712e-13 -4.35045e-13 0 2.37871e-16
1923 18 0.001 0.0290837 -0.00234901 -0.0424556 -4.37631e-13 -6.06681e-13 -4.17671e-13 0 2.17798e-16
1924 18 0.001 0.0295733 -0.00151799 -0.0427159 -3.00578e-13 -6.6047e-13 -4.353e-13 0 2.37871e-16
353 11 0.001 -0.0561294 -0.00321239 -0.0409325 -4.77508e-13 2.22431e-13 -1.98294e-14 0 2.2002e-17
354 11 0.001 -0.0552643 -0.00364127 -0.0411889 -5.28628e-13 1.00056e-13 -6.78522e-14 0 3.26356e-17
729 12 0.001 -0.0361292 -0.0032125 -0.0409325 -3.99963e-13 2.10786e-13 -1.92746e-14 0 2.3153e-17
730 12 0.001 -0.0352642 -0.00364134 -0.0411889 -5.69647e-13 8.61599e-14 -4.03229e-14 0 3.38157e-17
1125 14 0.001 -0.0161292 -0.0032125 -0.0409325 -4.27354e-13 2.05012e-13 -1.29469e-14 0 2.3153e-17
1126 14 0.001 -0.0152642 -0.00364134 -0.0411889 -5.19683e-13 8.97642e-14 -5.38235e-14 0 3.38157e-17
1521 16 0.001 0.00387075 -0.0032125 -0.0409325 -4.10734e-13 2.12528e-13 -1.50993e-14 0 2.3153e-17
1522 16 0.001 0.00473582 -0.00364134 -0.0411889 -5.26377e-13 8.60616e-14 -5.30219e-14 0 3.38157e-17
1917 18 0.001 0.0238708 -0.0032125 -0.0409325 -4.0795e-13 2.05885e-13 -1.76623e-14 0 2.3153e-17
1918 18 0.001 0.0247358 -0.00364134 -0.0411889 -5.34305e-13 8.63746e-14 -5.018e-14 0 3.38157e-17
351 11 0.001 -0.0574133 -0.00179337 -0.0404109 -2.37394e-13 4.54571e-13 1.30845e-14 0 2.38196e-17
352 11 0.001 -0.0568608 -0.00258332 -0.0406731 -2.87362e-13 3.75736e-13 8.34483e-15 0 1.93748e-17
727 12 0.001 -0.0374132 -0.00179353 -0.0404108 -1.42546e-13 4.39173e-13 1.54866e-14 0 2.53378e-17
728 12 0.001 -0.0368607 -0.00258346 -0.0406731 -3.10597e-13 3.21458e-13 2.15792e-14 0 2.06157e-17
1123 14 0.001 -0.0174132 -0.00179353 -0.0404108 -2.07763e-13 4.23541e-13 1.71269e-14 0 2.53378e-17
1124 14 0.001 -0.0168607 -0.00258346 -0.0406731 -2.99075e-13 3.42143e-13 2.4559e-14 0 2.06157e-17
1519 16 0.001 0.0025868 -0.00179353 -0.0404108 -1.8356e-13 4.32878e-13 1.68825e-14 0 2.53378e-17
1520 16 0.001 0.00313928 -0.00258346 -0.0406731 -3.17463e-13 3.32871e-13 2.56174e-14 0 2.06157e-17
1915 18 0.001 0.0225868 -0.00179353 -0.0404108 -2.09536e-13 4.27552e-13 1.82725e-14 0 2.53378e-17
1916 18 0.001 0.0231393 -0.00258346 -0.0406731 -3.05555e-13 3.4151e-13 2.60795e-14 0 2.06157e-17
350 11 0.001 -0.0577525 -0.000891811 -0.040146 -4.37195e-14 5.01204e-13 -3.17701e-14 0 3.64727e-17
726 12 0.001 -0.0377524 -0.00089199 -0.0401459 -9.73732e-14 4.6487e-13 -1.15095e-14 0 3.84799e-17
1122 14 0.001 -0.0177524 -0.00089199 -0.0401459 -2.55394e-16 4.70671e-13 -1.58051e-14 0 3.84799e-17
1518 16 0.001 0.00224756 -0.00089199 -0.0401459 -3.40585e-14 4.63404e-13 -1.5995e-14 0 3.84799e-17
1914 18 0.001 0.0222476 -0.00089199 -0.0401459 -1.23473e-14 4.66705e-13 -1.68766e-14 0 3.84799e-17
348 11 0.001 -0.0577218 0.0010179 -0.039611 2.29463e-13 5.45852e-13 -1.47333e-13 0 9.4099e-17
349 11 0.001 -0.0578574 6.51556e-05 -0.0398791 1.58283e-13 5.63155e-13 -7.04563e-14 0 5.94964e-17
724 12 0.001 -0.0377218 0.00101772 -0.039611 2.91313e-13 4.79322e-13 -1.38486e-13 0 9.75455e-17
725 12 0.001 -0.0378575 6.49719e-05 -0.0398791 1.29255e-13 5.41592e-13 -6.20455e-14 0 6.2173e-17
1120 14 0.001 -0.0177218 0.00101772 -0.039611 2.85569e-13 4.78322e-13 -1.41298e-13 0 9.75455e-17
1121 14 0.001 -0.0178575 6.49719e-05 -0.0398791 8.03457e-14 5.37423e-13 -6.06834e-14 0 6.2173e-17
1516 16 0.001 0.00227817 0.00101772 -0.039611 2.65947e-13 4.86184e-13 -1.38944e-13 0 9.75455e-17
1517 16 0.001 0.00214254 6.49719e-05 -0.0398791 1.14288e-13 5.40157e-13 -6.03764e-14 0 6.2173e-17
1912 18 0.001 0.0222782 0.00101772 -0.039611 2.52896e-13 4.85322e-13 -1.4015e-13 0 9.75455e-17
1913 18 0.001 0.0221425 6.49719e-05 -0.0398791 1.13613e-13 5.39304e-13 -5.98026e-14 0 6.2173e-17
347 11 0.001 -0.057354 0.00190704 -0.0393424 4.35177e-13 5.04765e-13 -2.12582e-13 0 1.38745e-16
346 11 0.001 -0.056777 0.00267713 -0.039074 5.95374e-13 4.26385e-13 -2.64184e-13 0 1.88517e-16
722 12 0.001 -0.0367771 0.002677 -0.0390739 5.73207e-13 4.00649e-13 -2.53267e-13 0 1.93387e-16
723 12 0.001 -0.0373541 0.00190688 -0.0393424 3.75011e-13 4.88875e-13 -1.99541e-13 0 1.42957e-16
1118 14 0.001 -0.0167771 0.002677 -0.0390739 5.10717e-13 3.96647e-13 -2.67702e-13 0 1.93387e-16
1119 14 0.001 -0.0173541 0.00190688 -0.0393424 4.03922e-13 4.91533e-13 -1.93326e-13 0 1.42957e-16
1515 16 0.001 0.00264594 0.00190688 -0.0393424 4.05254e-13 4.78461e-13 -1.98212e-13 0 1.42957e-16
1514 16 0.001 0.00322291 0.002677 -0.0390739 5.27179e-13 4.06195e-13 -2.61304e-13 0 1.93387e-16
1910 18 0.001 0.0232229 0.002677 -0.0390739 5.15343e-13 4.03031e-13 -2.63283e-13 0 1.93387e-16
1911 18 0.001 0.0226459 0.00190688 -0.0393424 4.16455e-13 4.78462e-13 -1.97349e-13 0 1.42957e-16
345 11 0.001 -0.0560268 0.00328007 -0.0388062 6.1786e-13 3.37443e-13 -3.22425e-13 0 2.35986e-16
344 11 0.001 -0.0551502 0.00367819 -0.0385395 6.7146e-13 1.79768e-13 -3.53399e-13 0 2.73247e-16
721 12 0.001 -0.0360269 0.00327998 -0.0388062 5.47088e-13 3.06808e-13 -3.23985e-13 0 2.41336e-16
720 12 0.001 -0.0351504 0.00367813 -0.0385395 7.05982e-13 1.72151e-13 -3.20639e-13 0 2.78868e-16
1117 14 0.001 -0.0160269 0.00327998 -0.0388062 6.3729e-13 3.02241e-13 -3.03325e-13 0 2.41337e-16
1116 14 0.001 -0.0151504 0.00367813 -0.0385395 6.68306e-13 1.90174e-13 -3.28337e-13 0 2.78868e-16
1513 16 0.001 0.00397307 0.00327998 -0.0388062 6.09879e-13 2.99688e-13 -3.10362e-13 0 2.41337e-16
1512 16 0.001 0.00484964 0.00367813 -0.0385395 6.83939e-13 1.84369e-13 -3.25086e-13 0 2.78868e-16
1909 18 0.001 0.0239731 0.00327998 -0.0388062 6.31744e-13 3.05297e-13 -3.05576e-13 0 2.41337e-16
1908 18 0.001 0.0248496 0.00367813 -0.0385395 6.44198e-13 1.80587e-13 -3.3475e-13 0 2.78868e-16
338 11 0.001 -0.0504094 0.00138483 -0.0369568 3.38238e-13 -4.2698e-13 -7.93947e-14 0 1.86e-16
714 12 0.001 -0.0304094 0.00138502 -0.0369567 2.39059e-13 -3.9064e-13 -8.29058e-14 0 1.90522e-16
1110 14 0.001 -0.0104094 0.00138502 -0.0369567 2.75176e-13 -3.94455e-13 -7.92618e-14 0 1.90522e-16
1506 16 0.001 0.00959055 0.00138502 -0.0369567 2.78512e-13 -3.93868e-13 -7.91544e-14 0 1.90522e-16
1902 18 0.001 0.0295906 0.00138502 -0.0369567 2.69365e-13 -3.90039e-13 -8.12731e-14 0 1.90522e-16
340 11 0.001 -0.0515198 0.00294186 -0.0374829 5.39026e-13 -3.0962e-13 -2.03981e-13 0 2.54013e-16
339 11 0.001 -0.0508666 0.0022332 -0.0372199 4.4302e-13 -4.19024e-13 -1.24194e-13 0 2.20161e-16
716 12 0.001 -0.0315199 0.00294199 -0.0374828 4.97662e-13 -2.89911e-13 -1.95366e-13 0 2.59119e-16
715 12 0.001 -0.0308667 0.00223336 -0.0372199 4.68873e-13 -3.79428e-13 -1.09952e-13 0 2.24968e-16
1111 14 0.001 -0.0108667 0.00223336 -0.0372199 4.31049e-13 -3.7811e-13 -1.15506e-13 0 2.24968e-16
1112 14 0.001 -0.0115199 0.00294199 -0.0374828 5.32246e-13 -2.86136e-13 -1.90034e-13 0 2.59119e-16
1508 16 0.001 0.00848006 0.00294199 -0.0374828 5.1925e-13 -2.87831e-13 -1.92225e-13 0 2.59119e-16
1507 16 0.001 0.0091333 0.00223336 -0.0372199 4.36829e-13 -3.74901e-13 -1.14991e-13 0 2.24968e-16
1904 18 0.001 0.0284801 0.00294199 -0.0374828 5.63119e-13 -2.89756e-13 -1.82601e-13 0 2.59119e-16
1903 18 0.001 0.0291333 0.00223336 -0.0372199 4.25692e-13 -3.76747e-13 -1.17082e-13 0 2.24968e-16
343 11 0.001 -0.0542019 0.00384653 -0.038274 7.636e-13 7.05867e-14 -3.26017e-13 0 2.94255e-16
342 11 0.001 -0.0532413 0.00377451 -0.0380096 7.08076e-13 -7.86526e-14 -3.07706e-13 0 2.96516e-16
341 11 0.001 -0.0523282 0.00346655 -0.037746 6.81727e-13 -1.97442e-13 -2.51765e-13 0 2.81539e-16
719 12 0.001 -0.0342021 0.00384652 -0.038274 7.06254e-13 7.107e-14 -3.23952e-13 0 2.99944e-16
718 12 0.001 -0.0332415 0.00377455 -0.0380095 6.58617e-13 -7.29375e-14 -2.98808e-13 0 3.02108e-16
717 12 0.001 -0.0323284 0.00346664 -0.0377459 6.41077e-13 -1.80353e-13 -2.45626e-13 0 2.86921e-16
1115 14 0.001 -0.0142021 0.00384652 -0.038274 6.79472e-13 6.10317e-14 -3.31268e-13 0 2.99944e-16
1113 14 0.001 -0.0123284 0.00346664 -0.0377459 6.17658e-13 -1.81569e-13 -2.498e-13 0 2.86921e-16
1114 14 0.001 -0.0132415 0.00377455 -0.0380095 6.85498e-13 -7.46438e-14 -2.92653e-13 0 3.02108e-16
1511 16 0.001 0.00579787 0.00384652 -0.038274 6.78182e-13 6.47235e-14 -3.31028e-13 0 2.99944e-16
1510 16 0.001 0.00675855 0.00377455 -0.0380095 6.84188e-13 -7.14808e-14 -2.93261e-13 0 3.02108e-16
1509 16 0.001 0.00767163 0.00346664 -0.0377459 6.25544e-13 -1.84007e-13 -2.48011e-13 0 2.86921e-16
1907 18 0.001 0.0257979 0.00384652 -0.038274 7.16635e-13 6.35611e-14 -3.21161e-13 0 2.99944e-16
1906 18 0.001 0.0267585 0.00377455 -0.0380095 6.85814e-13 -6.61375e-14 -2.93485e-13 0 3.02108e-16
1905 18 0.001 0.0276716 0.00346664 -0.0377459 5.81981e-13 -1.85724e-13 -2.57749e-13 0 2.86921e-16
333 11 0.001 -0.0515582 -0.0029859 -0.0356319 -3.91576e-13 -2.80437e-13 -5.18812e-14 0 1.12389e-16
334 11 0.001 -0.0508961 -0.00228679 -0.0358981 -2.70743e-13 -3.37848e-13 -2.55549e-14 0 1.11578e-16
709 12 0.001 -0.031558 -0.00298578 -0.0356319 -3.79798e-13 -2.49155e-13 -4.43215e-14 0 1.16636e-16
710 12 0.001 -0.0308959 -0.00228663 -0.0358981 -2.64408e-13 -3.39666e-13 -2.94859e-15 0 1.15658e-16
1105 14 0.001 -0.011558 -0.00298578 -0.0356319 -3.82158e-13 -2.49863e-13 -4.26219e-14 0 1.16636e-16
1106 14 0.001 -0.0108959 -0.00228663 -0.0358981 -2.70654e-13 -3.48698e-13 -6.42912e-16 0 1.15658e-16
1501 16 0.001 0.00844201 -0.00298578 -0.0356319 -3.77939e-13 -2.50633e-13 -4.35413e-14 0 1.16636e-16
1502 16 0.001 0.00910408 -0.00228663 -0.0358981 -2.68025e-13 -3.43858e-13 -1.91554e-15 0 1.15658e-16
1897 18 0.001 0.028442 -0.00298578 -0.0356319 -3.75183e-13 -2.51254e-13 -4.47985e-14 0 1.16636e-16
1898 18 0.001 0.0291041 -0.00228663 -0.0358981 -2.5004e-13 -3.35483e-13 -5.90373e-15 0 1.15658e-16
335 11 0.001 -0.0504279 -0.0014452 -0.0361638 -1.52713e-13 -4.20393e-13 -5.81331e-16 0 1.18363e-16
336 11 0.001 -0.050183 -0.000513637 -0.0364288 5.04263e-14 -4.72272e-13 -2.41288e-15 0 1.33216e-16
711 12 0.001 -0.0304278 -0.00144501 -0.0361638 -1.04953e-13 -3.78147e-13 6.98341e-16 0 1.224e-16
712 12 0.001 -0.030183 -0.000513436 -0.0364288 -3.54935e-14 -4.22284e-13 3.95754e-15 0 1.37326e-16
1107 14 0.001 -0.0104278 -0.00144501 -0.0361638 -1.1958e-13 -3.57374e-13 -3.47876e-15 0 1.224e-16
1108 14 0.001 -0.010183 -0.000513436 -0.0364288 8.96936e-15 -4.40983e-13 7.07431e-15 0 1.37326e-16
1503 16 0.001 0.00957217 -0.00144501 -0.0361638 -1.24537e-13 -3.68213e-13 -7.47458e-16 0 1.224e-16
1504 16 0.001 0.00981702 -0.000513436 -0.0364288 1.39903e-14 -4.27454e-13 3.8033e-15 0 1.37326e-16
1899 18 0.001 0.0295722 -0.00144501 -0.0361638 -1.42644e-13 -3.8814e-13 7.12371e-15 0 1.224e-16
1900 18 0.001 0.029817 -0.000513436 -0.0364288 1.89761e-14 -4.04579e-13 -4.76833e-15 0 1.37326e-16
337 11 0.001 -0.0501767 0.000449754 -0.0366931 8.75366e-14 -4.72129e-13 -3.04856e-14 0 1.56118e-16
713 12 0.001 -0.0301767 0.000449955 -0.0366931 1.98315e-13 -4.67701e-13 -6.9056e-15 0 1.60397e-16
1109 14 0.001 -0.0101767 0.000449955 -0.0366931 1.54506e-13 -4.59755e-13 -9.17833e-15 0 1.60397e-16
1505 16 0.001 0.00982329 0.000449955 -0.0366931 1.49519e-13 -4.68383e-13 -7.44578e-15 0 1.60397e-16
1901 18 0.001 0.0298233 0.000449955 -0.0366931 1.56783e-13 -4.79171e-13 -2.48706e-15 0 1.60397e-16
328 11 0.001 -0.0560673 -0.0032597 -0.0343011 -5.29167e-13 3.63269e-13 -2.61602e-13 0 1.95856e-16
329 11 0.001 -0.0551961 -0.00367038 -0.0345665 -4.79926e-13 2.49542e-13 -2.65934e-13 0 1.7372e-16
330 11 0.001 -0.0542505 -0.00385219 -0.0348325 -5.86343e-13 9.8725e-14 -1.99379e-13 0 1.52317e-16
331 11 0.001 -0.0532894 -0.00379381 -0.0350989 -5.17114e-13 -1.05487e-14 -1.64059e-13 0 1.33852e-16
332 11 0.001 -0.0523729 -0.00349891 -0.0353654 -5.01724e-13 -1.45812e-13 -9.9517e-14 0 1.20113e-16
704 12 0.001 -0.0360671 -0.00325984 -0.034301 -5.0724e-13 3.32033e-13 -2.52498e-13 0 2.0212e-16
705 12 0.001 -0.0351959 -0.00367047 -0.0345665 -4.9744e-13 2.41899e-13 -2.36576e-13 0 1.79535e-16
706 12 0.001 -0.0342503 -0.00385222 -0.0348325 -4.94971e-13 1.02917e-13 -2.04338e-13 0 1.57668e-16
707 12 0.001 -0.0332892 -0.00379379 -0.0350988 -5.17174e-13 -7.86874e-15 -1.44891e-13 0 1.38763e-16
708 12 0.001 -0.0323727 -0.00349883 -0.0353654 -4.154e-13 -1.2178e-13 -1.0122e-13 0 1.24645e-16
1100 14 0.001 -0.0160671 -0.00325984 -0.034301 -4.64326e-13 3.33208e-13 -2.61964e-13 0 2.0212e-16
1101 14 0.001 -0.0151959 -0.00367047 -0.0345665 -5.07468e-13 2.33065e-13 -2.34796e-13 0 1.79535e-16
1102 14 0.001 -0.0142503 -0.00385222 -0.0348325 -5.13174e-13 1.05211e-13 -2.00214e-13 0 1.57668e-16
1104 14 0.001 -0.0123727 -0.00349883 -0.0353654 -4.21512e-13 -1.27032e-13 -9.96773e-14 0 1.24645e-16
1103 14 0.001 -0.0132892 -0.00379379 -0.0350988 -4.97746e-13 -3.48758e-16 -1.49545e-13 0 1.38763e-16
1496 16 0.001 0.00393292 -0.00325984 -0.034301 -4.58505e-13 3.40474e-13 -2.62178e-13 0 2.0212e-16
1497 16 0.001 0.00480409 -0.00367047 -0.0345665 -5.14457e-13 2.29432e-13 -2.33174e-13 0 1.79535e-16
1498 16 0.001 0.00574972 -0.00385222 -0.0348325 -5.06541e-13 1.09405e-13 -2.02077e-13 0 1.57668e-16
1499 16 0.001 0.00671079 -0.00379379 -0.0350988 -4.96122e-13 -5.78689e-15 -1.49564e-13 0 1.38763e-16
1500 16 0.001 0.00762729 -0.00349883 -0.0353654 -4.29222e-13 -1.24499e-13 -9.80657e-14 0 1.24645e-16
1892 18 0.001 0.0239329 -0.00325984 -0.034301 -4.50044e-13 3.27883e-13 -2.66116e-13 0 2.0212e-16
1893 18 0.001 0.0248041 -0.00367047 -0.0345665 -5.20283e-13 2.37132e-13 -2.31048e-13 0 1.79535e-16
1894 18 0.001 0.0257497 -0.00385222 -0.0348325 -5.17508e-13 1.0622e-13 -1.99648e-13 0 1.57668e-16
1895 18 0.001 0.0267108 -0.00379379 -0.0350988 -4.79034e-13 -7.41732e-15 -1.53e-13 0 1.38763e-16
1896 18 0.001 0.0276273 -0.00349883 -0.0353654 -4.44948e-13 -1.23424e-13 -9.48999e-14 0 1.24645e-16
327 11 0.001 -0.0568095 -0.00264577 -0.0340362 -3.82578e-13 4.53718e-13 -2.84084e-13 0 2.16408e-16
703 12 0.001 -0.0368094 -0.00264595 -0.0340361 -3.60892e-13 4.36592e-13 -2.69979e-13 0 2.23078e-16
1099 14 0.001 -0.0168094 -0.00264595 -0.0340361 -3.71458e-13 4.43332e-13 -2.66136e-13 0 2.23078e-16