ITEM: TIMESTEP
1200000
ITEM: NUMBER OF ATOMS
1970
ITEM: BOX BOUNDS ff ff ff
-6.0000000000000005e-02 6.0000000000000005e-02
-6.0000000000000001e-03 6.0000000000000001e-03
-5.5000000000000000e-02 5.5000000000000000e-02
ITEM: ATOMS id type radius x y z fx fy fz c_bendingE c_stretchingE
384 11 0.001 -0.0509364 -0.00261495 -0.0490391 -5.31045e-12 1.00845e-12 -3.29345e-12 0 4.1693e-15
385 11 0.001 -0.0504013 -0.00182788 -0.0493428 -3.69886e-12 3.9687e-13 -1.73357e-12 0 3.81808e-15
760 12 0.001 -0.0309364 -0.00261495 -0.0490391 -5.30671e-12 1.00064e-12 -3.29186e-12 0 4.1693e-15
761 12 0.001 -0.0304013 -0.00182788 -0.0493428 -3.70336e-12 4.03218e-13 -1.73568e-12 0 3.81808e-15
1156 14 0.001 -0.0109364 -0.00261495 -0.0490391 -5.30312e-12 9.96711e-13 -3.29122e-12 0 4.1693e-15
1157 14 0.001 -0.0104013 -0.00182788 -0.0493428 -3.71308e-12 4.04425e-13 -1.73493e-12 0 3.81808e-15
1552 16 0.001 0.00906363 -0.00261495 -0.0490391 -5.32193e-12 9.95393e-13 -3.28843e-12 0 4.1693e-15
1553 16 0.001 0.00959871 -0.00182788 -0.0493428 -3.70005e-12 4.05373e-13 -1.7361e-12 0 3.81808e-15
1948 18 0.001 0.0290636 -0.00261495 -0.0490391 -5.31204e-12 1.00018e-12 -3.29122e-12 0 4.1693e-15
1949 18 0.001 0.0295987 -0.00182788 -0.0493428 -3.69901e-12 4.00382e-13 -1.73459e-12 0 3.81808e-15
2 2 0.001 -0.05 -4.31175e-17 -0.05 -9.4545e-06 1.5226e-05 8.24572e-07 0 1.74493e-19
386 11 0.001 -0.0500828 -0.000937274 -0.0496643 -1.91261e-12 4.95181e-14 -5.98243e-13 0 5.46589e-16
762 12 0.001 -0.0300828 -0.000937274 -0.0496643 -1.90255e-12 4.89947e-14 -5.98198e-13 0 5.46589e-16
4 4 0.001 -0.03 -4.31175e-17 -0.05 -9.4545e-06 1.5226e-05 8.24572e-07 0 1.74493e-19
6 6 0.001 -0.01 -4.31175e-17 -0.05 -9.4545e-06 1.5226e-05 8.24572e-07 0 1.74493e-19
1158 14 0.001 -0.0100828 -0.000937274 -0.0496643 -1.90028e-12 4.2306e-14 -5.96266e-13 0 5.46589e-16
8 8 0.001 0.01 -4.31175e-17 -0.05 -9.4545e-06 1.5226e-05 8.24572e-07 0 1.74493e-19
1554 16 0.001 0.00991721 -0.000937274 -0.0496643 -1.90816e-12 4.61287e-14 -5.97315e-13 0 5.46589e-16
10 10 0.001 0.03 -4.31175e-17 -0.05 -9.4545e-06 1.5226e-05 8.24572e-07 0 1.74493e-19
1950 18 0.001 0.0299172 -0.000937274 -0.0496643 -1.91002e-12 4.90468e-14 -5.98174e-13 0 5.46589e-16
378 11 0.001 -0.0562115 -0.00312572 -0.0475685 -7.10547e-12 7.69294e-12 -8.3895e-12 0 6.543e-15
379 11 0.001 -0.0553665 -0.00361105 -0.0477887 -8.02027e-12 6.65123e-12 -9.25536e-12 0 5.39645e-15
380 11 0.001 -0.0544291 -0.00387422 -0.0480123 -8.3867e-12 5.47698e-12 -9.20851e-12 0 3.57224e-15
381 11 0.001 -0.0534578 -0.0038993 -0.0482448 -8.26535e-12 4.20076e-12 -8.35018e-12 0 1.58563e-15
382 11 0.001 -0.0525135 -0.00368565 -0.0484911 -7.67247e-12 2.94985e-12 -6.8804e-12 0 3.40237e-16
383 11 0.001 -0.0516553 -0.00324791 -0.0487552 -6.66584e-12 1.87851e-12 -5.09639e-12 0 9.16107e-16
754 12 0.001 -0.0362115 -0.00312572 -0.0475685 -7.11505e-12 7.67425e-12 -8.39129e-12 0 6.543e-15
755 12 0.001 -0.0353665 -0.00361105 -0.0477887 -7.98995e-12 6.65714e-12 -9.25984e-12 0 5.39645e-15
756 12 0.001 -0.0344291 -0.00387422 -0.0480123 -8.40238e-12 5.47347e-12 -9.20722e-12 0 3.57224e-15
757 12 0.001 -0.0334578 -0.0038993 -0.0482448 -8.26476e-12 4.20212e-12 -8.34913e-12 0 1.58563e-15
758 12 0.001 -0.0325135 -0.00368565 -0.0484911 -7.66609e-12 2.94793e-12 -6.8816e-12 0 3.40237e-16
759 12 0.001 -0.0316553 -0.00324791 -0.0487552 -6.68014e-12 1.88131e-12 -5.09426e-12 0 9.16107e-16
1151 14 0.001 -0.0153665 -0.00361105 -0.0477887 -8.00155e-12 6.67994e-12 -9.2541e-12 0 5.39645e-15
1150 14 0.001 -0.0162115 -0.00312572 -0.0475685 -7.18182e-12 7.64798e-12 -8.3859e-12 0 6.543e-15
1152 14 0.001 -0.0144291 -0.00387422 -0.0480123 -8.39202e-12 5.47185e-12 -9.20964e-12 0 3.57224e-15
1153 14 0.001 -0.0134578 -0.0038993 -0.0482448 -8.27016e-12 4.19718e-12 -8.34752e-12 0 1.58563e-15
1154 14 0.001 -0.0125135 -0.00368565 -0.0484911 -7.66369e-12 2.9498e-12 -6.88239e-12 0 3.40237e-16
1155 14 0.001 -0.0116553 -0.00324791 -0.0487552 -6.67027e-12 1.88867e-12 -5.09799e-12 0 9.16107e-16
1546 16 0.001 0.00378851 -0.00312572 -0.0475685 -7.17509e-12 7.64479e-12 -8.38825e-12 0 6.543e-15
1547 16 0.001 0.00463349 -0.00361105 -0.0477887 -8.01156e-12 6.67295e-12 -9.2524e-12 0 5.39645e-15
1548 16 0.001 0.00557092 -0.00387422 -0.0480123 -8.39175e-12 5.47964e-12 -9.20949e-12 0 3.57224e-15
1549 16 0.001 0.00654218 -0.0038993 -0.0482448 -8.26282e-12 4.19476e-12 -8.34916e-12 0 1.58563e-15
1550 16 0.001 0.00748646 -0.00368565 -0.0484911 -7.6738e-12 2.95093e-12 -6.88087e-12 0 3.40237e-16
1551 16 0.001 0.00834474 -0.00324791 -0.0487552 -6.65305e-12 1.88666e-12 -5.10005e-12 0 9.16107e-16
1942 18 0.001 0.0237885 -0.00312572 -0.0475685 -7.16926e-12 7.64005e-12 -8.39042e-12 0 6.543e-15
1943 18 0.001 0.0246335 -0.00361105 -0.0477887 -8.04986e-12 6.68023e-12 -9.24411e-12 0 5.39645e-15
1944 18 0.001 0.0255709 -0.00387422 -0.0480123 -8.36175e-12 5.47825e-12 -9.21572e-12 0 3.57224e-15
1945 18 0.001 0.0265422 -0.0038993 -0.0482448 -8.26759e-12 4.192e-12 -8.34883e-12 0 1.58563e-15
1946 18 0.001 0.0274865 -0.00368565 -0.0484911 -7.66281e-12 2.95185e-12 -6.88218e-12 0 3.40237e-16
1947 18 0.001 0.0283447 -0.00324791 -0.0487552 -6.67374e-12 1.88429e-12 -5.0962e-12 0 9.16107e-16
376 11 0.001 -0.057423 -0.00162142 -0.0471175 -4.27042e-12 8.44446e-12 -4.38758e-12 0 6.6005e-15
377 11 0.001 -0.0569114 -0.00244841 -0.0473463 -6.12532e-12 8.21083e-12 -6.67248e-12 0 6.89336e-15
753 12 0.001 -0.0369114 -0.00244841 -0.0473463 -6.09042e-12 8.22465e-12 -6.67199e-12 0 6.89336e-15
752 12 0.001 -0.037423 -0.00162142 -0.0471175 -4.35588e-12 8.45335e-12 -4.38168e-12 0 6.6005e-15
1149 14 0.001 -0.0169114 -0.00244841 -0.0473463 -5.97072e-12 8.24612e-12 -6.68194e-12 0 6.89336e-15
1148 14 0.001 -0.017423 -0.00162142 -0.0471175 -4.45768e-12 8.42316e-12 -4.38228e-12 0 6.6005e-15
1544 16 0.001 0.00257695 -0.00162142 -0.0471175 -4.47351e-12 8.41635e-12 -4.38294e-12 0 6.6005e-15
1545 16 0.001 0.00308858 -0.00244841 -0.0473463 -5.96092e-12 8.25377e-12 -6.68113e-12 0 6.89336e-15
1941 18 0.001 0.0230886 -0.00244841 -0.0473463 -5.94266e-12 8.2586e-12 -6.68213e-12 0 6.89336e-15
1940 18 0.001 0.022577 -0.00162142 -0.0471175 -4.49604e-12 8.41101e-12 -4.38275e-12 0 6.6005e-15
375 11 0.001 -0.0577152 -0.000696372 -0.0468789 -3.01367e-12 8.15723e-12 -1.80305e-12 0 5.92758e-15
751 12 0.001 -0.0377152 -0.000696372 -0.0468789 -2.9557e-12 8.1506e-12 -1.80586e-12 0 5.92758e-15
1147 14 0.001 -0.0177152 -0.000696372 -0.0468789 -2.84498e-12 8.16569e-12 -1.80059e-12 0 5.92758e-15
1543 16 0.001 0.00228483 -0.000696372 -0.0468789 -2.83531e-12 8.1747e-12 -1.79771e-12 0 5.92758e-15
1939 18 0.001 0.0222848 -0.000696372 -0.0468789 -2.80716e-12 8.1741e-12 -1.79772e-12 0 5.92758e-15
373 11 0.001 -0.0575861 0.00121542 -0.0463665 4.61883e-13 6.54462e-12 2.51816e-12 0 4.35942e-15
374 11 0.001 -0.0577704 0.000269194 -0.0466286 -1.04507e-12 7.50725e-12 6.27303e-13 0 5.12319e-15
749 12 0.001 -0.0375861 0.00121542 -0.0463665 3.91849e-13 6.54582e-12 2.5095e-12 0 4.35942e-15
750 12 0.001 -0.0377704 0.000269194 -0.0466286 -1.02048e-12 7.5073e-12 6.31289e-13 0 5.12319e-15
1145 14 0.001 -0.0175861 0.00121542 -0.0463665 4.84016e-13 6.52857e-12 2.51486e-12 0 4.35942e-15
1146 14 0.001 -0.0177704 0.000269194 -0.0466286 -1.14753e-12 7.508e-12 6.22917e-13 0 5.12319e-15
1541 16 0.001 0.00241395 0.00121542 -0.0463665 4.99969e-13 6.53719e-12 2.52073e-12 0 4.35942e-15
1542 16 0.001 0.00222962 0.000269194 -0.0466286 -1.1596e-12 7.49998e-12 6.18417e-13 0 5.12319e-15
1937 18 0.001 0.0224139 0.00121542 -0.0463665 5.23866e-13 6.53466e-12 2.52246e-12 0 4.35942e-15
1938 18 0.001 0.0222296 0.000269194 -0.0466286 -1.18993e-12 7.50431e-12 6.17989e-13 0 5.12319e-15
372 11 0.001 -0.0571743 0.00208384 -0.0460939 2.08622e-12 5.31669e-12 3.5931e-12 0 3.72292e-15
748 12 0.001 -0.0371743 0.00208384 -0.0460939 2.12067e-12 5.30328e-12 3.59483e-12 0 3.72292e-15
1144 14 0.001 -0.0171743 0.00208384 -0.0460939 2.08436e-12 5.33006e-12 3.59663e-12 0 3.72292e-15
1540 16 0.001 0.00282572 0.00208384 -0.0460939 2.06874e-12 5.32164e-12 3.59028e-12 0 3.72292e-15
1936 18 0.001 0.0228257 0.00208384 -0.0460939 2.05634e-12 5.32297e-12 3.58882e-12 0 3.72292e-15
371 11 0.001 -0.0565611 0.00282087 -0.0458131 3.49537e-12 3.92934e-12 3.68487e-12 0 3.23395e-15
747 12 0.001 -0.0365611 0.00282087 -0.0458131 3.49772e-12 3.94578e-12 3.68969e-12 0 3.23395e-15
1143 14 0.001 -0.0165611 0.00282087 -0.0458131 3.51342e-12 3.94005e-12 3.69024e-12 0 3.23395e-15
1539 16 0.001 0.00343889 0.00282087 -0.0458131 3.53029e-12 3.94104e-12 3.69499e-12 0 3.23395e-15
1935 18 0.001 0.0234389 0.00282087 -0.0458131 3.53313e-12 3.94625e-12 3.69656e-12 0 3.23395e-15
370 11 0.001 -0.0557849 0.00338101 -0.0455271 4.83125e-12 2.45896e-12 2.88955e-12 0 2.87207e-15
369 11 0.001 -0.0548941 0.00372961 -0.0452391 5.86919e-12 8.27704e-13 1.342e-12 0 2.59736e-15
367 11 0.001 -0.0529948 0.00371974 -0.0446676 6.80542e-12 -2.41376e-12 -2.46136e-12 0 2.13879e-15
368 11 0.001 -0.0539443 0.00384496 -0.0449518 6.51051e-12 -8.23383e-13 -5.79415e-13 0 2.36545e-15
745 12 0.001 -0.0348941 0.00372961 -0.0452391 5.89111e-12 8.33632e-13 1.35027e-12 0 2.59736e-15
746 12 0.001 -0.0357849 0.00338101 -0.0455271 4.82183e-12 2.44819e-12 2.88393e-12 0 2.87207e-15
744 12 0.001 -0.0339443 0.00384496 -0.0449518 6.4915e-12 -8.18861e-13 -5.84814e-13 0 2.36545e-15
743 12 0.001 -0.0329948 0.00371974 -0.0446676 6.8234e-12 -2.42413e-12 -2.45718e-12 0 2.13879e-15
1142 14 0.001 -0.0157849 0.00338101 -0.0455271 4.84691e-12 2.44711e-12 2.8917e-12 0 2.87207e-15
1140 14 0.001 -0.0139443 0.00384496 -0.0449518 6.51992e-12 -8.20749e-13 -5.78437e-13 0 2.36545e-15
1141 14 0.001 -0.0148941 0.00372961 -0.0452391 5.8368e-12 8.34909e-13 1.33555e-12 0 2.59736e-15
1139 14 0.001 -0.0129948 0.00371974 -0.0446676 6.78571e-12 -2.42377e-12 -2.46755e-12 0 2.13879e-15
1538 16 0.001 0.00421509 0.00338101 -0.0455271 4.83094e-12 2.4524e-12 2.88935e-12 0 2.87207e-15
1537 16 0.001 0.00510589 0.00372961 -0.0452391 5.84707e-12 8.2849e-13 1.33595e-12 0 2.59736e-15
1535 16 0.001 0.00700524 0.00371974 -0.0446676 6.79345e-12 -2.42146e-12 -2.46629e-12 0 2.13879e-15
1536 16 0.001 0.00605574 0.00384496 -0.0449518 6.50638e-12 -8.15362e-13 -5.80659e-13 0 2.36545e-15
1933 18 0.001 0.0251059 0.00372961 -0.0452391 5.82306e-12 8.36232e-13 1.33081e-12 0 2.59736e-15
1934 18 0.001 0.0242151 0.00338101 -0.0455271 4.83897e-12 2.44063e-12 2.88925e-12 0 2.87207e-15
1932 18 0.001 0.0260557 0.00384496 -0.0449518 6.54991e-12 -8.14673e-13 -5.69338e-13 0 2.36545e-15
1931 18 0.001 0.0270052 0.00371974 -0.0446676 6.75419e-12 -2.4373e-12 -2.4751e-12 0 2.13879e-15
361 11 0.001 -0.0502016 -0.000734759 -0.0430541 4.51525e-13 -5.48744e-12 -1.12858e-12 0 8.20416e-16
737 12 0.001 -0.0302016 -0.000734759 -0.0430541 4.51814e-13 -5.48889e-12 -1.12751e-12 0 8.20416e-16
1133 14 0.001 -0.0102016 -0.000734759 -0.0430541 4.45717e-13 -5.48954e-12 -1.127e-12 0 8.20416e-16
1529 16 0.001 0.00979837 -0.000734759 -0.0430541 4.56245e-13 -5.49052e-12 -1.1271e-12 0 8.20416e-16
1925 18 0.001 0.0297984 -0.000734759 -0.0430541 4.28756e-13 -5.49567e-12 -1.12338e-12 0 8.20416e-16
362 11 0.001 -0.0501387 0.000227475 -0.0433152 1.93137e-12 -6.05995e-12 -2.65989e-12 0 9.40446e-16
363 11 0.001 -0.050316 0.00117488 -0.0435779 3.40785e-12 -6.22553e-12 -3.96494e-12 0 1.12962e-15
738 12 0.001 -0.0301387 0.000227475 -0.0433152 1.9249e-12 -6.06152e-12 -2.65924e-12 0 9.40446e-16
739 12 0.001 -0.030316 0.00117488 -0.0435779 3.40366e-12 -6.2252e-12 -3.9663e-12 0 1.12962e-15
1134 14 0.001 -0.0101387 0.000227475 -0.0433152 1.92538e-12 -6.06301e-12 -2.65922e-12 0 9.40446e-16
1135 14 0.001 -0.010316 0.00117488 -0.0435779 3.39956e-12 -6.21811e-12 -3.96884e-12 0 1.12962e-15
1530 16 0.001 0.00986125 0.000227475 -0.0433152 1.91476e-12 -6.06109e-12 -2.65977e-12 0 9.40446e-16
1531 16 0.001 0.00968402 0.00117488 -0.0435779 3.40515e-12 -6.21865e-12 -3.96834e-12 0 1.12962e-15
1926 18 0.001 0.0298613 0.000227475 -0.0433152 1.94311e-12 -6.05817e-12 -2.66039e-12 0 9.40446e-16
1927 18 0.001 0.029684 0.00117488 -0.0435779 3.37928e-12 -6.22676e-12 -3.96851e-12 0 1.12962e-15
365 11 0.001 -0.0513313 0.00279252 -0.0441133 5.85868e-12 -5.08454e-12 -4.75023e-12 0 1.63336e-15
364 11 0.001 -0.0507221 0.00204812 -0.0438436 4.73927e-12 -5.86978e-12 -4.74766e-12 0 1.36927e-15
740 12 0.001 -0.0307221 0.00204812 -0.0438436 4.75041e-12 -5.87062e-12 -4.74475e-12 0 1.36927e-15
741 12 0.001 -0.0313313 0.00279252 -0.0441133 5.85955e-12 -5.08749e-12 -4.75073e-12 0 1.63336e-15
1136 14 0.001 -0.0107221 0.00204812 -0.0438436 4.75492e-12 -5.8798e-12 -4.74202e-12 0 1.36927e-15
1137 14 0.001 -0.0113313 0.00279252 -0.0441133 5.8591e-12 -5.08227e-12 -4.75292e-12 0 1.63336e-15
1533 16 0.001 0.00866873 0.00279252 -0.0441133 5.85264e-12 -5.07735e-12 -4.75498e-12 0 1.63336e-15
1532 16 0.001 0.00927794 0.00204812 -0.0438436 4.75347e-12 -5.87813e-12 -4.74244e-12 0 1.36927e-15
1928 18 0.001 0.0292779 0.00204812 -0.0438436 4.78585e-12 -5.86747e-12 -4.73945e-12 0 1.36927e-15
1929 18 0.001 0.0286687 0.00279252 -0.0441133 5.82086e-12 -5.10178e-12 -4.7571e-12 0 1.63336e-15
366 11 0.001 -0.0521051 0.00336154 -0.0443879 6.53824e-12 -3.90316e-12 -3.95925e-12 0 1.89537e-15
742 12 0.001 -0.0321051 0.00336154 -0.0443879 6.51817e-12 -3.89252e-12 -3.96407e-12 0 1.89537e-15
1138 14 0.001 -0.0121051 0.00336154 -0.0443879 6.55049e-12 -3.89832e-12 -3.95311e-12 0 1.89537e-15
1534 16 0.001 0.00789489 0.00336154 -0.0443879 6.55932e-12 -3.90931e-12 -3.94953e-12 0 1.89537e-15
1930 18 0.001 0.0278949 0.00336154 -0.0443879 6.58216e-12 -3.87747e-12 -3.94878e-12 0 1.89537e-15
355 11 0.001 -0.0544589 -0.00383981 -0.0414798 -4.97883e-12 2.28145e-12 -1.27132e-12 0 2.08942e-15
356 11 0.001 -0.0534955 -0.00383561 -0.0417441 -4.56502e-12 8.02225e-13 8.04943e-14 0 1.61189e-15
357 11 0.001 -0.052563 -0.00359286 -0.0420078 -4.00114e-12 -7.28562e-13 1.10645e-12 0 1.23812e-15
358 11 0.001 -0.0517195 -0.0031266 -0.0422707 -3.17417e-12 -2.11056e-12 1.51505e-12 0 9.79062e-16
731 12 0.001 -0.0344589 -0.00383981 -0.0414798 -4.90884e-12 2.28408e-12 -1.28979e-12 0 2.08942e-15
732 12 0.001 -0.0334955 -0.00383561 -0.0417441 -4.61642e-12 7.9304e-13 9.50952e-14 0 1.61189e-15
733 12 0.001 -0.032563 -0.00359286 -0.0420078 -4.02309e-12 -7.11083e-13 1.10881e-12 0 1.23812e-15
734 12 0.001 -0.0317195 -0.0031266 -0.0422707 -3.0917e-12 -2.12527e-12 1.49979e-12 0 9.79062e-16
1127 14 0.001 -0.0144589 -0.00383981 -0.0414798 -4.93249e-12 2.28669e-12 -1.28451e-12 0 2.08942e-15
1128 14 0.001 -0.0134955 -0.00383561 -0.0417441 -4.58289e-12 7.87809e-13 8.67788e-14 0 1.61189e-15
1129 14 0.001 -0.012563 -0.00359286 -0.0420078 -4.02702e-12 -7.17034e-13 1.111e-12 0 1.23812e-15
1130 14 0.001 -0.0117195 -0.0031266 -0.0422707 -3.14481e-12 -2.11946e-12 1.50996e-12 0 9.79062e-16
1523 16 0.001 0.00554111 -0.00383981 -0.0414798 -4.93717e-12 2.28337e-12 -1.28239e-12 0 2.08942e-15
1524 16 0.001 0.00650452 -0.00383561 -0.0417441 -4.58516e-12 7.92029e-13 8.62379e-14 0 1.61189e-15
1525 16 0.001 0.00743701 -0.00359286 -0.0420078 -4.01992e-12 -7.15964e-13 1.10974e-12 0 1.23812e-15
1526 16 0.001 0.00828053 -0.0031266 -0.0422707 -3.13662e-12 -2.1194e-12 1.50809e-12 0 9.79062e-16
1919 18 0.001 0.0255411 -0.00383981 -0.0414798 -4.93437e-12 2.28449e-12 -1.28391e-12 0 2.08942e-15
1920 18 0.001 0.0265045 -0.00383561 -0.0417441 -4.59253e-12 7.90937e-13 8.91209e-14 0 1.61189e-15
1921 18 0.001 0.027437 -0.00359286 -0.0420078 -4.03907e-12 -7.17169e-13 1.11441e-12 0 1.23812e-15
1922 18 0.001 0.0282805 -0.0031266 -0.0422707 -3.10141e-12 -2.11587e-12 1.49855e-12 0 9.79062e-16
359 11 0.001 -0.0510175 -0.00246582 -0.0425325 -2.11208e-12 -3.47453e-12 1.22198e-12 0 8.30242e-16
360 11 0.001 -0.0505008 -0.00165161 -0.0427935 -9.0196e-13 -4.58692e-12 2.71166e-13 0 7.80794e-16
735 12 0.001 -0.0310175 -0.00246582 -0.0425325 -2.17642e-12 -3.45932e-12 1.23067e-12 0 8.30242e-16
736 12 0.001 -0.0305008 -0.00165161 -0.0427935 -8.75171e-13 -4.59355e-12 2.6845e-13 0 7.80794e-16
1131 14 0.001 -0.0110175 -0.00246582 -0.0425325 -2.12298e-12 -3.46192e-12 1.22127e-12 0 8.30242e-16
1132 14 0.001 -0.0105008 -0.00165161 -0.0427935 -8.89032e-13 -4.58986e-12 2.70392e-13 0 7.80794e-16
1527 16 0.001 0.00898253 -0.00246582 -0.0425325 -2.13814e-12 -3.46408e-12 1.22434e-12 0 8.30242e-16
1528 16 0.001 0.00949924 -0.00165161 -0.0427935 -8.86747e-13 -4.58971e-12 2.69604e-13 0 7.80794e-16
1923 18 0.001 0.0289825 -0.00246582 -0.0425325 -2.16507e-12 -3.46531e-12 1.23149e-12 0 8.30242e-16
1924 18 0.001 0.0294992 -0.00165161 -0.0427935 -8.63018e-13 -4.58467e-12 2.63691e-13 0 7.80794e-16
353 11 0.001 -0.0562405 -0.00314644 -0.0409514 -4.51673e-12 4.97891e-12 -3.91775e-12 0 3.21096e-15
354 11 0.001 -0.0553933 -0.00360522 -0.0412155 -4.89136e-12 3.70696e-12 -2.7337e-12 0 2.63906e-15
729 12 0.001 -0.0362405 -0.00314644 -0.0409514 -4.51084e-12 4.97993e-12 -3.91992e-12 0 3.21096e-15
730 12 0.001 -0.0353933 -0.00360522 -0.0412155 -4.94156e-12 3.7027e-12 -2.72036e-12 0 2.63906e-15
1125 14 0.001 -0.0162405 -0.00314644 -0.0409514 -4.52596e-12 4.97167e-12 -3.91642e-12 0 3.21096e-15
1126 14 0.001 -0.0153933 -0.00360522 -0.0412155 -4.92418e-12 3.71419e-12 -2.72372e-12 0 2.63906e-15
1521 16 0.001 0.00375948 -0.00314644 -0.0409514 -4.53561e-12 4.97128e-12 -3.9163e-12 0 3.21096e-15
1522 16 0.001 0.0046067 -0.00360522 -0.0412155 -4.91981e-12 3.71128e-12 -2.72478e-12 0 2.63906e-15
1917 18 0.001 0.0237595 -0.00314644 -0.0409514 -4.51765e-12 4.98175e-12 -3.91842e-12 0 3.21096e-15
1918 18 0.001 0.0246067 -0.00360522 -0.0412155 -4.91649e-12 3.70623e-12 -2.72599e-12 0 2.63906e-15
351 11 0.001 -0.0574711 -0.00168269 -0.0404247 -2.74297e-12 6.528e-12 -4.68955e-12 0 4.19679e-15
352 11 0.001 -0.0569478 -0.00249201 -0.0406878 -3.8805e-12 5.94647e-12 -4.59843e-12 0 3.74735e-15
727 12 0.001 -0.0374711 -0.00168269 -0.0404247 -2.79602e-12 6.5445e-12 -4.67717e-12 0 4.19679e-15
728 12 0.001 -0.0369478 -0.00249201 -0.0406878 -3.84714e-12 5.9393e-12 -4.60634e-12 0 3.74735e-15
1123 14 0.001 -0.0174711 -0.00168269 -0.0404247 -2.81215e-12 6.5498e-12 -4.67217e-12 0 4.19679e-15
1124 14 0.001 -0.0169478 -0.00249201 -0.0406878 -3.82385e-12 5.93303e-12 -4.61326e-12 0 3.74735e-15
1519 16 0.001 0.00252892 -0.00168269 -0.0404247 -2.81218e-12 6.54483e-12 -4.67478e-12 0 4.19679e-15
1520 16 0.001 0.00305219 -0.00249201 -0.0406878 -3.81853e-12 5.94175e-12 -4.61059e-12 0 3.74735e-15
1915 18 0.001 0.0225289 -0.00168269 -0.0404247 -2.76674e-12 6.53848e-12 -4.68372e-12 0 4.19679e-15
1916 18 0.001 0.0230522 -0.00249201 -0.0406878 -3.85962e-12 5.93643e-12 -4.60335e-12 0 3.74735e-15
350 11 0.001 -0.0577777 -0.000768897 -0.0401621 -1.67652e-12 6.72528e-12 -4.11471e-12 0 4.52649e-15
726 12 0.001 -0.0377777 -0.000768897 -0.0401621 -1.64753e-12 6.71862e-12 -4.12182e-12 0 4.52649e-15
1122 14 0.001 -0.0177777 -0.000768897 -0.0401621 -1.64051e-12 6.72266e-12 -4.12152e-12 0 4.52649e-15
1518 16 0.001 0.00222231 -0.000768897 -0.0401621 -1.63656e-12 6.71898e-12 -4.12181e-12 0 4.52649e-15
1914 18 0.001 0.0222223 -0.000768897 -0.0401621 -1.6637e-12 6.72397e-12 -4.11675e-12 0 4.52649e-15
348 11 0.001 -0.0576792 0.00114128 -0.039637 7.43098e-13 5.84062e-12 -1.81068e-12 0 4.81687e-15
349 11 0.001 -0.0578485 0.000192405 -0.0398996 -4.07426e-13 6.49037e-12 -3.08017e-12 0 4.72828e-15
724 12 0.001 -0.0376792 0.00114128 -0.039637 7.00072e-13 5.84717e-12 -1.81261e-12 0 4.81687e-15
725 12 0.001 -0.0378485 0.000192405 -0.0398996 -3.85826e-13 6.48543e-12 -3.07826e-12 0 4.72828e-15
1120 14 0.001 -0.0176792 0.00114128 -0.039637 7.86352e-13 5.85312e-12 -1.80357e-12 0 4.81687e-15
1121 14 0.001 -0.0178485 0.000192405 -0.0398996 -4.26212e-13 6.48069e-12 -3.08181e-12 0 4.72828e-15
1516 16 0.001 0.00232085 0.00114128 -0.039637 7.60795e-13 5.85063e-12 -1.80659e-12 0 4.81687e-15
1517 16 0.001 0.00215148 0.000192405 -0.0398996 -4.22255e-13 6.4831e-12 -3.08067e-12 0 4.72828e-15
1912 18 0.001 0.0223208 0.00114128 -0.039637 7.84009e-13 5.84944e-12 -1.80502e-12 0 4.81687e-15
1913 18 0.001 0.0221515 0.000192405 -0.0398996 -4.29532e-13 6.48259e-12 -3.08289e-12 0 4.72828e-15
347 11 0.001 -0.0572802 0.00201856 -0.0393739 1.83036e-12 4.96693e-12 -5.48626e-13 0 4.82227e-15
346 11 0.001 -0.0566765 0.00276957 -0.0391101 2.69335e-12 3.83672e-12 4.10521e-13 0 4.78019e-15
722 12 0.001 -0.0366765 0.00276957 -0.0391101 2.68233e-12 3.8393e-12 4.09309e-13 0 4.78019e-15
723 12 0.001 -0.0372802 0.00201856 -0.0393739 1.85719e-12 4.96067e-12 -5.47205e-13 0 4.82227e-15
1118 14 0.001 -0.0166765 0.00276957 -0.0391101 2.70113e-12 3.83557e-12 4.10494e-13 0 4.78019e-15
1119 14 0.001 -0.0172802 0.00201856 -0.0393739 1.78112e-12 4.95666e-12 -5.56916e-13 0 4.82227e-15
1515 16 0.001 0.00271983 0.00201856 -0.0393739 1.80801e-12 4.96023e-12 -5.53302e-13 0 4.82227e-15
1514 16 0.001 0.00332352 0.00276957 -0.0391101 2.69207e-12 3.83544e-12 4.09535e-13 0 4.78019e-15
1910 18 0.001 0.0233235 0.00276957 -0.0391101 2.68509e-12 3.83711e-12 4.08361e-13 0 4.78019e-15
1911 18 0.001 0.0227198 0.00201856 -0.0393739 1.80677e-12 4.96444e-12 -5.51412e-13 0 4.82227e-15
345 11 0.001 -0.0559058 0.00334753 -0.0388456 3.38473e-12 2.57695e-12 9.10593e-13 0 4.72354e-15
344 11 0.001 -0.0550161 0.00371647 -0.0385802 3.87016e-12 1.24329e-12 8.87821e-13 0 4.67718e-15
720 12 0.001 -0.0350161 0.00371647 -0.0385802 3.87403e-12 1.23855e-12 8.89239e-13 0 4.67718e-15
721 12 0.001 -0.0359058 0.00334753 -0.0388456 3.38558e-12 2.57708e-12 9.10271e-13 0 4.72354e-15
1117 14 0.001 -0.0159058 0.00334753 -0.0388456 3.38855e-12 2.57749e-12 9.11525e-13 0 4.72354e-15
1116 14 0.001 -0.0150161 0.00371647 -0.0385802 3.89025e-12 1.24526e-12 8.93321e-13 0 4.67718e-15
1513 16 0.001 0.00409422 0.00334753 -0.0388456 3.38797e-12 2.57431e-12 9.10848e-13 0 4.72354e-15
1512 16 0.001 0.00498389 0.00371647 -0.0385802 3.89433e-12 1.24894e-12 8.94698e-13 0 4.67718e-15
1908 18 0.001 0.0249839 0.00371647 -0.0385802 3.89105e-12 1.25086e-12 8.93761e-13 0 4.67718e-15
1909 18 0.001 0.0240942 0.00334753 -0.0388456 3.37864e-12 2.56796e-12 9.07878e-13 0 4.72354e-15
338 11 0.001 -0.0503566 0.00127073 -0.036982 1.68031e-12 -5.07354e-12 -2.85083e-12 0 4.93135e-15
714 12 0.001 -0.0303566 0.00127073 -0.036982 1.67055e-12 -5.07319e-12 -2.85307e-12 0 4.93135e-15
1110 14 0.001 -0.0103566 0.00127073 -0.036982 1.67339e-12 -5.07409e-12 -2.85354e-12 0 4.93135e-15
1506 16 0.001 0.00964344 0.00127073 -0.036982 1.66728e-12 -5.07147e-12 -2.8544e-12 0 4.93135e-15
1902 18 0.001 0.0296434 0.00127073 -0.036982 1.66791e-12 -5.07516e-12 -2.85343e-12 0 4.93135e-15
340 11 0.001 -0.0514141 0.00286204 -0.0375145 3.43553e-12 -3.76608e-12 -2.14587e-12 0 4.76586e-15
339 11 0.001 -0.0507852 0.00213298 -0.0372481 2.57554e-12 -4.58907e-12 -2.6975e-12 0 4.84359e-15
715 12 0.001 -0.0307852 0.00213298 -0.0372481 2.60832e-12 -4.58872e-12 -2.69271e-12 0 4.84359e-15
716 12 0.001 -0.0314141 0.00286204 -0.0375145 3.43538e-12 -3.77505e-12 -2.14266e-12 0 4.76586e-15
1111 14 0.001 -0.0107852 0.00213298 -0.0372481 2.63506e-12 -4.59146e-12 -2.68743e-12 0 4.84359e-15
1112 14 0.001 -0.0114141 0.00286204 -0.0375145 3.39196e-12 -3.77779e-12 -2.1516e-12 0 4.76586e-15
1508 16 0.001 0.00858586 0.00286204 -0.0375145 3.40294e-12 -3.77591e-12 -2.14949e-12 0 4.76586e-15
1507 16 0.001 0.00921476 0.00213298 -0.0372481 2.63165e-12 -4.59232e-12 -2.68802e-12 0 4.84359e-15
1903 18 0.001 0.0292148 0.00213298 -0.0372481 2.63012e-12 -4.58854e-12 -2.689e-12 0 4.84359e-15
1904 18 0.001 0.0285859 0.00286204 -0.0375145 3.40022e-12 -3.77544e-12 -2.15029e-12 0 4.76586e-15
343 11 0.001 -0.054063 0.00385344 -0.0383142 4.20343e-12 -1.26278e-13 4.11976e-13 0 4.656e-15
342 11 0.001 -0.0531057 0.00374994 -0.0380478 4.14195e-12 -1.45627e-12 -4.22493e-13 0 4.66552e-15
341 11 0.001 -0.052204 0.00341246 -0.0377811 3.992e-12 -2.74409e-12 -1.31064e-12 0 4.70411e-15
719 12 0.001 -0.034063 0.00385344 -0.0383142 4.20029e-12 -1.20425e-13 4.10308e-13 0 4.656e-15
718 12 0.001 -0.0331057 0.00374994 -0.0380478 4.16609e-12 -1.46182e-12 -4.1469e-13 0 4.66552e-15
717 12 0.001 -0.032204 0.00341246 -0.0377811 3.95463e-12 -2.73331e-12 -1.32213e-12 0 4.70411e-15
1115 14 0.001 -0.014063 0.00385344 -0.0383142 4.16605e-12 -1.22805e-13 4.02293e-13 0 4.656e-15
1113 14 0.001 -0.012204 0.00341246 -0.0377811 3.97167e-12 -2.71865e-12 -1.31935e-12 0 4.70411e-15
1114 14 0.001 -0.0131057 0.00374994 -0.0380478 4.19306e-12 -1.47268e-12 -4.07909e-13 0 4.66552e-15
1511 16 0.001 0.00593704 0.00385344 -0.0383142 4.16966e-12 -1.24749e-13 4.03436e-13 0 4.656e-15
1510 16 0.001 0.00689428 0.00374994 -0.0380478 4.18493e-12 -1.46693e-12 -4.10834e-13 0 4.66552e-15
1509 16 0.001 0.00779595 0.00341246 -0.0377811 3.96696e-12 -2.72607e-12 -1.31945e-12 0 4.70411e-15
1907 18 0.001 0.025937 0.00385344 -0.0383142 4.18205e-12 -1.22551e-13 4.06487e-13 0 4.656e-15
1906 18 0.001 0.0268943 0.00374994 -0.0380478 4.18777e-12 -1.47217e-12 -4.09596e-13 0 4.66552e-15
1905 18 0.001 0.027796 0.00341246 -0.0377811 3.96507e-12 -2.72322e-12 -1.32013e-12 0 4.70411e-15
333 11 0.001 -0.0516476 -0.00306051 -0.0356566 -3.06078e-12 -2.74759e-12 -3.74105e-13 0 5.52137e-15
709 12 0.001 -0.0316476 -0.00306051 -0.0356566 -3.04416e-12 -2.75353e-12 -3.76731e-13 0 5.52137e-15
1105 14 0.001 -0.0116476 -0.00306051 -0.0356566 -2.95774e-12 -2.74449e-12 -3.96329e-13 0 5.52137e-15
1501 16 0.001 0.00835241 -0.00306051 -0.0356566 -2.96688e-12 -2.7436e-12 -3.95185e-13 0 5.52137e-15
1897 18 0.001 0.0283524 -0.00306051 -0.0356566 -2.92783e-12 -2.744e-12 -4.02544e-13 0 5.52137e-15
334 11 0.001 -0.0509631 -0.00238266 -0.0359213 -2.18663e-12 -3.6655e-12 -8.94775e-13 0 5.37106e-15
335 11 0.001 -0.0504679 -0.00155644 -0.036186 -1.50316e-12 -4.44778e-12 -1.50476e-12 0 5.24174e-15
710 12 0.001 -0.0309631 -0.00238266 -0.0359213 -2.24555e-12 -3.65734e-12 -8.87178e-13 0 5.37106e-15
711 12 0.001 -0.0304679 -0.00155644 -0.036186 -1.41134e-12 -4.44218e-12 -1.51786e-12 0 5.24174e-15
1106 14 0.001 -0.0109631 -0.00238266 -0.0359213 -2.29802e-12 -3.66483e-12 -8.76616e-13 0 5.37106e-15
1107 14 0.001 -0.0104679 -0.00155644 -0.036186 -1.42932e-12 -4.44996e-12 -1.51389e-12 0 5.24174e-15
1502 16 0.001 0.00903687 -0.00238266 -0.0359213 -2.29144e-12 -3.6718e-12 -8.74983e-13 0 5.37106e-15
1503 16 0.001 0.0095321 -0.00155644 -0.036186 -1.42876e-12 -4.43856e-12 -1.51841e-12 0 5.24174e-15
1898 18 0.001 0.0290369 -0.00238266 -0.0359213 -2.32148e-12 -3.66482e-12 -8.72555e-13 0 5.37106e-15
1899 18 0.001 0.0295321 -0.00155644 -0.036186 -1.41538e-12 -4.45077e-12 -1.51523e-12 0 5.24174e-15
336 11 0.001 -0.0501928 -0.000633344 -0.036451 -4.5553e-13 -4.94959e-12 -2.1629e-12 0 5.12846e-15
712 12 0.001 -0.0301928 -0.000633344 -0.036451 -5.09539e-13 -4.95549e-12 -2.15524e-12 0 5.12846e-15
1108 14 0.001 -0.0101928 -0.000633344 -0.036451 -4.59805e-13 -4.95139e-12 -2.1596e-12 0 5.12846e-15
1504 16 0.001 0.00980723 -0.000633344 -0.036451 -4.64015e-13 -4.95527e-12 -2.15731e-12 0 5.12846e-15
1900 18 0.001 0.0298072 -0.000633344 -0.036451 -4.72742e-13 -4.94789e-12 -2.16018e-12 0 5.12846e-15
337 11 0.001 -0.0501549 0.00032905 -0.0367163 6.35034e-13 -5.20203e-12 -2.65297e-12 0 5.02615e-15
713 12 0.001 -0.0301549 0.00032905 -0.0367163 6.35779e-13 -5.20282e-12 -2.6543e-12 0 5.02615e-15
1109 14 0.001 -0.0101549 0.00032905 -0.0367163 6.01318e-13 -5.19824e-12 -2.65475e-12 0 5.02615e-15
1505 16 0.001 0.00984512 0.00032905 -0.0367163 6.09515e-13 -5.20022e-12 -2.65451e-12 0 5.02615e-15
1901 18 0.001 0.0298451 0.00032905 -0.0367163 6.14897e-13 -5.20153e-12 -2.65362e-12 0 5.02615e-15
328 11 0.001 -0.0561657 -0.00319492 -0.0343329 -3.20503e-12 2.52617e-12 -1.29327e-12 0 6.59497e-15
329 11 0.001 -0.0553072 -0.00363186 -0.0345977 -3.67064e-12 1.56379e-12 -8.53546e-13 0 6.3517e-15
330 11 0.001 -0.0543673 -0.00384258 -0.0348625 -3.79101e-12 5.20222e-13 -4.57994e-13 0 6.11564e-15
331 11 0.001 -0.0534044 -0.00381394 -0.0351272 -3.71257e-12 -5.86273e-13 -2.00431e-13 0 5.89501e-15
332 11 0.001 -0.0524786 -0.00354772 -0.0353919 -3.40506e-12 -1.70637e-12 -1.67813e-13 0 5.69591e-15
704 12 0.001 -0.0361657 -0.00319492 -0.0343329 -3.22122e-12 2.51334e-12 -1.29164e-12 0 6.59497e-15
705 12 0.001 -0.0353072 -0.00363186 -0.0345977 -3.63393e-12 1.57071e-12 -8.61936e-13 0 6.3517e-15
706 12 0.001 -0.0343673 -0.00384258 -0.0348625 -3.79459e-12 5.16437e-13 -4.57792e-13 0 6.11564e-15
707 12 0.001 -0.0334044 -0.00381394 -0.0351272 -3.71981e-12 -5.91338e-13 -1.98411e-13 0 5.89501e-15
708 12 0.001 -0.0324786 -0.00354772 -0.0353919 -3.41504e-12 -1.70218e-12 -1.64831e-13 0 5.69591e-15
1100 14 0.001 -0.0161657 -0.00319492 -0.0343329 -3.24178e-12 2.52536e-12 -1.28514e-12 0 6.59497e-15
1101 14 0.001 -0.0153072 -0.00363186 -0.0345977 -3.60688e-12 1.5681e-12 -8.68699e-13 0 6.3517e-15
1102 14 0.001 -0.0143673 -0.00384258 -0.0348625 -3.80983e-12 5.12359e-13 -4.54699e-13 0 6.11564e-15
1104 14 0.001 -0.0124786 -0.00354772 -0.0353919 -3.45074e-12 -1.69933e-12 -1.57104e-13 0 5.69591e-15
1103 14 0.001 -0.0134044 -0.00381394 -0.0351272 -3.72224e-12 -5.92943e-13 -1.97092e-13 0 5.89501e-15
1496 16 0.001 0.0038343 -0.00319492 -0.0343329 -3.2346e-12 2.52045e-12 -1.28761e-12 0 6.59497e-15
1497 16 0.001 0.00469278 -0.00363186 -0.0345977 -3.63286e-12 1.57485e-12 -8.61518e-13 0 6.3517e-15
1498 16 0.001 0.00563273 -0.00384258 -0.0348625 -3.78947e-12 5.1087e-13 -4.59949e-13 0 6.11564e-15
1499 16 0.001 0.0065956 -0.00381394 -0.0351272 -3.724e-12 -5.91022e-13 -1.96827e-13 0 5.89501e-15
1500 16 0.001 0.00752139 -0.00354772 -0.0353919 -3.45239e-12 -1.70171e-12 -1.56256e-13 0 5.69591e-15
1892 18 0.001 0.0238343 -0.00319492 -0.0343329 -3.24398e-12 2.52225e-12 -1.28494e-12 0 6.59497e-15
1893 18 0.001 0.0246928 -0.00363186 -0.0345977 -3.62475e-12 1.5779e-12 -8.64198e-13 0 6.3517e-15
1894 18 0.001 0.0256327 -0.00384258 -0.0348625 -3.79172e-12 5.05739e-13 -4.58581e-13 0 6.11564e-15
1895 18 0.001 0.0265956 -0.00381394 -0.0351272 -3.73268e-12 -5.91355e-13 -1.94985e-13 0 5.89501e-15
1896 18 0.001 0.0275214 -0.00354772 -0.0353919 -3.46326e-12 -1.69954e-12 -1.54191e-13 0 5.69591e-15
327 11 0.001 -0.0568892 -0.00255898 -0.0340681 -2.63538e-12 3.28214e-12 -1.63548e-12 0 6.83644e-15
703 12 0.001 -0.0368892 -0.00255898 -0.0340681 -2.63609e-12 3.29607e-12 -1.63263e-12 0 6.83644e-15
1099 14 0.001 -0.0168892 -0.00255898 -0.0340681 -2.62099e-12 3.28775e-12 -1.63639e-12 0 6.83644e-15