ITEM: TIMESTEP
2100000
ITEM: NUMBER OF ATOMS
1970
ITEM: BOX BOUNDS ff ff ff
-6.0000000000000005e-02 6.0000000000000005e-02
-6.0000000000000001e-03 6.0000000000000001e-03
-5.5000000000000000e-02 5.5000000000000000e-02
ITEM: ATOMS id type radius x y z fx fy fz c_bendingE c_stretchingE
384 11 0.001 -0.0508971 -0.0026196 -0.0490146 -3.09322e-12 2.04296e-13 -2.65219e-12 0 1.76137e-15
385 11 0.001 -0.050374 -0.00182808 -0.0493274 -2.19706e-12 -1.00659e-13 -1.73022e-12 0 3.90313e-15
760 12 0.001 -0.0308971 -0.0026196 -0.0490146 -3.1282e-12 2.02257e-13 -2.64722e-12 0 1.76137e-15
761 12 0.001 -0.030374 -0.00182808 -0.0493274 -2.17833e-12 -1.08042e-13 -1.72836e-12 0 3.90313e-15
1156 14 0.001 -0.0108971 -0.0026196 -0.0490146 -3.123e-12 2.13444e-13 -2.65114e-12 0 1.76137e-15
1157 14 0.001 -0.010374 -0.00182808 -0.0493274 -2.17688e-12 -1.10715e-13 -1.72739e-12 0 3.90313e-15
1552 16 0.001 0.00910291 -0.0026196 -0.0490146 -3.10609e-12 2.09968e-13 -2.65237e-12 0 1.76137e-15
1553 16 0.001 0.00962604 -0.00182808 -0.0493274 -2.18895e-12 -1.10151e-13 -1.72632e-12 0 3.90313e-15
1948 18 0.001 0.0291029 -0.0026196 -0.0490146 -3.1458e-12 2.17157e-13 -2.64841e-12 0 1.76137e-15
1949 18 0.001 0.029626 -0.00182808 -0.0493274 -2.16485e-12 -1.03133e-13 -1.7329e-12 0 3.90313e-15
2 2 0.001 -0.05 -4.31175e-17 -0.05 -7.16366e-06 1.08286e-05 1.26093e-06 0 1.07028e-15
386 11 0.001 -0.0500688 -0.000935864 -0.0496573 -1.11179e-12 -1.78569e-13 -8.25766e-13 0 3.53361e-15
762 12 0.001 -0.0300688 -0.000935864 -0.0496573 -1.11321e-12 -1.5458e-13 -8.35164e-13 0 3.53361e-15
4 4 0.001 -0.03 -4.31175e-17 -0.05 -7.16366e-06 1.08286e-05 1.26093e-06 0 1.07028e-15
6 6 0.001 -0.01 -4.31175e-17 -0.05 -7.16366e-06 1.08286e-05 1.26093e-06 0 1.07028e-15
1158 14 0.001 -0.0100688 -0.000935864 -0.0496573 -1.11958e-12 -1.60475e-13 -8.32853e-13 0 3.53361e-15
8 8 0.001 0.01 -4.31175e-17 -0.05 -7.16366e-06 1.08286e-05 1.26093e-06 0 1.07028e-15
1554 16 0.001 0.00993121 -0.000935864 -0.0496573 -1.11647e-12 -1.58612e-13 -8.33768e-13 0 3.53361e-15
10 10 0.001 0.03 -4.31175e-17 -0.05 -7.16366e-06 1.08286e-05 1.26093e-06 0 1.07028e-15
1950 18 0.001 0.0299312 -0.000935864 -0.0496573 -1.1182e-12 -1.75069e-13 -8.26519e-13 0 3.53361e-15
378 11 0.001 -0.0561588 -0.00318703 -0.0475178 -3.96529e-12 4.51959e-12 -4.4422e-12 0 4.07454e-15
379 11 0.001 -0.055308 -0.00366314 -0.0477354 -4.50432e-12 3.83455e-12 -4.86128e-12 0 3.50058e-15
380 11 0.001 -0.0543679 -0.00391583 -0.0479598 -4.71534e-12 3.01473e-12 -4.96605e-12 0 2.44956e-15
381 11 0.001 -0.0533973 -0.00393009 -0.0481963 -4.79148e-12 2.23509e-12 -4.7266e-12 0 1.21199e-15
382 11 0.001 -0.0524572 -0.00370617 -0.0484493 -4.36789e-12 1.38252e-12 -4.24028e-12 0 3.00337e-16
383 11 0.001 -0.0516061 -0.00325949 -0.0487216 -3.93666e-12 7.49954e-13 -3.50556e-12 0 3.22459e-16
754 12 0.001 -0.0361588 -0.00318703 -0.0475178 -3.96853e-12 4.50717e-12 -4.44278e-12 0 4.07454e-15
755 12 0.001 -0.035308 -0.00366314 -0.0477354 -4.50318e-12 3.84256e-12 -4.85973e-12 0 3.50058e-15
756 12 0.001 -0.0343679 -0.00391583 -0.0479598 -4.68908e-12 3.02015e-12 -4.97447e-12 0 2.44956e-15
757 12 0.001 -0.0333973 -0.00393009 -0.0481963 -4.7866e-12 2.2167e-12 -4.72462e-12 0 1.21199e-15
758 12 0.001 -0.0324572 -0.00370617 -0.0484493 -4.41707e-12 1.39633e-12 -4.23204e-12 0 3.00337e-16
759 12 0.001 -0.0316061 -0.00325949 -0.0487216 -3.89216e-12 7.43814e-13 -3.51247e-12 0 3.22459e-16
1151 14 0.001 -0.015308 -0.00366314 -0.0477354 -4.50578e-12 3.822e-12 -4.86073e-12 0 3.50058e-15
1150 14 0.001 -0.0161588 -0.00318703 -0.0475178 -3.96025e-12 4.52697e-12 -4.44308e-12 0 4.07454e-15
1152 14 0.001 -0.0143679 -0.00391583 -0.0479598 -4.74457e-12 3.0386e-12 -4.96006e-12 0 2.44956e-15
1153 14 0.001 -0.0133973 -0.00393009 -0.0481963 -4.72752e-12 2.21004e-12 -4.73889e-12 0 1.21199e-15
1154 14 0.001 -0.0124572 -0.00370617 -0.0484493 -4.43584e-12 1.40132e-12 -4.22865e-12 0 3.00337e-16
1155 14 0.001 -0.0116061 -0.00325949 -0.0487216 -3.88947e-12 7.34896e-13 -3.51102e-12 0 3.22459e-16
1546 16 0.001 0.00384116 -0.00318703 -0.0475178 -3.9767e-12 4.52034e-12 -4.43988e-12 0 4.07454e-15
1547 16 0.001 0.00469204 -0.00366314 -0.0477354 -4.49897e-12 3.83217e-12 -4.86174e-12 0 3.50058e-15
1548 16 0.001 0.00563215 -0.00391583 -0.0479598 -4.73332e-12 3.03006e-12 -4.96301e-12 0 2.44956e-15
1549 16 0.001 0.00660266 -0.00393009 -0.0481963 -4.73373e-12 2.21134e-12 -4.73702e-12 0 1.21199e-15
1550 16 0.001 0.00754282 -0.00370617 -0.0484493 -4.43634e-12 1.40232e-12 -4.2287e-12 0 3.00337e-16
1551 16 0.001 0.00839388 -0.00325949 -0.0487216 -3.89892e-12 7.36992e-13 -3.51019e-12 0 3.22459e-16
1942 18 0.001 0.0238412 -0.00318703 -0.0475178 -3.97322e-12 4.53322e-12 -4.43894e-12 0 4.07454e-15
1943 18 0.001 0.024692 -0.00366314 -0.0477354 -4.50129e-12 3.82127e-12 -4.86197e-12 0 3.50058e-15
1944 18 0.001 0.0256321 -0.00391583 -0.0479598 -4.71299e-12 3.03616e-12 -4.96787e-12 0 2.44956e-15
1945 18 0.001 0.0266027 -0.00393009 -0.0481963 -4.76087e-12 2.20378e-12 -4.72983e-12 0 1.21199e-15
1946 18 0.001 0.0275428 -0.00370617 -0.0484493 -4.43301e-12 1.41126e-12 -4.23114e-12 0 3.00337e-16
1947 18 0.001 0.0283939 -0.00325949 -0.0487216 -3.87355e-12 7.26559e-13 -3.51168e-12 0 3.22459e-16
376 11 0.001 -0.0573898 -0.00169423 -0.0470815 -2.36262e-12 5.31622e-12 -2.79224e-12 0 3.7478e-15
377 11 0.001 -0.0568674 -0.00251685 -0.0473016 -3.21972e-12 5.01644e-12 -3.73217e-12 0 4.11806e-15
753 12 0.001 -0.0368674 -0.00251685 -0.0473016 -3.23289e-12 5.02297e-12 -3.72992e-12 0 4.11806e-15
752 12 0.001 -0.0373898 -0.00169423 -0.0470815 -2.3578e-12 5.31676e-12 -2.79303e-12 0 3.7478e-15
1149 14 0.001 -0.0168674 -0.00251685 -0.0473016 -3.22831e-12 5.00666e-12 -3.73221e-12 0 4.11806e-15
1148 14 0.001 -0.0173898 -0.00169423 -0.0470815 -2.36308e-12 5.32234e-12 -2.79238e-12 0 3.7478e-15
1544 16 0.001 0.00261018 -0.00169423 -0.0470815 -2.35068e-12 5.3162e-12 -2.79368e-12 0 3.7478e-15
1545 16 0.001 0.00313257 -0.00251685 -0.0473016 -3.22647e-12 5.01436e-12 -3.73249e-12 0 4.11806e-15
1941 18 0.001 0.0231326 -0.00251685 -0.0473016 -3.23149e-12 5.00953e-12 -3.73226e-12 0 4.11806e-15
1940 18 0.001 0.0226102 -0.00169423 -0.0470815 -2.35629e-12 5.3147e-12 -2.7942e-12 0 3.7478e-15
375 11 0.001 -0.057694 -0.000770396 -0.0468535 -1.35963e-12 5.30964e-12 -1.76744e-12 0 3.15254e-15
751 12 0.001 -0.037694 -0.000770396 -0.0468535 -1.3451e-12 5.30837e-12 -1.76714e-12 0 3.15254e-15
1147 14 0.001 -0.017694 -0.000770396 -0.0468535 -1.32306e-12 5.30979e-12 -1.76605e-12 0 3.15254e-15
1543 16 0.001 0.00230597 -0.000770396 -0.0468535 -1.34521e-12 5.30923e-12 -1.76676e-12 0 3.15254e-15
1939 18 0.001 0.022306 -0.000770396 -0.0468535 -1.32296e-12 5.3103e-12 -1.76598e-12 0 3.15254e-15
373 11 0.001 -0.0575899 0.00114874 -0.0463633 6.37379e-13 4.61884e-12 1.46087e-13 0 1.94032e-15
374 11 0.001 -0.0577619 0.000197249 -0.0466145 -2.78307e-13 5.10142e-12 -7.27995e-13 0 2.50977e-15
749 12 0.001 -0.0375899 0.00114874 -0.0463633 6.66275e-13 4.62546e-12 1.50913e-13 0 1.94032e-15
750 12 0.001 -0.0377619 0.000197249 -0.0466145 -3.05479e-13 5.1021e-12 -7.29618e-13 0 2.50977e-15
1145 14 0.001 -0.0175899 0.00114874 -0.0463633 7.35073e-13 4.62087e-12 1.5808e-13 0 1.94032e-15
1146 14 0.001 -0.0177619 0.000197249 -0.0466145 -3.53371e-13 5.09887e-12 -7.33844e-13 0 2.50977e-15
1541 16 0.001 0.0024101 0.00114874 -0.0463633 6.87999e-13 4.62376e-12 1.52857e-13 0 1.94032e-15
1542 16 0.001 0.00223814 0.000197249 -0.0466145 -3.15513e-13 5.10066e-12 -7.3038e-13 0 2.50977e-15
1937 18 0.001 0.0224101 0.00114874 -0.0463633 7.20203e-13 4.61933e-12 1.55581e-13 0 1.94032e-15
1938 18 0.001 0.0222381 0.000197249 -0.0466145 -3.49406e-13 5.10009e-12 -7.32918e-13 0 2.50977e-15
372 11 0.001 -0.0571896 0.00202531 -0.0460999 1.67527e-12 3.94079e-12 8.0653e-13 0 1.5006e-15
748 12 0.001 -0.0371896 0.00202531 -0.0460999 1.66147e-12 3.93377e-12 8.03315e-13 0 1.5006e-15
1144 14 0.001 -0.0171896 0.00202531 -0.0460999 1.59774e-12 3.94377e-12 7.9528e-13 0 1.5006e-15
1540 16 0.001 0.00281043 0.00202531 -0.0460999 1.63641e-12 3.93744e-12 8.00509e-13 0 1.5006e-15
1936 18 0.001 0.0228104 0.00202531 -0.0460999 1.60475e-12 3.94743e-12 7.96919e-13 0 1.5006e-15
371 11 0.001 -0.0565864 0.00277292 -0.0458256 2.48037e-12 3.08968e-12 1.14335e-12 0 1.19832e-15
747 12 0.001 -0.0365864 0.00277292 -0.0458256 2.45836e-12 3.08941e-12 1.13753e-12 0 1.19832e-15
1143 14 0.001 -0.0165864 0.00277292 -0.0458256 2.4857e-12 3.08503e-12 1.14127e-12 0 1.19832e-15
1539 16 0.001 0.00341364 0.00277292 -0.0458256 2.46779e-12 3.09358e-12 1.13907e-12 0 1.19832e-15
1935 18 0.001 0.0234136 0.00277292 -0.0458256 2.51863e-12 3.08316e-12 1.14872e-12 0 1.19832e-15
370 11 0.001 -0.0558181 0.00334557 -0.0455429 3.09785e-12 2.10114e-12 1.1189e-12 0 1.01468e-15
369 11 0.001 -0.054933 0.00370799 -0.0452546 3.71059e-12 1.00276e-12 8.37133e-13 0 9.21639e-16
367 11 0.001 -0.0530365 0.00372708 -0.044674 4.00196e-12 -1.24244e-12 -4.12659e-13 0 8.93236e-16
368 11 0.001 -0.053986 0.00383785 -0.044964 3.90847e-12 -1.10924e-13 2.57599e-13 0 8.90346e-16
745 12 0.001 -0.034933 0.00370799 -0.0452546 3.67269e-12 1.00048e-12 8.25177e-13 0 9.21639e-16
746 12 0.001 -0.0358181 0.00334557 -0.0455429 3.14035e-12 2.10213e-12 1.13073e-12 0 1.01468e-15
744 12 0.001 -0.033986 0.00383785 -0.044964 3.96299e-12 -1.09176e-13 2.75654e-13 0 8.90346e-16
743 12 0.001 -0.0330365 0.00372708 -0.044674 3.94872e-12 -1.22925e-12 -4.30504e-13 0 8.93236e-16
1142 14 0.001 -0.0158181 0.00334557 -0.0455429 3.16685e-12 2.0974e-12 1.13789e-12 0 1.01468e-15
1140 14 0.001 -0.013986 0.00383785 -0.044964 3.95227e-12 -1.1974e-13 2.70947e-13 0 8.90346e-16
1141 14 0.001 -0.014933 0.00370799 -0.0452546 3.63934e-12 1.0152e-12 8.17341e-13 0 9.21639e-16
1139 14 0.001 -0.0130365 0.00372708 -0.044674 3.96345e-12 -1.23339e-12 -4.25727e-13 0 8.93236e-16
1538 16 0.001 0.00418185 0.00334557 -0.0455429 3.15983e-12 2.08658e-12 1.13447e-12 0 1.01468e-15
1537 16 0.001 0.00506705 0.00370799 -0.0452546 3.65077e-12 1.02181e-12 8.21038e-13 0 9.21639e-16
1535 16 0.001 0.00696354 0.00372708 -0.044674 3.97134e-12 -1.22905e-12 -4.23703e-13 0 8.93236e-16
1536 16 0.001 0.00601399 0.00383785 -0.044964 3.9476e-12 -1.24529e-13 2.69923e-13 0 8.90346e-16
1933 18 0.001 0.025067 0.00370799 -0.0452546 3.6673e-12 1.00426e-12 8.22545e-13 0 9.21639e-16
1934 18 0.001 0.0241819 0.00334557 -0.0455429 3.1122e-12 2.10474e-12 1.12551e-12 0 1.01468e-15
1932 18 0.001 0.026014 0.00383785 -0.044964 3.9408e-12 -1.2167e-13 2.69201e-13 0 8.90346e-16
1931 18 0.001 0.0269635 0.00372708 -0.044674 3.98485e-12 -1.22394e-12 -4.20654e-13 0 8.93236e-16
361 11 0.001 -0.0501919 -0.000682912 -0.0430293 -1.42716e-13 -4.22466e-12 -1.82067e-12 0 6.42718e-16
737 12 0.001 -0.0301919 -0.000682912 -0.0430293 -2.20739e-13 -4.2189e-12 -1.82106e-12 0 6.42718e-16
1133 14 0.001 -0.0101919 -0.000682912 -0.0430293 -2.06921e-13 -4.2248e-12 -1.81854e-12 0 6.42718e-16
1529 16 0.001 0.00980807 -0.000682912 -0.0430293 -1.90948e-13 -4.22401e-12 -1.81824e-12 0 6.42718e-16
1925 18 0.001 0.0298081 -0.000682912 -0.0430293 -2.21901e-13 -4.22223e-12 -1.81935e-12 0 6.42718e-16
362 11 0.001 -0.0501409 0.000279774 -0.0432913 7.19148e-13 -4.40642e-12 -2.14943e-12 0 7.29926e-16
363 11 0.001 -0.0503297 0.00122404 -0.0435572 1.72399e-12 -4.24649e-12 -2.27679e-12 0 8.11695e-16
738 12 0.001 -0.0301409 0.000279774 -0.0432913 8.11165e-13 -4.40406e-12 -2.14748e-12 0 7.29926e-16
739 12 0.001 -0.0303297 0.00122404 -0.0435572 1.66356e-12 -4.25342e-12 -2.27918e-12 0 8.11695e-16
1134 14 0.001 -0.0101409 0.000279774 -0.0432913 7.6988e-13 -4.40424e-12 -2.14939e-12 0 7.29926e-16
1135 14 0.001 -0.0103297 0.00122404 -0.0435572 1.6989e-12 -4.2543e-12 -2.27698e-12 0 8.11695e-16
1530 16 0.001 0.00985913 0.000279774 -0.0432913 7.42347e-13 -4.39906e-12 -2.15322e-12 0 7.29926e-16
1531 16 0.001 0.00967031 0.00122404 -0.0435572 1.73092e-12 -4.2646e-12 -2.26946e-12 0 8.11695e-16
1926 18 0.001 0.0298591 0.000279774 -0.0432913 7.99034e-13 -4.39794e-12 -2.15131e-12 0 7.29926e-16
1927 18 0.001 0.0296703 0.00122404 -0.0435572 1.68153e-12 -4.26444e-12 -2.27384e-12 0 8.11695e-16
365 11 0.001 -0.0513639 0.00282549 -0.0441048 3.2522e-12 -3.16873e-12 -1.73014e-12 0 9.02015e-16
364 11 0.001 -0.0507462 0.0020907 -0.0438282 2.59172e-12 -3.85563e-12 -2.11724e-12 0 8.71967e-16
740 12 0.001 -0.0307462 0.0020907 -0.0438282 2.59545e-12 -3.84209e-12 -2.12296e-12 0 8.71967e-16
741 12 0.001 -0.0313639 0.00282549 -0.0441048 3.29685e-12 -3.18116e-12 -1.71497e-12 0 9.02015e-16
1136 14 0.001 -0.0107462 0.0020907 -0.0438282 2.59833e-12 -3.84891e-12 -2.11834e-12 0 8.71967e-16
1137 14 0.001 -0.0113639 0.00282549 -0.0441048 3.26765e-12 -3.16909e-12 -1.72586e-12 0 9.02015e-16
1533 16 0.001 0.00863605 0.00282549 -0.0441048 3.27721e-12 -3.17004e-12 -1.72395e-12 0 9.02015e-16
1532 16 0.001 0.00925378 0.0020907 -0.0438282 2.57246e-12 -3.8445e-12 -2.12434e-12 0 8.71967e-16
1928 18 0.001 0.0292538 0.0020907 -0.0438282 2.59978e-12 -3.85442e-12 -2.11855e-12 0 8.71967e-16
1929 18 0.001 0.0286361 0.00282549 -0.0441048 3.2757e-12 -3.15619e-12 -1.72613e-12 0 9.02015e-16
366 11 0.001 -0.0521437 0.0033825 -0.0443871 3.75315e-12 -2.25542e-12 -1.12904e-12 0 9.04445e-16
742 12 0.001 -0.0321437 0.0033825 -0.0443871 3.73923e-12 -2.26423e-12 -1.13201e-12 0 9.04445e-16
1138 14 0.001 -0.0121437 0.0033825 -0.0443871 3.75673e-12 -2.2648e-12 -1.12598e-12 0 9.04445e-16
1534 16 0.001 0.00785625 0.0033825 -0.0443871 3.75174e-12 -2.26433e-12 -1.12741e-12 0 9.04445e-16
1930 18 0.001 0.0278563 0.0033825 -0.0443871 3.73731e-12 -2.27388e-12 -1.12988e-12 0 9.04445e-16
355 11 0.001 -0.0544136 -0.00384415 -0.0414713 -3.11079e-12 8.38914e-13 -1.85133e-13 0 7.77163e-16
356 11 0.001 -0.0534498 -0.00382739 -0.0417335 -3.15867e-12 -2.48061e-13 -1.38275e-14 0 6.30817e-16
357 11 0.001 -0.0525197 -0.00357241 -0.0419942 -2.96233e-12 -1.27935e-12 -9.58563e-14 0 5.43305e-16
358 11 0.001 -0.0516813 -0.00309498 -0.0422533 -2.48894e-12 -2.27856e-12 -3.84969e-13 0 5.08576e-16
731 12 0.001 -0.0344136 -0.00384415 -0.0414713 -3.24076e-12 8.33022e-13 -1.52264e-13 0 7.77163e-16
732 12 0.001 -0.0334498 -0.00382739 -0.0417335 -3.11621e-12 -2.48521e-13 -2.44713e-14 0 6.30817e-16
733 12 0.001 -0.0325197 -0.00357241 -0.0419942 -2.97698e-12 -1.27781e-12 -9.2642e-14 0 5.43305e-16
734 12 0.001 -0.0316813 -0.00309498 -0.0422533 -2.4717e-12 -2.26801e-12 -3.90018e-13 0 5.08576e-16
1127 14 0.001 -0.0144136 -0.00384415 -0.0414713 -3.21132e-12 8.28526e-13 -1.5939e-13 0 7.77163e-16
1128 14 0.001 -0.0134498 -0.00382739 -0.0417335 -3.1445e-12 -2.3734e-13 -1.85295e-14 0 6.30817e-16
1129 14 0.001 -0.0125197 -0.00357241 -0.0419942 -2.90981e-12 -1.28709e-12 -1.07259e-13 0 5.43305e-16
1130 14 0.001 -0.0116813 -0.00309498 -0.0422533 -2.52885e-12 -2.26533e-12 -3.78868e-13 0 5.08576e-16
1523 16 0.001 0.00558636 -0.00384415 -0.0414713 -3.21268e-12 8.21259e-13 -1.60088e-13 0 7.77163e-16
1524 16 0.001 0.0065502 -0.00382739 -0.0417335 -3.13034e-12 -2.32573e-13 -2.15549e-14 0 6.30817e-16
1525 16 0.001 0.0074803 -0.00357241 -0.0419942 -2.93396e-12 -1.28875e-12 -1.01701e-13 0 5.43305e-16
1526 16 0.001 0.00831869 -0.00309498 -0.0422533 -2.5091e-12 -2.26618e-12 -3.82715e-13 0 5.08576e-16
1919 18 0.001 0.0255864 -0.00384415 -0.0414713 -3.20507e-12 8.27773e-13 -1.60875e-13 0 7.77163e-16
1920 18 0.001 0.0265502 -0.00382739 -0.0417335 -3.15913e-12 -2.3426e-13 -1.4796e-14 0 6.30817e-16
1921 18 0.001 0.0274803 -0.00357241 -0.0419942 -2.91275e-12 -1.28765e-12 -1.06882e-13 0 5.43305e-16
1922 18 0.001 0.0283187 -0.00309498 -0.0422533 -2.51887e-12 -2.2638e-12 -3.81186e-13 0 5.08576e-16
359 11 0.001 -0.0509869 -0.0024248 -0.0425116 -1.87293e-12 -3.11124e-12 -8.33644e-13 0 5.19385e-16
360 11 0.001 -0.0504799 -0.00160366 -0.0427699 -1.11906e-12 -3.77014e-12 -1.34805e-12 0 5.67644e-16
735 12 0.001 -0.0309869 -0.0024248 -0.0425116 -1.88197e-12 -3.11764e-12 -8.31682e-13 0 5.19385e-16
736 12 0.001 -0.0304799 -0.00160366 -0.0427699 -1.09009e-12 -3.77793e-12 -1.34693e-12 0 5.67644e-16
1131 14 0.001 -0.0109869 -0.0024248 -0.0425116 -1.85768e-12 -3.11368e-12 -8.36147e-13 0 5.19385e-16
1132 14 0.001 -0.0104799 -0.00160366 -0.0427699 -1.09313e-12 -3.77668e-12 -1.34742e-12 0 5.67644e-16
1527 16 0.001 0.00901308 -0.0024248 -0.0425116 -1.87116e-12 -3.11207e-12 -8.34192e-13 0 5.19385e-16
1528 16 0.001 0.00952009 -0.00160366 -0.0427699 -1.09249e-12 -3.77769e-12 -1.34789e-12 0 5.67644e-16
1923 18 0.001 0.0290131 -0.0024248 -0.0425116 -1.85772e-12 -3.11919e-12 -8.34591e-13 0 5.19385e-16
1924 18 0.001 0.0295201 -0.00160366 -0.0427699 -1.09927e-12 -3.77506e-12 -1.34658e-12 0 5.67644e-16
353 11 0.001 -0.0562042 -0.0031741 -0.0409432 -2.51439e-12 2.82285e-12 -9.82233e-13 0 1.2455e-15
354 11 0.001 -0.0553512 -0.00362174 -0.0412078 -3.13776e-12 1.85747e-12 -4.67977e-13 0 9.84206e-16
729 12 0.001 -0.0362042 -0.0031741 -0.0409432 -2.66052e-12 2.81415e-12 -9.51332e-13 0 1.2455e-15
730 12 0.001 -0.0353512 -0.00362174 -0.0412078 -2.94991e-12 1.86318e-12 -5.12998e-13 0 9.84206e-16
1125 14 0.001 -0.0162042 -0.0031741 -0.0409432 -2.60806e-12 2.80441e-12 -9.65208e-13 0 1.2455e-15
1126 14 0.001 -0.0153512 -0.00362174 -0.0412078 -3.0096e-12 1.86094e-12 -4.98827e-13 0 9.84206e-16
1521 16 0.001 0.00379577 -0.0031741 -0.0409432 -2.61788e-12 2.80639e-12 -9.62464e-13 0 1.2455e-15
1522 16 0.001 0.00464877 -0.00362174 -0.0412078 -3.00109e-12 1.86514e-12 -5.00127e-13 0 9.84206e-16
1917 18 0.001 0.0237958 -0.0031741 -0.0409432 -2.62729e-12 2.80972e-12 -9.59608e-13 0 1.2455e-15
1918 18 0.001 0.0246488 -0.00362174 -0.0412078 -2.98686e-12 1.85744e-12 -5.05114e-13 0 9.84206e-16
351 11 0.001 -0.0574528 -0.00172698 -0.0404129 -1.25596e-12 4.22441e-12 -1.9074e-12 0 1.85118e-15
352 11 0.001 -0.0569196 -0.00252912 -0.040678 -2.1006e-12 3.57242e-12 -1.46254e-12 0 1.54364e-15
727 12 0.001 -0.0374528 -0.00172698 -0.0404129 -1.27146e-12 4.2277e-12 -1.90419e-12 0 1.85118e-15
728 12 0.001 -0.0369196 -0.00252912 -0.040678 -2.03493e-12 3.58017e-12 -1.47365e-12 0 1.54364e-15
1123 14 0.001 -0.0174528 -0.00172698 -0.0404129 -1.31806e-12 4.21371e-12 -1.90166e-12 0 1.85118e-15
1124 14 0.001 -0.0169196 -0.00252912 -0.040678 -2.03743e-12 3.60014e-12 -1.46747e-12 0 1.54364e-15
1519 16 0.001 0.00254723 -0.00172698 -0.0404129 -1.31478e-12 4.20936e-12 -1.90353e-12 0 1.85118e-15
1520 16 0.001 0.00308041 -0.00252912 -0.040678 -2.04104e-12 3.6018e-12 -1.46688e-12 0 1.54364e-15
1915 18 0.001 0.0225472 -0.00172698 -0.0404129 -1.31679e-12 4.21615e-12 -1.90207e-12 0 1.85118e-15
1916 18 0.001 0.0230804 -0.00252912 -0.040678 -2.03662e-12 3.59707e-12 -1.46845e-12 0 1.54364e-15
350 11 0.001 -0.0577706 -0.000817643 -0.0401481 -5.18893e-13 4.55676e-12 -2.20567e-12 0 2.13562e-15
726 12 0.001 -0.0377706 -0.000817643 -0.0401481 -5.2692e-13 4.55158e-12 -2.20701e-12 0 2.13562e-15
1122 14 0.001 -0.0177706 -0.000817643 -0.0401481 -4.76599e-13 4.55604e-12 -2.21041e-12 0 2.13562e-15
1518 16 0.001 0.00222943 -0.000817643 -0.0401481 -4.68973e-13 4.56066e-12 -2.20835e-12 0 2.13562e-15
1914 18 0.001 0.0222294 -0.000817643 -0.0401481 -4.70536e-13 4.55893e-12 -2.20842e-12 0 2.13562e-15
348 11 0.001 -0.0576953 0.00109281 -0.0396201 1.23756e-12 4.43308e-12 -2.21444e-12 0 2.52446e-15
349 11 0.001 -0.0578531 0.000142234 -0.0398838 4.69016e-13 4.64031e-12 -2.31201e-12 0 2.36687e-15
724 12 0.001 -0.0376953 0.00109281 -0.0396201 1.25884e-12 4.43454e-12 -2.21084e-12 0 2.52446e-15
725 12 0.001 -0.0378531 0.000142234 -0.0398838 4.81011e-13 4.63916e-12 -2.31261e-12 0 2.36687e-15
1120 14 0.001 -0.0176953 0.00109281 -0.0396201 1.28338e-12 4.42854e-12 -2.21353e-12 0 2.52446e-15
1121 14 0.001 -0.0178531 0.000142234 -0.0398838 4.34148e-13 4.64981e-12 -2.30831e-12 0 2.36687e-15
1516 16 0.001 0.00230468 0.00109281 -0.0396201 1.29287e-12 4.43297e-12 -2.21044e-12 0 2.52446e-15
1517 16 0.001 0.00214685 0.000142234 -0.0398838 4.22132e-13 4.64064e-12 -2.31253e-12 0 2.36687e-15
1912 18 0.001 0.0223047 0.00109281 -0.0396201 1.28632e-12 4.43695e-12 -2.20986e-12 0 2.52446e-15
1913 18 0.001 0.0221469 0.000142234 -0.0398838 4.27451e-13 4.63836e-12 -2.313e-12 0 2.36687e-15
347 11 0.001 -0.0573069 0.00197477 -0.0393569 2.12513e-12 3.97134e-12 -1.90395e-12 0 2.60194e-15
346 11 0.001 -0.0567121 0.0027331 -0.0390939 2.6671e-12 3.30393e-12 -1.49103e-12 0 2.607e-15
722 12 0.001 -0.0367121 0.0027331 -0.0390939 2.74895e-12 3.2874e-12 -1.47929e-12 0 2.607e-15
723 12 0.001 -0.0373069 0.00197477 -0.0393569 2.05633e-12 3.97816e-12 -1.91283e-12 0 2.60194e-15
1118 14 0.001 -0.0167121 0.0027331 -0.0390939 2.70903e-12 3.30418e-12 -1.48411e-12 0 2.607e-15
1119 14 0.001 -0.0173069 0.00197477 -0.0393569 2.07825e-12 3.96955e-12 -1.90951e-12 0 2.60194e-15
1515 16 0.001 0.00269309 0.00197477 -0.0393569 2.07807e-12 3.9747e-12 -1.90893e-12 0 2.60194e-15
1514 16 0.001 0.00328788 0.0027331 -0.0390939 2.70013e-12 3.29775e-12 -1.48641e-12 0 2.607e-15
1910 18 0.001 0.0232879 0.0027331 -0.0390939 2.70155e-12 3.30304e-12 -1.48501e-12 0 2.607e-15
1911 18 0.001 0.0226931 0.00197477 -0.0393569 2.0774e-12 3.96716e-12 -1.91097e-12 0 2.60194e-15
345 11 0.001 -0.0559481 0.00332048 -0.0388308 3.17315e-12 2.4542e-12 -9.95933e-13 0 2.55799e-15
344 11 0.001 -0.0550624 0.00370026 -0.0385673 3.41218e-12 1.50931e-12 -5.52889e-13 0 2.47841e-15
720 12 0.001 -0.0350624 0.00370026 -0.0385673 3.41571e-12 1.49217e-12 -5.53692e-13 0 2.47841e-15
721 12 0.001 -0.0359481 0.00332048 -0.0388308 3.12467e-12 2.47267e-12 -1.00333e-12 0 2.55799e-15
1117 14 0.001 -0.0159481 0.00332048 -0.0388308 3.15015e-12 2.45456e-12 -9.99814e-13 0 2.55799e-15
1116 14 0.001 -0.0150624 0.00370026 -0.0385673 3.41732e-12 1.50697e-12 -5.51983e-13 0 2.47841e-15
1513 16 0.001 0.00405194 0.00332048 -0.0388308 3.16642e-12 2.45923e-12 -9.96344e-13 0 2.55799e-15
1512 16 0.001 0.00493758 0.00370026 -0.0385673 3.3949e-12 1.5023e-12 -5.5724e-13 0 2.47841e-15
1908 18 0.001 0.0249376 0.00370026 -0.0385673 3.40203e-12 1.50164e-12 -5.54657e-13 0 2.47841e-15
1909 18 0.001 0.0240519 0.00332048 -0.0388308 3.16635e-12 2.45895e-12 -9.96942e-13 0 2.55799e-15
338 11 0.001 -0.0503725 0.0013111 -0.0369732 8.79164e-13 -3.42917e-12 -9.12755e-13 0 2.30434e-15
714 12 0.001 -0.0303725 0.0013111 -0.0369732 9.05074e-13 -3.42948e-12 -9.1139e-13 0 2.30434e-15
1110 14 0.001 -0.0103725 0.0013111 -0.0369732 8.64097e-13 -3.43065e-12 -9.12834e-13 0 2.30434e-15
1506 16 0.001 0.00962746 0.0013111 -0.0369732 8.7093e-13 -3.42657e-12 -9.13111e-13 0 2.30434e-15
1902 18 0.001 0.0296275 0.0013111 -0.0369732 9.03954e-13 -3.42178e-12 -9.11388e-13 0 2.30434e-15
340 11 0.001 -0.051449 0.00288938 -0.0375066 2.40704e-12 -2.24177e-12 -2.28613e-13 0 2.247e-15
339 11 0.001 -0.0508114 0.00216799 -0.03724 1.69454e-12 -2.94364e-12 -5.41943e-13 0 2.26082e-15
715 12 0.001 -0.0308114 0.00216799 -0.03724 1.71126e-12 -2.93387e-12 -5.39625e-13 0 2.26082e-15
716 12 0.001 -0.031449 0.00288938 -0.0375066 2.34531e-12 -2.25796e-12 -2.38876e-13 0 2.247e-15
1111 14 0.001 -0.0108114 0.00216799 -0.03724 1.70609e-12 -2.93973e-12 -5.41947e-13 0 2.26082e-15
1112 14 0.001 -0.011449 0.00288938 -0.0375066 2.40063e-12 -2.25005e-12 -2.28065e-13 0 2.247e-15
1508 16 0.001 0.00855101 0.00288938 -0.0375066 2.39798e-12 -2.24867e-12 -2.29198e-13 0 2.247e-15
1507 16 0.001 0.00918862 0.00216799 -0.03724 1.69632e-12 -2.94019e-12 -5.43285e-13 0 2.26082e-15
1903 18 0.001 0.0291886 0.00216799 -0.03724 1.67748e-12 -2.94619e-12 -5.44825e-13 0 2.26082e-15
1904 18 0.001 0.028551 0.00288938 -0.0375066 2.42263e-12 -2.24947e-12 -2.23506e-13 0 2.247e-15
343 11 0.001 -0.0541105 0.0038488 -0.0383032 3.46236e-12 5.03459e-13 -2.1013e-13 0 2.39151e-15
342 11 0.001 -0.0531516 0.00375687 -0.0380384 3.28799e-12 -4.64742e-13 -3.78416e-14 0 2.31634e-15
341 11 0.001 -0.0522456 0.00343025 -0.0377728 2.87028e-12 -1.4231e-12 -6.92519e-14 0 2.26592e-15
719 12 0.001 -0.0341105 0.0038488 -0.0383032 3.46147e-12 5.16843e-13 -2.1017e-13 0 2.39151e-15
718 12 0.001 -0.0331516 0.00375687 -0.0380384 3.27189e-12 -4.71866e-13 -4.12143e-14 0 2.31634e-15
717 12 0.001 -0.0322456 0.00343025 -0.0377728 2.93431e-12 -1.41362e-12 -5.59555e-14 0 2.26592e-15
1115 14 0.001 -0.0141105 0.0038488 -0.0383032 3.46075e-12 5.07362e-13 -2.10864e-13 0 2.39151e-15
1113 14 0.001 -0.0122456 0.00343025 -0.0377728 2.88602e-12 -1.42286e-12 -6.54938e-14 0 2.26592e-15
1114 14 0.001 -0.0131516 0.00375687 -0.0380384 3.27274e-12 -4.63429e-13 -4.21676e-14 0 2.31634e-15
1511 16 0.001 0.00588952 0.0038488 -0.0383032 3.47611e-12 5.11897e-13 -2.07244e-13 0 2.39151e-15
1510 16 0.001 0.00684839 0.00375687 -0.0380384 3.26445e-12 -4.70363e-13 -4.35088e-14 0 2.31634e-15
1509 16 0.001 0.00775438 0.00343025 -0.0377728 2.8987e-12 -1.42025e-12 -6.26079e-14 0 2.26592e-15
1907 18 0.001 0.0258895 0.0038488 -0.0383032 3.48648e-12 5.08799e-13 -2.04823e-13 0 2.39151e-15
1906 18 0.001 0.0268484 0.00375687 -0.0380384 3.25359e-12 -4.58011e-13 -4.72387e-14 0 2.31634e-15
1905 18 0.001 0.0277544 0.00343025 -0.0377728 2.87519e-12 -1.4251e-12 -6.81944e-14 0 2.26592e-15
333 11 0.001 -0.0516134 -0.00303326 -0.0356435 -3.06884e-12 -2.43555e-12 -1.56593e-12 0 2.73327e-15
709 12 0.001 -0.0316134 -0.00303326 -0.0356435 -3.06454e-12 -2.41963e-12 -1.57004e-12 0 2.73327e-15
1105 14 0.001 -0.0116134 -0.00303326 -0.0356435 -2.99777e-12 -2.43184e-12 -1.58083e-12 0 2.73327e-15
1501 16 0.001 0.00838657 -0.00303326 -0.0356435 -2.99914e-12 -2.44303e-12 -1.57732e-12 0 2.73327e-15
1897 18 0.001 0.0283866 -0.00303326 -0.0356435 -2.99311e-12 -2.44012e-12 -1.57889e-12 0 2.73327e-15
334 11 0.001 -0.0509367 -0.00234785 -0.0359086 -2.37602e-12 -3.06977e-12 -1.71295e-12 0 2.64121e-15
335 11 0.001 -0.0504509 -0.00151623 -0.0361741 -1.70281e-12 -3.52346e-12 -1.68961e-12 0 2.54703e-15
710 12 0.001 -0.0309367 -0.00234785 -0.0359086 -2.38013e-12 -3.08483e-12 -1.70876e-12 0 2.64121e-15
711 12 0.001 -0.0304509 -0.00151623 -0.0361741 -1.71632e-12 -3.51121e-12 -1.69214e-12 0 2.54703e-15
1106 14 0.001 -0.0109367 -0.00234785 -0.0359086 -2.42996e-12 -3.07591e-12 -1.70195e-12 0 2.64121e-15
1107 14 0.001 -0.0104509 -0.00151623 -0.0361741 -1.69913e-12 -3.52338e-12 -1.69109e-12 0 2.54703e-15
1502 16 0.001 0.00906332 -0.00234785 -0.0359086 -2.41891e-12 -3.06171e-12 -1.70847e-12 0 2.64121e-15
1503 16 0.001 0.00954905 -0.00151623 -0.0361741 -1.71223e-12 -3.52997e-12 -1.68694e-12 0 2.54703e-15
1898 18 0.001 0.0290633 -0.00234785 -0.0359086 -2.42189e-12 -3.05762e-12 -1.70887e-12 0 2.64121e-15
1899 18 0.001 0.0295491 -0.00151623 -0.0361741 -1.7175e-12 -3.53036e-12 -1.68695e-12 0 2.54703e-15
336 11 0.001 -0.0501865 -0.000590309 -0.0364401 -8.88907e-13 -3.723e-12 -1.54164e-12 0 2.45501e-15
712 12 0.001 -0.0301865 -0.000590309 -0.0364401 -8.49974e-13 -3.7304e-12 -1.54079e-12 0 2.45501e-15
1108 14 0.001 -0.0101865 -0.000590309 -0.0364401 -8.78321e-13 -3.72331e-12 -1.54244e-12 0 2.45501e-15
1504 16 0.001 0.0098135 -0.000590309 -0.0364401 -8.65419e-13 -3.72345e-12 -1.5435e-12 0 2.45501e-15
1900 18 0.001 0.0298135 -0.000590309 -0.0364401 -8.4085e-13 -3.72844e-12 -1.54241e-12 0 2.45501e-15
337 11 0.001 -0.0501598 0.000372146 -0.0367065 3.61271e-14 -3.72357e-12 -1.25718e-12 0 2.37157e-15
713 12 0.001 -0.0301598 0.000372146 -0.0367065 -7.50954e-15 -3.72012e-12 -1.259e-12 0 2.37157e-15
1109 14 0.001 -0.0101598 0.000372146 -0.0367065 4.28312e-14 -3.72017e-12 -1.25766e-12 0 2.37157e-15
1505 16 0.001 0.00984018 0.000372146 -0.0367065 3.46477e-14 -3.72279e-12 -1.25684e-12 0 2.37157e-15
1901 18 0.001 0.0298402 0.000372146 -0.0367065 -3.00121e-15 -3.72104e-12 -1.25862e-12 0 2.37157e-15
328 11 0.001 -0.0561302 -0.00321728 -0.0343221 -2.76486e-12 1.69817e-12 -5.08794e-13 0 3.16931e-15
329 11 0.001 -0.0552669 -0.00364491 -0.0345863 -3.21155e-12 9.36095e-13 -6.2139e-13 0 3.07759e-15
330 11 0.001 -0.0543245 -0.00384537 -0.0348504 -3.49039e-12 8.47179e-14 -8.23753e-13 0 2.99094e-15
331 11 0.001 -0.0533619 -0.00380614 -0.0351146 -3.51224e-12 -8.03212e-13 -1.09468e-12 0 2.9066e-15
332 11 0.001 -0.052439 -0.00352968 -0.0353789 -3.32244e-12 -1.65873e-12 -1.37173e-12 0 2.8215e-15
704 12 0.001 -0.0361302 -0.00321728 -0.0343221 -2.77261e-12 1.71582e-12 -5.02825e-13 0 3.16931e-15
705 12 0.001 -0.0352669 -0.00364491 -0.0345863 -3.1819e-12 9.22064e-13 -6.31356e-13 0 3.07759e-15
706 12 0.001 -0.0343245 -0.00384537 -0.0348504 -3.50521e-12 8.63433e-14 -8.18204e-13 0 2.99094e-15
707 12 0.001 -0.0333619 -0.00380614 -0.0351146 -3.49725e-12 -7.96381e-13 -1.10097e-12 0 2.9066e-15
708 12 0.001 -0.032439 -0.00352968 -0.0353789 -3.33251e-12 -1.67499e-12 -1.36578e-12 0 2.8215e-15
1100 14 0.001 -0.0161302 -0.00321728 -0.0343221 -2.75656e-12 1.71627e-12 -5.05768e-13 0 3.16931e-15
1101 14 0.001 -0.0152669 -0.00364491 -0.0345863 -3.20516e-12 9.25223e-13 -6.25449e-13 0 3.07759e-15
1102 14 0.001 -0.0143245 -0.00384537 -0.0348504 -3.47131e-12 8.46495e-14 -8.28575e-13 0 2.99094e-15
1104 14 0.001 -0.012439 -0.00352968 -0.0353789 -3.35376e-12 -1.65358e-12 -1.36532e-12 0 2.8215e-15
1103 14 0.001 -0.0133619 -0.00380614 -0.0351146 -3.52542e-12 -8.08811e-13 -1.09073e-12 0 2.9066e-15
1496 16 0.001 0.00386975 -0.00321728 -0.0343221 -2.77473e-12 1.71774e-12 -5.02515e-13 0 3.16931e-15
1497 16 0.001 0.00473309 -0.00364491 -0.0345863 -3.20033e-12 9.30877e-13 -6.2563e-13 0 3.07759e-15
1498 16 0.001 0.00567546 -0.00384537 -0.0348504 -3.46739e-12 8.10632e-14 -8.2955e-13 0 2.99094e-15
1499 16 0.001 0.00663811 -0.00380614 -0.0351146 -3.54229e-12 -8.10432e-13 -1.08619e-12 0 2.9066e-15
1500 16 0.001 0.007561 -0.00352968 -0.0353789 -3.34688e-12 -1.64714e-12 -1.36862e-12 0 2.8215e-15
1892 18 0.001 0.0238698 -0.00321728 -0.0343221 -2.75184e-12 1.71701e-12 -5.0817e-13 0 3.16931e-15
1893 18 0.001 0.0247331 -0.00364491 -0.0345863 -3.20408e-12 9.26439e-13 -6.2419e-13 0 3.07759e-15
1894 18 0.001 0.0256755 -0.00384537 -0.0348504 -3.46913e-12 8.0388e-14 -8.30057e-13 0 2.99094e-15
1895 18 0.001 0.0266381 -0.00380614 -0.0351146 -3.53398e-12 -8.08146e-13 -1.08795e-12 0 2.9066e-15
1896 18 0.001 0.027561 -0.00352968 -0.0353789 -3.35634e-12 -1.65336e-12 -1.36547e-12 0 2.8215e-15
327 11 0.001 -0.0568607 -0.00258914 -0.0340578 -2.14676e-12 2.3671e-12 -4.95181e-13 0 3.26769e-15
703 12 0.001 -0.0368607 -0.00258914 -0.0340578 -2.18848e-12 2.36002e-12 -4.9015e-13 0 3.26769e-15
1099 14 0.001 -0.0168607 -0.00258914 -0.0340578 -2.18118e-12 2.35554e-12 -4.92339e-13 0 3.26769e-15