ITEM: TIMESTEP
6400000
ITEM: NUMBER OF ATOMS
1970
ITEM: BOX BOUNDS ff ff ff
-6.0000000000000005e-02 6.0000000000000005e-02
-6.0000000000000001e-03 6.0000000000000001e-03
-5.5000000000000000e-02 5.5000000000000000e-02
ITEM: ATOMS id type radius x y z fx fy fz c_bendingE c_stretchingE
384 11 0.001 -0.0508236 -0.00263501 -0.0489918 -4.59978e-13 5.20224e-14 -2.25506e-13 0 2.87461e-17
385 11 0.001 -0.050323 -0.00183339 -0.0493155 -3.03367e-13 3.28653e-14 -1.4653e-13 0 9.10034e-15
760 12 0.001 -0.0308235 -0.002635 -0.0489917 -4.38224e-13 6.10676e-14 -2.03105e-13 0 2.97178e-17
761 12 0.001 -0.0303229 -0.00183336 -0.0493154 -2.81268e-13 8.41308e-15 -1.13339e-13 0 9.04618e-15
1156 14 0.001 -0.0108235 -0.002635 -0.0489917 -4.26297e-13 5.73972e-14 -2.04368e-13 0 2.97178e-17
1157 14 0.001 -0.0103229 -0.00183336 -0.0493154 -3.0002e-13 7.96716e-15 -1.10082e-13 0 9.04618e-15
1552 16 0.001 0.0091765 -0.002635 -0.0489917 -4.34809e-13 6.89115e-14 -2.05997e-13 0 2.97178e-17
1553 16 0.001 0.00967708 -0.00183336 -0.0493154 -2.93552e-13 2.9565e-15 -1.09694e-13 0 9.04618e-15
1948 18 0.001 0.0291765 -0.002635 -0.0489917 -4.30905e-13 6.50085e-14 -2.05162e-13 0 2.97178e-17
1949 18 0.001 0.0296771 -0.00183336 -0.0493154 -2.88276e-13 1.25526e-14 -1.14475e-13 0 9.04618e-15
2 2 0.001 -0.05 -4.31175e-17 -0.05 -3.03431e-06 3.3319e-06 2.04762e-06 0 7.85735e-15
386 11 0.001 -0.0500428 -0.000935923 -0.0496532 -1.64679e-13 -3.97305e-14 -4.84421e-14 0 1.69394e-14
762 12 0.001 -0.0300427 -0.000935903 -0.0496532 -1.60054e-13 1.58387e-14 -6.0523e-14 0 1.68236e-14
4 4 0.001 -0.03 -4.31175e-17 -0.05 -3.04996e-06 3.37296e-06 2.03605e-06 0 7.79776e-15
6 6 0.001 -0.01 -4.31175e-17 -0.05 -3.04996e-06 3.37296e-06 2.03605e-06 0 7.79776e-15
1158 14 0.001 -0.0100427 -0.000935903 -0.0496532 -1.49533e-13 1.78279e-14 -6.27197e-14 0 1.68236e-14
8 8 0.001 0.01 -4.31175e-17 -0.05 -3.04996e-06 3.37296e-06 2.03605e-06 0 7.79776e-15
1554 16 0.001 0.00995727 -0.000935903 -0.0496532 -1.51323e-13 1.66109e-14 -6.18459e-14 0 1.68236e-14
10 10 0.001 0.03 -4.31175e-17 -0.05 -3.04996e-06 3.37296e-06 2.03605e-06 0 7.79776e-15
1950 18 0.001 0.0299573 -0.000935903 -0.0496532 -1.58029e-13 -2.47194e-15 -5.3668e-14 0 1.68236e-14
379 11 0.001 -0.0551939 -0.00377258 -0.0476552 -7.11009e-13 6.0487e-13 -5.90653e-13 0 1.12544e-15
380 11 0.001 -0.0542501 -0.00400466 -0.0478863 -7.02872e-13 4.77283e-13 -5.71988e-13 0 9.66723e-16
381 11 0.001 -0.0532821 -0.00399779 -0.0481334 -7.45581e-13 3.50957e-13 -4.9269e-13 0 6.85555e-16
382 11 0.001 -0.0523506 -0.00375374 -0.0483995 -6.16233e-13 2.50883e-13 -4.35538e-13 0 3.65937e-16
383 11 0.001 -0.0515138 -0.00328927 -0.0486858 -5.84006e-13 1.28378e-13 -3.19363e-13 0 1.15246e-16
755 12 0.001 -0.0351937 -0.00377272 -0.047655 -6.78247e-13 5.71918e-13 -5.59376e-13 0 1.12931e-15
756 12 0.001 -0.0342499 -0.00400477 -0.0478861 -6.65804e-13 4.60116e-13 -5.32544e-13 0 9.66902e-16
757 12 0.001 -0.0332819 -0.00399786 -0.0481332 -7.11663e-13 3.30423e-13 -4.55264e-13 0 6.82397e-16
758 12 0.001 -0.0323504 -0.00375377 -0.0483993 -5.90123e-13 2.49723e-13 -3.96485e-13 0 3.61061e-16
759 12 0.001 -0.0315136 -0.00328927 -0.0486856 -5.42009e-13 1.26355e-13 -2.89185e-13 0 1.11497e-16
1151 14 0.001 -0.0151937 -0.00377272 -0.047655 -6.56739e-13 5.77057e-13 -5.63108e-13 0 1.12931e-15
1152 14 0.001 -0.0142499 -0.00400477 -0.0478861 -6.81178e-13 4.58357e-13 -5.29303e-13 0 9.66902e-16
1153 14 0.001 -0.0132819 -0.00399786 -0.0481332 -6.79728e-13 3.34493e-13 -4.63292e-13 0 6.82397e-16
1154 14 0.001 -0.0123504 -0.00375377 -0.0483993 -6.05641e-13 2.48846e-13 -3.93129e-13 0 3.61061e-16
1155 14 0.001 -0.0115136 -0.00328927 -0.0486856 -5.47064e-13 1.24876e-13 -2.87491e-13 0 1.11497e-16
1547 16 0.001 0.00480634 -0.00377272 -0.047655 -6.65664e-13 5.75764e-13 -5.61163e-13 0 1.12931e-15
1548 16 0.001 0.00575015 -0.00400477 -0.0478861 -6.75482e-13 4.57807e-13 -5.313e-13 0 9.66902e-16
1549 16 0.001 0.00671808 -0.00399786 -0.0481332 -6.85741e-13 3.32359e-13 -4.61009e-13 0 6.82397e-16
1550 16 0.001 0.00764956 -0.00375377 -0.0483993 -6.09193e-13 2.53639e-13 -3.93529e-13 0 3.61061e-16
1551 16 0.001 0.0084864 -0.00328927 -0.0486856 -5.37906e-13 1.15336e-13 -2.87014e-13 0 1.11497e-16
1943 18 0.001 0.0248063 -0.00377272 -0.047655 -6.41355e-13 5.76299e-13 -5.6457e-13 0 1.12931e-15
1944 18 0.001 0.0257501 -0.00400477 -0.0478861 -7.10104e-13 4.55013e-13 -5.23587e-13 0 9.66902e-16
1945 18 0.001 0.0267181 -0.00399786 -0.0481332 -6.60938e-13 3.4702e-13 -4.68646e-13 0 6.82397e-16
1946 18 0.001 0.0276496 -0.00375377 -0.0483993 -6.0826e-13 2.37546e-13 -3.90831e-13 0 3.61061e-16
1947 18 0.001 0.0284864 -0.00328927 -0.0486856 -5.49281e-13 1.24704e-13 -2.86973e-13 0 1.11497e-16
378 11 0.001 -0.0560544 -0.00331495 -0.047436 -6.37189e-13 6.94375e-13 -5.93808e-13 0 1.12479e-15
754 12 0.001 -0.0360542 -0.00331513 -0.0474359 -5.8979e-13 6.81985e-13 -5.60331e-13 0 1.1317e-15
1150 14 0.001 -0.0160542 -0.00331513 -0.0474359 -6.28454e-13 6.72587e-13 -5.54251e-13 0 1.1317e-15
1546 16 0.001 0.00394576 -0.00331513 -0.0474359 -6.08149e-13 6.74996e-13 -5.57895e-13 0 1.1317e-15
1942 18 0.001 0.0239458 -0.00331513 -0.0474359 -6.2532e-13 6.72615e-13 -5.56554e-13 0 1.1317e-15
376 11 0.001 -0.0573194 -0.00184674 -0.0470138 -4.40923e-13 8.33006e-13 -4.72444e-13 0 7.44178e-16
377 11 0.001 -0.0567779 -0.00265956 -0.047224 -5.2431e-13 8.07296e-13 -5.44562e-13 0 9.79791e-16
753 12 0.001 -0.0367778 -0.00265977 -0.0472238 -5.43718e-13 7.50028e-13 -5.19386e-13 0 9.88511e-16
752 12 0.001 -0.0373193 -0.00184697 -0.0470137 -3.72584e-13 8.10626e-13 -4.49336e-13 0 7.53303e-16
1149 14 0.001 -0.0167778 -0.00265977 -0.0472238 -5.01581e-13 7.5807e-13 -5.23678e-13 0 9.88511e-16
1148 14 0.001 -0.0173193 -0.00184697 -0.0470137 -4.2376e-13 8.0186e-13 -4.48245e-13 0 7.53303e-16
1544 16 0.001 0.00268069 -0.00184697 -0.0470137 -4.12115e-13 8.13854e-13 -4.46763e-13 0 7.53303e-16
1545 16 0.001 0.00322219 -0.00265977 -0.0472238 -5.19877e-13 7.5218e-13 -5.21896e-13 0 9.88511e-16
1941 18 0.001 0.0232222 -0.00265977 -0.0472238 -5.0085e-13 7.55164e-13 -5.22912e-13 0 9.88511e-16
1940 18 0.001 0.0226807 -0.00184697 -0.0470137 -4.43879e-13 8.04326e-13 -4.46922e-13 0 7.53303e-16
375 11 0.001 -0.0576453 -0.000926773 -0.0468006 -3.0078e-13 8.84441e-13 -3.53821e-13 0 4.86304e-16
751 12 0.001 -0.0376453 -0.000927016 -0.0468005 -3.4659e-13 8.20679e-13 -3.46032e-13 0 4.94584e-16
1147 14 0.001 -0.0176453 -0.000927016 -0.0468005 -2.74482e-13 8.28701e-13 -3.43284e-13 0 4.94584e-16
1543 16 0.001 0.00235471 -0.000927016 -0.0468005 -2.84329e-13 8.23126e-13 -3.44318e-13 0 4.94584e-16
1939 18 0.001 0.0223547 -0.000927016 -0.0468005 -2.41021e-13 8.30533e-13 -3.44194e-13 0 4.94584e-16
373 11 0.001 -0.0575863 0.00100369 -0.046349 -5.23322e-15 7.96917e-13 -1.01326e-13 0 1.11932e-16
374 11 0.001 -0.057736 4.3369e-05 -0.0465801 -1.54577e-13 8.54826e-13 -2.35868e-13 0 2.64683e-16
749 12 0.001 -0.0375864 0.00100346 -0.0463489 -8.00027e-14 7.82282e-13 -9.25305e-14 0 1.16322e-16
750 12 0.001 -0.037736 4.3127e-05 -0.04658 -7.15536e-14 8.16596e-13 -2.19016e-13 0 2.71232e-16
1145 14 0.001 -0.0175864 0.00100346 -0.0463489 -1.90206e-14 7.7151e-13 -8.9183e-14 0 1.16322e-16
1146 14 0.001 -0.017736 4.3127e-05 -0.04658 -1.58885e-13 8.17882e-13 -2.24057e-13 0 2.71232e-16
1541 16 0.001 0.00241362 0.00100346 -0.0463489 -1.3972e-14 7.73705e-13 -8.92522e-14 0 1.16322e-16
1542 16 0.001 0.00226403 4.3127e-05 -0.04658 -1.57481e-13 8.1518e-13 -2.24395e-13 0 2.71232e-16
1937 18 0.001 0.0224136 0.00100346 -0.0463489 -2.10681e-14 7.72255e-13 -9.19124e-14 0 1.16322e-16
1938 18 0.001 0.022264 4.3127e-05 -0.04658 -1.82171e-13 8.13456e-13 -2.23753e-13 0 2.71232e-16
372 11 0.001 -0.0572064 0.00189491 -0.0461052 9.05334e-14 7.15528e-13 2.4452e-14 0 3.12351e-17
748 12 0.001 -0.0372066 0.00189471 -0.0461052 7.48867e-14 6.39046e-13 1.21973e-14 0 3.34907e-17
1144 14 0.001 -0.0172066 0.00189471 -0.0461052 6.01206e-14 6.44763e-13 1.27203e-14 0 3.34907e-17
1540 16 0.001 0.00279345 0.00189471 -0.0461052 6.19099e-14 6.4704e-13 1.52135e-14 0 3.34907e-17
1936 18 0.001 0.0227934 0.00189471 -0.0461052 7.05981e-14 6.46147e-13 1.63794e-14 0 3.34907e-17
371 11 0.001 -0.0566207 0.00266221 -0.0458481 2.12571e-13 5.76555e-13 1.18661e-13 0 3.96281e-18
747 12 0.001 -0.0366208 0.00266204 -0.045848 2.47368e-13 5.67484e-13 1.44098e-13 0 4.47869e-18
1143 14 0.001 -0.0166208 0.00266204 -0.045848 2.0851e-13 5.68805e-13 1.33403e-13 0 4.47869e-18
1539 16 0.001 0.0033792 0.00266204 -0.045848 2.15849e-13 5.70406e-13 1.34394e-13 0 4.47869e-18
1935 18 0.001 0.0233792 0.00266204 -0.045848 2.23712e-13 5.76114e-13 1.37168e-13 0 4.47869e-18
370 11 0.001 -0.0558659 0.00325849 -0.0455781 3.03698e-13 4.57694e-13 2.03099e-13 0 3.21085e-18
369 11 0.001 -0.0549897 0.0036473 -0.045297 3.62412e-13 2.75514e-13 2.30206e-13 0 6.86359e-18
368 11 0.001 -0.0540467 0.00380499 -0.0450072 3.76459e-13 1.16269e-13 2.20733e-13 0 5.25898e-18
367 11 0.001 -0.053096 0.00372217 -0.0447118 4.20967e-13 -5.6967e-14 1.87192e-13 0 1.55378e-18
745 12 0.001 -0.0349899 0.00364723 -0.0452969 3.48139e-13 2.614e-13 2.37712e-13 0 5.8573e-18
746 12 0.001 -0.0358661 0.00325836 -0.0455781 2.17475e-13 4.33552e-13 1.83418e-13 0 2.61576e-18
744 12 0.001 -0.034047 0.00380498 -0.0450072 3.58363e-13 1.08695e-13 2.2627e-13 0 4.45558e-18
743 12 0.001 -0.0330962 0.00372221 -0.0447118 3.29233e-13 -5.62919e-14 1.73081e-13 0 1.36451e-18
1142 14 0.001 -0.0158661 0.00325836 -0.0455781 2.79492e-13 4.26005e-13 1.99874e-13 0 2.61576e-18
1140 14 0.001 -0.014047 0.00380498 -0.0450072 3.46465e-13 1.00643e-13 2.23014e-13 0 4.45558e-18
1141 14 0.001 -0.0149899 0.00364723 -0.0452969 3.26841e-13 2.75107e-13 2.32563e-13 0 5.8573e-18
1139 14 0.001 -0.0130962 0.00372221 -0.0447118 3.455e-13 -4.38668e-14 1.76308e-13 0 1.36451e-18
1538 16 0.001 0.00413387 0.00325836 -0.0455781 2.57657e-13 4.20309e-13 1.94254e-13 0 2.61576e-18
1537 16 0.001 0.00501009 0.00364723 -0.0452969 3.36294e-13 2.75419e-13 2.34963e-13 0 5.8573e-18
1536 16 0.001 0.00595305 0.00380498 -0.0450072 3.5217e-13 1.03776e-13 2.24617e-13 0 4.45558e-18
1535 16 0.001 0.00690379 0.00372221 -0.0447118 3.4311e-13 -4.93312e-14 1.76064e-13 0 1.36451e-18
1933 18 0.001 0.0250101 0.00364723 -0.0452969 3.28981e-13 2.77596e-13 2.32889e-13 0 5.8573e-18
1934 18 0.001 0.0241339 0.00325836 -0.0455781 2.56542e-13 4.18363e-13 1.94114e-13 0 2.61576e-18
1932 18 0.001 0.025953 0.00380498 -0.0450072 3.40334e-13 9.64952e-14 2.20604e-13 0 4.45558e-18
1931 18 0.001 0.0269038 0.00372221 -0.0447118 3.75666e-13 -4.18e-14 1.86475e-13 0 1.36451e-18
361 11 0.001 -0.0501569 -0.000590983 -0.0429808 -1.94912e-13 -6.38991e-13 -3.73767e-13 0 2.14695e-16
737 12 0.001 -0.0301568 -0.000590765 -0.0429808 -1.48617e-13 -6.04325e-13 -3.61715e-13 0 2.16436e-16
1133 14 0.001 -0.0101568 -0.000590765 -0.0429808 -1.5336e-13 -6.02397e-13 -3.62627e-13 0 2.16436e-16
1529 16 0.001 0.00984316 -0.000590765 -0.0429808 -1.60978e-13 -5.9985e-13 -3.62728e-13 0 2.16436e-16
1925 18 0.001 0.0298432 -0.000590765 -0.0429808 -1.39357e-13 -6.0335e-13 -3.61858e-13 0 2.16436e-16
362 11 0.001 -0.0501274 0.000369327 -0.0432546 -7.75196e-15 -6.1609e-13 -3.12163e-13 0 1.78174e-16
363 11 0.001 -0.0503372 0.00130473 -0.0435357 9.74956e-14 -5.84616e-13 -2.16477e-13 0 1.25171e-16
738 12 0.001 -0.0301274 0.000369545 -0.0432546 -6.26936e-14 -6.00073e-13 -3.01115e-13 0 1.80055e-16
739 12 0.001 -0.0303373 0.00130493 -0.0435357 1.11042e-13 -5.37919e-13 -2.07783e-13 0 1.27087e-16
1134 14 0.001 -0.0101274 0.000369545 -0.0432546 -4.20784e-14 -6.04097e-13 -2.98115e-13 0 1.80055e-16
1135 14 0.001 -0.0103373 0.00130493 -0.0435357 7.80664e-14 -5.37439e-13 -2.12142e-13 0 1.27087e-16
1530 16 0.001 0.00987258 0.000369545 -0.0432546 -4.36261e-14 -6.01096e-13 -2.99144e-13 0 1.80055e-16
1531 16 0.001 0.0096627 0.00130493 -0.0435357 7.79977e-14 -5.42306e-13 -2.11105e-13 0 1.27087e-16
1926 18 0.001 0.0298726 0.000369545 -0.0432546 -7.14522e-14 -6.05293e-13 -2.99842e-13 0 1.80055e-16
1927 18 0.001 0.0296627 0.00130493 -0.0435357 1.11099e-13 -5.364e-13 -2.0844e-13 0 1.27087e-16
365 11 0.001 -0.0514059 0.00287125 -0.0441171 3.26336e-13 -3.58282e-13 3.12411e-16 0 2.84018e-17
364 11 0.001 -0.0507726 0.0021565 -0.0438237 1.53731e-13 -4.88218e-13 -1.21625e-13 0 7.0551e-17
740 12 0.001 -0.0307728 0.00215667 -0.0438236 1.49954e-13 -4.57609e-13 -1.1223e-13 0 7.22826e-17
741 12 0.001 -0.0314061 0.00287139 -0.0441171 2.63215e-13 -3.54401e-13 1.99186e-15 0 2.96741e-17
1136 14 0.001 -0.0107728 0.00215667 -0.0438236 1.70106e-13 -4.51854e-13 -1.10591e-13 0 7.22826e-17
1137 14 0.001 -0.0114061 0.00287139 -0.0441171 2.58433e-13 -3.47362e-13 4.91472e-16 0 2.96741e-17
1533 16 0.001 0.00859393 0.00287139 -0.0441171 2.60759e-13 -3.51717e-13 1.69594e-15 0 2.96741e-17
1532 16 0.001 0.00922722 0.00215667 -0.0438236 1.74312e-13 -4.52251e-13 -1.09815e-13 0 7.22826e-17
1928 18 0.001 0.0292272 0.00215667 -0.0438236 1.54798e-13 -4.61228e-13 -1.11154e-13 0 7.22826e-17
1929 18 0.001 0.0285939 0.00287139 -0.0441171 2.67733e-13 -3.40236e-13 2.35797e-15 0 2.96741e-17
366 11 0.001 -0.0521969 0.00340426 -0.0444141 3.20023e-13 -2.17987e-13 8.9577e-14 0 6.10625e-18
742 12 0.001 -0.0321971 0.00340435 -0.044414 3.44294e-13 -1.90383e-13 1.06997e-13 0 6.68704e-18
1138 14 0.001 -0.0121971 0.00340435 -0.044414 3.37386e-13 -2.11621e-13 1.07813e-13 0 6.68704e-18
1534 16 0.001 0.00780287 0.00340435 -0.044414 3.30241e-13 -2.01965e-13 1.04527e-13 0 6.68704e-18
1930 18 0.001 0.0278029 0.00340435 -0.044414 3.06643e-13 -2.08973e-13 9.6952e-14 0 6.68704e-18
355 11 0.001 -0.0543158 -0.00384296 -0.0414413 -5.78152e-13 -3.5675e-14 -1.22474e-13 0 5.0283e-17
356 11 0.001 -0.0533498 -0.00380442 -0.0416931 -5.44921e-13 -2.06587e-13 -2.23427e-13 0 8.3451e-17
357 11 0.001 -0.0524232 -0.00352844 -0.0419447 -5.23528e-13 -3.27251e-13 -2.95797e-13 0 1.26294e-16
358 11 0.001 -0.0515938 -0.00303225 -0.0421976 -4.35516e-13 -4.50573e-13 -3.66216e-13 0 1.7165e-16
731 12 0.001 -0.0343155 -0.00384299 -0.0414412 -4.9963e-13 -7.54741e-14 -1.29992e-13 0 5.18136e-17
732 12 0.001 -0.0333496 -0.0038044 -0.041693 -5.43202e-13 -1.83697e-13 -1.98133e-13 0 8.50561e-17
733 12 0.001 -0.032423 -0.00352835 -0.0419446 -4.64323e-13 -3.08463e-13 -2.9696e-13 0 1.27901e-16
734 12 0.001 -0.0315937 -0.00303212 -0.0421975 -4.51841e-13 -4.32089e-13 -3.44441e-13 0 1.73218e-16
1127 14 0.001 -0.0143155 -0.00384299 -0.0414412 -4.70946e-13 -7.25386e-14 -1.35125e-13 0 5.18136e-17
1128 14 0.001 -0.0133496 -0.0038044 -0.041693 -5.30778e-13 -1.85723e-13 -2.02233e-13 0 8.50561e-17
1129 14 0.001 -0.012423 -0.00352835 -0.0419446 -4.82506e-13 -3.12909e-13 -2.92047e-13 0 1.27901e-16
1130 14 0.001 -0.0115937 -0.00303212 -0.0421975 -4.59864e-13 -4.33844e-13 -3.42674e-13 0 1.73218e-16
1523 16 0.001 0.00568445 -0.00384299 -0.0414412 -4.81806e-13 -6.81688e-14 -1.3255e-13 0 5.18136e-17
1524 16 0.001 0.00665043 -0.0038044 -0.041693 -5.15425e-13 -1.91467e-13 -2.05532e-13 0 8.50561e-17
1525 16 0.001 0.00757699 -0.00352835 -0.0419446 -5.00022e-13 -3.06788e-13 -2.88954e-13 0 1.27901e-16
1526 16 0.001 0.00840634 -0.00303212 -0.0421975 -4.35208e-13 -4.35308e-13 -3.46837e-13 0 1.73218e-16
1919 18 0.001 0.0256845 -0.00384299 -0.0414412 -4.81401e-13 -7.45356e-14 -1.34176e-13 0 5.18136e-17
1920 18 0.001 0.0266504 -0.0038044 -0.041693 -5.32437e-13 -1.86447e-13 -2.01041e-13 0 8.50561e-17
1921 18 0.001 0.027577 -0.00352835 -0.0419446 -4.73315e-13 -3.12177e-13 -2.93804e-13 0 1.27901e-16
1922 18 0.001 0.0284063 -0.00303212 -0.0421975 -4.62835e-13 -4.33343e-13 -3.42575e-13 0 1.73218e-16
359 11 0.001 -0.0509134 -0.00234702 -0.0424535 -4.47094e-13 -5.45964e-13 -3.88477e-13 0 2.0841e-16
360 11 0.001 -0.0504243 -0.00151583 -0.0427141 -2.51351e-13 -6.1973e-13 -4.01652e-13 0 2.25112e-16
735 12 0.001 -0.0309133 -0.00234685 -0.0424534 -3.77486e-13 -5.20449e-13 -3.83685e-13 0 2.09961e-16
736 12 0.001 -0.0304242 -0.00151563 -0.042714 -2.81385e-13 -5.8268e-13 -3.8915e-13 0 2.26721e-16
1131 14 0.001 -0.0109133 -0.00234685 -0.0424534 -3.60614e-13 -5.18802e-13 -3.86605e-13 0 2.09961e-16
1132 14 0.001 -0.0104242 -0.00151563 -0.042714 -2.86713e-13 -5.79326e-13 -3.8921e-13 0 2.26721e-16
1527 16 0.001 0.00908673 -0.00234685 -0.0424534 -3.89428e-13 -5.19858e-13 -3.82461e-13 0 2.09961e-16
1528 16 0.001 0.00957577 -0.00151563 -0.042714 -2.66421e-13 -5.81919e-13 -3.90397e-13 0 2.26721e-16
1923 18 0.001 0.0290867 -0.00234685 -0.0424534 -3.66432e-13 -5.20738e-13 -3.85212e-13 0 2.09961e-16
1924 18 0.001 0.0295758 -0.00151563 -0.042714 -2.83266e-13 -5.75701e-13 -3.90981e-13 0 2.26721e-16
353 11 0.001 -0.0561264 -0.00321332 -0.040932 -4.62272e-13 2.01431e-13 1.00376e-15 0 1.77496e-17
354 11 0.001 -0.0552609 -0.0036417 -0.0411879 -4.02779e-13 5.31169e-14 -8.85645e-14 0 2.89113e-17
729 12 0.001 -0.0361262 -0.00321347 -0.0409319 -3.32084e-13 1.62154e-13 -1.24068e-14 0 1.90607e-17
730 12 0.001 -0.0352607 -0.00364179 -0.0411878 -4.44891e-13 6.28131e-14 -5.78357e-14 0 3.03176e-17
1125 14 0.001 -0.0161262 -0.00321347 -0.0409319 -3.58541e-13 1.66413e-13 -3.11171e-15 0 1.90607e-17
1126 14 0.001 -0.0152607 -0.00364179 -0.0411878 -4.69435e-13 6.50792e-14 -5.43333e-14 0 3.03176e-17
1521 16 0.001 0.0038738 -0.00321347 -0.0409319 -3.6458e-13 1.72088e-13 -1.03719e-15 0 1.90607e-17
1522 16 0.001 0.0047393 -0.00364179 -0.0411878 -4.62332e-13 6.20639e-14 -5.60694e-14 0 3.03176e-17
1917 18 0.001 0.0238738 -0.00321347 -0.0409319 -3.592e-13 1.63603e-13 -4.75845e-15 0 1.90607e-17
1918 18 0.001 0.0247393 -0.00364179 -0.0411878 -4.63943e-13 6.84451e-14 -5.35616e-14 0 3.03176e-17
351 11 0.001 -0.0574115 -0.00179502 -0.0404113 -1.33135e-13 3.90309e-13 1.74276e-14 0 1.65541e-17
352 11 0.001 -0.0568584 -0.00258467 -0.0406731 -2.91101e-13 2.95453e-13 1.30603e-14 0 1.41122e-17
727 12 0.001 -0.0374114 -0.00179525 -0.0404112 -1.5675e-13 3.35719e-13 2.88952e-14 0 1.81746e-17
728 12 0.001 -0.0368582 -0.00258486 -0.0406731 -3.1822e-13 3.0261e-13 3.60131e-14 0 1.54636e-17
1123 14 0.001 -0.0174114 -0.00179525 -0.0404112 -1.20116e-13 3.50986e-13 3.31274e-14 0 1.81746e-17
1124 14 0.001 -0.0168582 -0.00258486 -0.0406731 -2.93541e-13 2.86008e-13 2.37719e-14 0 1.54636e-17
1519 16 0.001 0.00258864 -0.00179525 -0.0404112 -1.63183e-13 3.51944e-13 3.70308e-14 0 1.81746e-17
1520 16 0.001 0.00314177 -0.00258486 -0.0406731 -2.77319e-13 2.80277e-13 2.07399e-14 0 1.54636e-17
1915 18 0.001 0.0225886 -0.00179525 -0.0404112 -1.26158e-13 3.46722e-13 3.25782e-14 0 1.81746e-17
1916 18 0.001 0.0231418 -0.00258486 -0.0406731 -2.88091e-13 2.87725e-13 2.41908e-14 0 1.54636e-17
350 11 0.001 -0.0577514 -0.000893642 -0.0401467 -9.63233e-14 4.42799e-13 -2.19897e-15 0 2.58083e-17
726 12 0.001 -0.0377513 -0.000893897 -0.0401466 -2.59769e-14 4.03154e-13 4.2406e-15 0 2.79702e-17
1122 14 0.001 -0.0177513 -0.000893897 -0.0401466 -8.86375e-14 4.03131e-13 6.65353e-15 0 2.79702e-17
1518 16 0.001 0.00224867 -0.000893897 -0.0401466 -2.74034e-14 4.05037e-13 4.10863e-15 0 2.79702e-17
1914 18 0.001 0.0222487 -0.000893897 -0.0401466 -9.06431e-14 4.07593e-13 7.5933e-15 0 2.79702e-17
348 11 0.001 -0.0577221 0.00101612 -0.0396118 2.00724e-13 4.86141e-13 -9.99453e-14 0 7.29891e-17
349 11 0.001 -0.0578571 6.32797e-05 -0.03988 1.71635e-13 4.36529e-13 -5.65004e-14 0 4.40391e-17
724 12 0.001 -0.0377222 0.00101587 -0.0396118 1.6595e-13 4.43427e-13 -9.07967e-14 0 7.68801e-17
725 12 0.001 -0.0378571 6.30176e-05 -0.0398799 1.37484e-13 4.23826e-13 -4.28014e-14 0 4.69881e-17
1120 14 0.001 -0.0177222 0.00101587 -0.0396118 2.07697e-13 4.43247e-13 -8.89513e-14 0 7.68801e-17
1121 14 0.001 -0.0178571 6.30176e-05 -0.0398799 1.43488e-13 4.16803e-13 -4.64504e-14 0 4.69881e-17
1516 16 0.001 0.00227778 0.00101587 -0.0396118 2.37479e-13 4.41582e-13 -8.7339e-14 0 7.68801e-17
1517 16 0.001 0.0021429 6.30176e-05 -0.0398799 9.22321e-14 4.17037e-13 -4.62841e-14 0 4.69881e-17
1912 18 0.001 0.0222778 0.00101587 -0.0396118 2.15926e-13 4.43818e-13 -8.76818e-14 0 7.68801e-17
1913 18 0.001 0.0221429 6.30176e-05 -0.0398799 1.48121e-13 4.17079e-13 -4.64928e-14 0 4.69881e-17
347 11 0.001 -0.057355 0.00190549 -0.0393431 3.56708e-13 4.25553e-13 -1.77267e-13 0 1.1208e-16
346 11 0.001 -0.0567786 0.00267594 -0.0390743 5.0616e-13 3.58936e-13 -2.26619e-13 0 1.57473e-16
722 12 0.001 -0.0367788 0.00267575 -0.0390742 4.95802e-13 3.44774e-13 -2.06644e-13 0 1.63193e-16
723 12 0.001 -0.0373552 0.00190527 -0.039343 3.62512e-13 3.69762e-13 -1.72781e-13 0 1.16939e-16
1118 14 0.001 -0.0167788 0.00267575 -0.0390742 4.69408e-13 3.29697e-13 -2.17378e-13 0 1.63193e-16
1119 14 0.001 -0.0173552 0.00190527 -0.039343 3.56642e-13 3.88163e-13 -1.65086e-13 0 1.16939e-16
1515 16 0.001 0.00264484 0.00190527 -0.039343 3.41442e-13 3.81427e-13 -1.69935e-13 0 1.16939e-16
1514 16 0.001 0.00322117 0.00267575 -0.0390742 4.72599e-13 3.42723e-13 -2.115e-13 0 1.63193e-16
1910 18 0.001 0.0232212 0.00267575 -0.0390742 4.49401e-13 3.33577e-13 -2.20845e-13 0 1.63193e-16
1911 18 0.001 0.0226448 0.00190527 -0.039343 3.45589e-13 3.81175e-13 -1.67789e-13 0 1.16939e-16
345 11 0.001 -0.0560289 0.00327936 -0.0388062 5.83189e-13 2.69089e-13 -2.71762e-13 0 2.02574e-16
344 11 0.001 -0.0551527 0.00367802 -0.0385392 6.12726e-13 1.71512e-13 -3.02285e-13 0 2.39797e-16
721 12 0.001 -0.0360292 0.00327922 -0.0388062 5.12993e-13 2.68415e-13 -2.67474e-13 0 2.08947e-16
720 12 0.001 -0.035153 0.00367794 -0.0385391 6.0307e-13 1.37248e-13 -2.89793e-13 0 2.46565e-16
1117 14 0.001 -0.0160292 0.00327922 -0.0388062 5.21956e-13 2.65654e-13 -2.64664e-13 0 2.08947e-16
1116 14 0.001 -0.015153 0.00367794 -0.0385391 5.94934e-13 1.40616e-13 -2.91879e-13 0 2.46565e-16
1513 16 0.001 0.00397082 0.00327922 -0.0388062 5.2753e-13 2.55479e-13 -2.68583e-13 0 2.08947e-16
1512 16 0.001 0.00484701 0.00367794 -0.0385391 5.92833e-13 1.45245e-13 -2.88971e-13 0 2.46565e-16
1909 18 0.001 0.0239708 0.00327922 -0.0388062 5.53131e-13 2.61541e-13 -2.59225e-13 0 2.08947e-16
1908 18 0.001 0.024847 0.00367794 -0.0385391 5.98002e-13 1.48757e-13 -2.88657e-13 0 2.46565e-16
338 11 0.001 -0.0504107 0.00138755 -0.0369558 3.08317e-13 -4.20938e-13 -6.7661e-14 0 1.6935e-16
714 12 0.001 -0.0304108 0.00138781 -0.0369558 2.58806e-13 -3.40184e-13 -7.84219e-14 0 1.7481e-16
1110 14 0.001 -0.0104108 0.00138781 -0.0369558 2.73477e-13 -3.40295e-13 -7.62261e-14 0 1.7481e-16
1506 16 0.001 0.00958917 0.00138781 -0.0369558 2.76847e-13 -3.35483e-13 -7.6863e-14 0 1.7481e-16
1902 18 0.001 0.0295892 0.00138781 -0.0369558 2.507e-13 -3.38107e-13 -7.9397e-14 0 1.7481e-16
340 11 0.001 -0.0515221 0.00294397 -0.0374817 5.24902e-13 -2.72717e-13 -1.85136e-13 0 2.33176e-16
339 11 0.001 -0.0508685 0.00223568 -0.0372188 3.61783e-13 -3.36216e-13 -1.39326e-13 0 2.01922e-16
716 12 0.001 -0.0315223 0.00294415 -0.0374816 4.49792e-13 -2.44075e-13 -1.90501e-13 0 2.39405e-16
715 12 0.001 -0.0308686 0.00223591 -0.0372187 3.92478e-13 -3.54251e-13 -1.06579e-13 0 2.07765e-16
1111 14 0.001 -0.0108686 0.00223591 -0.0372187 3.58187e-13 -3.50593e-13 -1.13236e-13 0 2.07765e-16
1112 14 0.001 -0.0115223 0.00294415 -0.0374816 4.79166e-13 -2.50642e-13 -1.83658e-13 0 2.39405e-16
1508 16 0.001 0.00847767 0.00294415 -0.0374816 4.77486e-13 -2.46968e-13 -1.84336e-13 0 2.39405e-16
1507 16 0.001 0.00913136 0.00223591 -0.0372187 3.6405e-13 -3.56523e-13 -1.11511e-13 0 2.07765e-16
1904 18 0.001 0.0284777 0.00294415 -0.0374816 4.67543e-13 -2.538e-13 -1.84974e-13 0 2.39405e-16
1903 18 0.001 0.0291314 0.00223591 -0.0372187 3.85843e-13 -3.5036e-13 -1.09297e-13 0 2.07765e-16
343 11 0.001 -0.0542047 0.00384696 -0.0382733 6.34943e-13 4.7379e-14 -3.06825e-13 0 2.62826e-16
342 11 0.001 -0.053244 0.00377555 -0.0380086 6.24242e-13 -8.08604e-14 -2.83477e-13 0 2.68442e-16
341 11 0.001 -0.0523308 0.00346817 -0.0377448 5.86394e-13 -1.84888e-13 -2.39214e-13 0 2.5726e-16
719 12 0.001 -0.034205 0.00384695 -0.0382732 5.93854e-13 5.11641e-14 -2.94386e-13 0 2.69728e-16
718 12 0.001 -0.0332443 0.00377561 -0.0380085 6.0282e-13 -7.18538e-14 -2.71595e-13 0 2.75259e-16
717 12 0.001 -0.0323311 0.00346829 -0.0377448 5.56276e-13 -1.70352e-13 -2.28053e-13 0 2.63832e-16
1115 14 0.001 -0.014205 0.00384695 -0.0382732 6.11617e-13 4.76328e-14 -2.90108e-13 0 2.69728e-16
1113 14 0.001 -0.0123311 0.00346829 -0.0377448 5.56842e-13 -1.67848e-13 -2.28299e-13 0 2.63832e-16
1114 14 0.001 -0.0132443 0.00377561 -0.0380085 5.86941e-13 -6.99511e-14 -2.75006e-13 0 2.75259e-16
1511 16 0.001 0.00579505 0.00384695 -0.0382732 6.16585e-13 4.48202e-14 -2.89793e-13 0 2.69728e-16
1510 16 0.001 0.0067557 0.00377561 -0.0380085 5.84001e-13 -6.49913e-14 -2.76605e-13 0 2.75259e-16
1509 16 0.001 0.00766893 0.00346829 -0.0377448 5.5e-13 -1.70943e-13 -2.29119e-13 0 2.63832e-16
1907 18 0.001 0.025795 0.00384695 -0.0382732 5.92414e-13 4.23102e-14 -2.96337e-13 0 2.69728e-16
1906 18 0.001 0.0267557 0.00377561 -0.0380085 5.9835e-13 -6.45163e-14 -2.71945e-13 0 2.75259e-16
1905 18 0.001 0.0276689 0.00346829 -0.0377448 5.52575e-13 -1.69522e-13 -2.29623e-13 0 2.63832e-16
333 11 0.001 -0.0515568 -0.00298422 -0.0356321 -3.38587e-13 -2.14173e-13 -3.0483e-14 0 9.2139e-17
334 11 0.001 -0.0508951 -0.00228464 -0.0358981 -1.98643e-13 -3.18626e-13 -7.73038e-15 0 9.32573e-17
709 12 0.001 -0.0315566 -0.00298404 -0.035632 -3.02019e-13 -2.02045e-13 -2.41451e-14 0 9.69999e-17
710 12 0.001 -0.0308949 -0.00228441 -0.0358981 -2.05728e-13 -2.87718e-13 7.04049e-15 0 9.79669e-17
1105 14 0.001 -0.0115566 -0.00298404 -0.035632 -3.40608e-13 -1.95383e-13 -1.71718e-14 0 9.69999e-17
1106 14 0.001 -0.0108949 -0.00228441 -0.0358981 -1.82552e-13 -2.88627e-13 3.29396e-15 0 9.79669e-17
1501 16 0.001 0.00844344 -0.00298404 -0.035632 -3.18272e-13 -1.99123e-13 -2.10691e-14 0 9.69999e-17
1502 16 0.001 0.00910507 -0.00228441 -0.0358981 -2.11158e-13 -2.90057e-13 8.15065e-15 0 9.79669e-17
1897 18 0.001 0.0284434 -0.00298404 -0.035632 -3.19682e-13 -1.93932e-13 -2.33029e-14 0 9.69999e-17
1898 18 0.001 0.0291051 -0.00228441 -0.0358981 -1.9208e-13 -2.98492e-13 7.72759e-15 0 9.79669e-17
335 11 0.001 -0.0504275 -0.00144269 -0.0361636 -1.93306e-13 -3.61938e-13 1.07712e-14 0 1.01424e-16
336 11 0.001 -0.0501832 -0.000510909 -0.0364284 1.15788e-13 -4.02233e-13 -8.18263e-15 0 1.17072e-16
711 12 0.001 -0.0304274 -0.00144243 -0.0361635 -1.1211e-13 -3.29854e-13 1.02607e-14 0 1.06139e-16
712 12 0.001 -0.0301831 -0.000510627 -0.0364283 3.5741e-14 -3.81093e-13 8.00828e-15 0 1.21932e-16
1107 14 0.001 -0.0104274 -0.00144243 -0.0361635 -1.20501e-13 -3.32315e-13 1.23977e-14 0 1.06139e-16
1108 14 0.001 -0.0101831 -0.000510627 -0.0364283 3.00399e-14 -3.79812e-13 7.63394e-15 0 1.21932e-16
1503 16 0.001 0.00957262 -0.00144243 -0.0361635 -1.00629e-13 -3.29969e-13 9.15508e-15 0 1.06139e-16
1504 16 0.001 0.00981686 -0.000510627 -0.0364283 2.72774e-14 -3.80984e-13 8.64711e-15 0 1.21932e-16
1899 18 0.001 0.0295726 -0.00144243 -0.0361635 -1.28919e-13 -3.20226e-13 9.04975e-15 0 1.06139e-16
1900 18 0.001 0.0298169 -0.000510627 -0.0364283 5.57686e-14 -3.85275e-13 8.31323e-15 0 1.21932e-16
337 11 0.001 -0.0501775 0.000452556 -0.0366924 8.44992e-14 -4.14894e-13 -2.73871e-14 0 1.40113e-16
713 12 0.001 -0.0301775 0.000452838 -0.0366923 1.32139e-13 -3.81558e-13 -1.81927e-14 0 1.45234e-16
1109 14 0.001 -0.0101775 0.000452838 -0.0366923 1.33525e-13 -3.81183e-13 -1.87927e-14 0 1.45234e-16
1505 16 0.001 0.00982251 0.000452838 -0.0366923 1.27044e-13 -3.83445e-13 -1.86956e-14 0 1.45234e-16
1901 18 0.001 0.0298225 0.000452838 -0.0366923 1.2743e-13 -3.79978e-13 -1.81917e-14 0 1.45234e-16
328 11 0.001 -0.0560656 -0.00326101 -0.0343009 -4.09981e-13 3.1633e-13 -2.41687e-13 0 1.63936e-16
329 11 0.001 -0.0551943 -0.00367111 -0.0345665 -4.74218e-13 2.18177e-13 -2.0795e-13 0 1.43481e-16
330 11 0.001 -0.0542485 -0.0038523 -0.0348326 -4.82004e-13 1.1209e-13 -1.67437e-13 0 1.24379e-16
331 11 0.001 -0.0532875 -0.0037933 -0.0350991 -4.36707e-13 -8.36183e-15 -1.29757e-13 0 1.08557e-16
332 11 0.001 -0.0523712 -0.00349779 -0.0353657 -4.14507e-13 -1.35748e-13 -7.42406e-14 0 9.74766e-17
704 12 0.001 -0.0360653 -0.00326119 -0.0343008 -3.86699e-13 3.2185e-13 -2.21521e-13 0 1.71196e-16
705 12 0.001 -0.035194 -0.00367123 -0.0345664 -3.87374e-13 2.04887e-13 -2.13164e-13 0 1.50178e-16
706 12 0.001 -0.0342482 -0.00385234 -0.0348325 -5.02489e-13 9.33602e-14 -1.45207e-13 0 1.30506e-16
707 12 0.001 -0.0332872 -0.00379326 -0.035099 -3.67504e-13 4.75466e-15 -1.26037e-13 0 1.14158e-16
708 12 0.001 -0.0323709 -0.00349767 -0.0353656 -4.06946e-13 -1.18446e-13 -6.02742e-14 0 1.02642e-16
1100 14 0.001 -0.0160653 -0.00326119 -0.0343008 -3.97609e-13 3.06218e-13 -2.23712e-13 0 1.71196e-16
1101 14 0.001 -0.015194 -0.00367123 -0.0345664 -4.22697e-13 2.00716e-13 -2.0285e-13 0 1.50178e-16
1102 14 0.001 -0.0142482 -0.00385234 -0.0348325 -4.49113e-13 1.04122e-13 -1.58357e-13 0 1.30506e-16
1104 14 0.001 -0.0123709 -0.00349767 -0.0353656 -3.60138e-13 -1.29707e-13 -6.96924e-14 0 1.02642e-16
1103 14 0.001 -0.0132872 -0.00379326 -0.035099 -4.10956e-13 8.67113e-15 -1.1662e-13 0 1.14158e-16
1496 16 0.001 0.00393466 -0.00326119 -0.0343008 -4.07022e-13 3.06505e-13 -2.19755e-13 0 1.71196e-16
1497 16 0.001 0.00480605 -0.00367123 -0.0345664 -4.20922e-13 2.03366e-13 -2.04064e-13 0 1.50178e-16
1498 16 0.001 0.00575177 -0.00385234 -0.0348325 -4.39865e-13 1.06524e-13 -1.60623e-13 0 1.30506e-16
1499 16 0.001 0.00671277 -0.00379326 -0.035099 -4.14809e-13 -1.84644e-15 -1.14865e-13 0 1.14158e-16
1500 16 0.001 0.00762906 -0.00349767 -0.0353656 -3.70322e-13 -1.1895e-13 -6.84493e-14 0 1.02642e-16
1892 18 0.001 0.0239347 -0.00326119 -0.0343008 -4.00041e-13 3.08991e-13 -2.22962e-13 0 1.71196e-16
1893 18 0.001 0.024806 -0.00367123 -0.0345664 -4.17973e-13 1.99809e-13 -2.03471e-13 0 1.50178e-16
1894 18 0.001 0.0257518 -0.00385234 -0.0348325 -4.61995e-13 1.09571e-13 -1.55777e-13 0 1.30506e-16
1895 18 0.001 0.0267128 -0.00379326 -0.035099 -3.76887e-13 -2.68246e-15 -1.25082e-13 0 1.14158e-16
1896 18 0.001 0.0276291 -0.00349767 -0.0353656 -3.99809e-13 -1.24088e-13 -5.89532e-14 0 1.02642e-16
327 11 0.001 -0.0568082 -0.00264756 -0.0340358 -3.67367e-13 3.98962e-13 -2.46832e-13 0 1.83567e-16
703 12 0.001 -0.036808 -0.00264781 -0.0340357 -3.39697e-13 3.58057e-13 -2.40478e-13 0 1.91343e-16
1099 14 0.001 -0.016808 -0.00264781 -0.0340357 -3.18019e-13 3.77222e-13 -2.40415e-13 0 1.91343e-16