ITEM: TIMESTEP
5400000
ITEM: NUMBER OF ATOMS
1970
ITEM: BOX BOUNDS ff ff ff
-6.0000000000000005e-02 6.0000000000000005e-02
-6.0000000000000001e-03 6.0000000000000001e-03
-5.5000000000000000e-02 5.5000000000000000e-02
ITEM: ATOMS id type radius x y z fx fy fz c_bendingE c_stretchingE
384 11 0.001 -0.050832 -0.00263186 -0.0489904 -7.06771e-13 5.26713e-14 -4.54772e-13 0 5.21748e-17
385 11 0.001 -0.0503288 -0.00183175 -0.0493139 -4.86656e-13 -1.53957e-14 -2.92005e-13 0 8.37361e-15
760 12 0.001 -0.030832 -0.00263186 -0.0489904 -7.19116e-13 7.08283e-14 -4.35702e-13 0 5.3137e-17
761 12 0.001 -0.0303288 -0.00183175 -0.0493139 -4.50739e-13 -5.26894e-15 -2.82309e-13 0 8.35571e-15
1156 14 0.001 -0.010832 -0.00263186 -0.0489904 -6.64838e-13 6.64981e-14 -4.42819e-13 0 5.3137e-17
1157 14 0.001 -0.0103288 -0.00183175 -0.0493139 -4.93463e-13 -2.69622e-15 -2.77851e-13 0 8.35571e-15
1552 16 0.001 0.00916804 -0.00263186 -0.0489904 -6.85243e-13 6.17128e-14 -4.39674e-13 0 5.3137e-17
1553 16 0.001 0.00967124 -0.00183175 -0.0493139 -4.76747e-13 -3.1199e-15 -2.7915e-13 0 8.35571e-15
1948 18 0.001 0.029168 -0.00263186 -0.0489904 -7.17238e-13 6.55929e-14 -4.34667e-13 0 5.3137e-17
1949 18 0.001 0.0296712 -0.00183175 -0.0493139 -4.66346e-13 -5.63611e-15 -2.80786e-13 0 8.35571e-15
2 2 0.001 -0.05 -4.31175e-17 -0.05 -3.56652e-06 4.08084e-06 2.0754e-06 0 6.95054e-15
386 11 0.001 -0.0500457 -0.000935347 -0.0496521 -2.55444e-13 -2.15215e-14 -1.40122e-13 0 1.52758e-14
762 12 0.001 -0.0300457 -0.000935343 -0.0496521 -2.54901e-13 -4.26314e-14 -1.22015e-13 0 1.5237e-14
4 4 0.001 -0.03 -4.31175e-17 -0.05 -3.5714e-06 4.0951e-06 2.07098e-06 0 6.93085e-15
6 6 0.001 -0.01 -4.31175e-17 -0.05 -3.5714e-06 4.0951e-06 2.07098e-06 0 6.93085e-15
1158 14 0.001 -0.0100457 -0.000935343 -0.0496521 -2.4282e-13 -4.40368e-14 -1.22927e-13 0 1.5237e-14
8 8 0.001 0.01 -4.31175e-17 -0.05 -3.5714e-06 4.0951e-06 2.07098e-06 0 6.93085e-15
1554 16 0.001 0.00995429 -0.000935343 -0.0496521 -2.48132e-13 -4.42993e-14 -1.22456e-13 0 1.5237e-14
10 10 0.001 0.03 -4.31175e-17 -0.05 -3.5714e-06 4.0951e-06 2.07098e-06 0 6.93085e-15
1950 18 0.001 0.0299543 -0.000935343 -0.0496521 -2.434e-13 -4.42318e-14 -1.22093e-13 0 1.5237e-14
379 11 0.001 -0.0552075 -0.00375782 -0.0476613 -1.03191e-12 9.00386e-13 -9.8598e-13 0 1.39609e-15
380 11 0.001 -0.0542639 -0.00399239 -0.0478908 -1.1277e-12 6.90093e-13 -9.50999e-13 0 1.17807e-15
381 11 0.001 -0.0532955 -0.00398805 -0.0481362 -1.10418e-12 5.26461e-13 -8.80992e-13 0 8.09589e-16
382 11 0.001 -0.0523629 -0.00374645 -0.0484005 -9.92792e-13 3.26977e-13 -7.71978e-13 0 4.04672e-16
383 11 0.001 -0.0515243 -0.00328421 -0.0486853 -9.13422e-13 1.73874e-13 -6.14305e-13 0 1.09218e-16
755 12 0.001 -0.0352075 -0.00375785 -0.0476613 -1.01785e-12 8.74416e-13 -9.57274e-13 0 1.39711e-15
756 12 0.001 -0.0342639 -0.00399241 -0.0478908 -1.08724e-12 6.8495e-13 -9.27577e-13 0 1.17767e-15
757 12 0.001 -0.0332955 -0.00398807 -0.0481361 -1.08702e-12 5.05494e-13 -8.46461e-13 0 8.08022e-16
758 12 0.001 -0.0323629 -0.00374645 -0.0484004 -9.80896e-13 3.36875e-13 -7.47521e-13 0 4.02662e-16
759 12 0.001 -0.0315243 -0.00328421 -0.0486853 -8.55616e-13 1.55366e-13 -5.87754e-13 0 1.07963e-16
1151 14 0.001 -0.0152075 -0.00375785 -0.0476613 -1.03468e-12 8.7459e-13 -9.5273e-13 0 1.39711e-15
1152 14 0.001 -0.0142639 -0.00399241 -0.0478908 -1.10048e-12 6.85797e-13 -9.25735e-13 0 1.17767e-15
1153 14 0.001 -0.0132955 -0.00398807 -0.0481361 -1.0716e-12 5.02111e-13 -8.48558e-13 0 8.08022e-16
1154 14 0.001 -0.0123629 -0.00374645 -0.0484004 -9.86074e-13 3.35654e-13 -7.46528e-13 0 4.02662e-16
1155 14 0.001 -0.0115243 -0.00328421 -0.0486853 -8.81124e-13 1.63339e-13 -5.84929e-13 0 1.07963e-16
1547 16 0.001 0.00479253 -0.00375785 -0.0476613 -1.03843e-12 8.73244e-13 -9.51556e-13 0 1.39711e-15
1548 16 0.001 0.0057361 -0.00399241 -0.0478908 -1.09119e-12 6.86638e-13 -9.27833e-13 0 1.17767e-15
1549 16 0.001 0.0067045 -0.00398807 -0.0481361 -1.06952e-12 5.04915e-13 -8.49387e-13 0 8.08022e-16
1550 16 0.001 0.00763712 -0.00374645 -0.0484004 -9.87616e-13 3.28466e-13 -7.45256e-13 0 4.02662e-16
1551 16 0.001 0.00847571 -0.00328421 -0.0486853 -8.74092e-13 1.72095e-13 -5.87069e-13 0 1.07963e-16
1943 18 0.001 0.0247925 -0.00375785 -0.0476613 -1.06007e-12 8.7071e-13 -9.46708e-13 0 1.39711e-15
1944 18 0.001 0.0257361 -0.00399241 -0.0478908 -1.07043e-12 6.93038e-13 -9.32159e-13 0 1.17767e-15
1945 18 0.001 0.0267045 -0.00398807 -0.0481361 -1.08685e-12 5.03015e-13 -8.46208e-13 0 8.08022e-16
1946 18 0.001 0.0276371 -0.00374645 -0.0484004 -9.8026e-13 3.35343e-13 -7.47983e-13 0 4.02662e-16
1947 18 0.001 0.0284757 -0.00328421 -0.0486853 -8.52736e-13 1.61347e-13 -5.88901e-13 0 1.07963e-16
378 11 0.001 -0.0560672 -0.00329795 -0.0474433 -1.01135e-12 1.05921e-12 -9.32033e-13 0 1.41283e-15
754 12 0.001 -0.0360671 -0.00329799 -0.0474432 -9.7838e-13 1.04062e-12 -9.10512e-13 0 1.41508e-15
1150 14 0.001 -0.0160671 -0.00329799 -0.0474432 -9.23172e-13 1.04324e-12 -9.21686e-13 0 1.41508e-15
1546 16 0.001 0.00393287 -0.00329799 -0.0474432 -9.45083e-13 1.03957e-12 -9.18903e-13 0 1.41508e-15
1942 18 0.001 0.0239329 -0.00329799 -0.0474432 -9.34295e-13 1.03681e-12 -9.21431e-13 0 1.41508e-15
376 11 0.001 -0.0573286 -0.00182665 -0.0470211 -6.94446e-13 1.27461e-12 -7.04556e-13 0 9.61901e-16
377 11 0.001 -0.0567892 -0.00264073 -0.0472316 -7.62836e-13 1.19998e-12 -8.56523e-13 0 1.24575e-15
753 12 0.001 -0.0367891 -0.00264077 -0.0472316 -7.876e-13 1.16684e-12 -8.34579e-13 0 1.24882e-15
752 12 0.001 -0.0373286 -0.0018267 -0.0470211 -6.06862e-13 1.25842e-12 -6.91124e-13 0 9.65266e-16
1149 14 0.001 -0.0167891 -0.00264077 -0.0472316 -8.40638e-13 1.15622e-12 -8.27042e-13 0 1.24882e-15
1148 14 0.001 -0.0173286 -0.0018267 -0.0470211 -5.76701e-13 1.27434e-12 -6.9155e-13 0 9.65266e-16
1544 16 0.001 0.00267142 -0.0018267 -0.0470211 -6.16617e-13 1.2641e-12 -6.90025e-13 0 9.65266e-16
1545 16 0.001 0.00321087 -0.00264077 -0.0472316 -8.00003e-13 1.16576e-12 -8.30669e-13 0 1.24882e-15
1941 18 0.001 0.0232109 -0.00264077 -0.0472316 -8.06438e-13 1.16476e-12 -8.29891e-13 0 1.24882e-15
1940 18 0.001 0.0226714 -0.0018267 -0.0470211 -6.00426e-13 1.26313e-12 -6.92405e-13 0 9.65266e-16
375 11 0.001 -0.0576522 -0.000906119 -0.0468068 -3.51044e-13 1.32572e-12 -5.31065e-13 0 6.4615e-16
751 12 0.001 -0.0376522 -0.000906169 -0.0468068 -4.04258e-13 1.26614e-12 -5.25243e-13 0 6.49325e-16
1147 14 0.001 -0.0176522 -0.000906169 -0.0468068 -4.35674e-13 1.26022e-12 -5.26627e-13 0 6.49325e-16
1543 16 0.001 0.00234783 -0.000906169 -0.0468068 -4.11421e-13 1.2659e-12 -5.26253e-13 0 6.49325e-16
1939 18 0.001 0.0223478 -0.000906169 -0.0468068 -4.29657e-13 1.27381e-12 -5.22439e-13 0 6.49325e-16
373 11 0.001 -0.0575883 0.00102321 -0.046351 -8.87921e-15 1.19804e-12 -1.42788e-13 0 1.74203e-16
374 11 0.001 -0.0577403 6.38364e-05 -0.0465845 -2.09529e-13 1.28e-12 -3.35349e-13 0 3.70329e-16
749 12 0.001 -0.0375883 0.00102316 -0.046351 5.4754e-14 1.17779e-12 -1.30685e-13 0 1.76093e-16
750 12 0.001 -0.0377403 6.37871e-05 -0.0465845 -2.17778e-13 1.26434e-12 -3.24873e-13 0 3.72956e-16
1145 14 0.001 -0.0175883 0.00102316 -0.046351 2.96636e-14 1.17375e-12 -1.34724e-13 0 1.76093e-16
1146 14 0.001 -0.0177403 6.37871e-05 -0.0465845 -1.77182e-13 1.2638e-12 -3.22399e-13 0 3.72956e-16
1541 16 0.001 0.00241171 0.00102316 -0.046351 2.5988e-14 1.1786e-12 -1.33266e-13 0 1.76093e-16
1542 16 0.001 0.00225967 6.37871e-05 -0.0465845 -1.85088e-13 1.26285e-12 -3.23052e-13 0 3.72956e-16
1937 18 0.001 0.0224117 0.00102316 -0.046351 3.92884e-14 1.1796e-12 -1.30252e-13 0 1.76093e-16
1938 18 0.001 0.0222597 6.37871e-05 -0.0465845 -1.78096e-13 1.25746e-12 -3.25483e-13 0 3.72956e-16
372 11 0.001 -0.0572062 0.00191279 -0.0461047 2.67054e-13 1.05963e-12 4.10747e-14 0 6.23926e-17
748 12 0.001 -0.0372062 0.00191275 -0.0461047 1.94339e-13 1.02001e-12 3.84573e-14 0 6.35316e-17
1144 14 0.001 -0.0172062 0.00191275 -0.0461047 2.04636e-13 1.02598e-12 4.28255e-14 0 6.35317e-17
1540 16 0.001 0.00279376 0.00191275 -0.0461047 2.09862e-13 1.01804e-12 4.04641e-14 0 6.35317e-17
1936 18 0.001 0.0227938 0.00191275 -0.0461047 1.80359e-13 1.01788e-12 3.5053e-14 0 6.35317e-17
371 11 0.001 -0.0566186 0.00267783 -0.045845 4.22215e-13 8.80974e-13 1.87211e-13 0 1.45187e-17
747 12 0.001 -0.0366186 0.0026778 -0.045845 4.13752e-13 8.59045e-13 1.84898e-13 0 1.50405e-17
1143 14 0.001 -0.0166186 0.0026778 -0.045845 3.87296e-13 8.51425e-13 1.76084e-13 0 1.50405e-17
1539 16 0.001 0.00338136 0.0026778 -0.045845 3.90952e-13 8.53848e-13 1.78958e-13 0 1.50405e-17
1935 18 0.001 0.0233814 0.0026778 -0.045845 4.10763e-13 8.58293e-13 1.83173e-13 0 1.50405e-17
370 11 0.001 -0.0558625 0.00327139 -0.0455728 5.33477e-13 6.38627e-13 2.60489e-13 0 1.46924e-18
369 11 0.001 -0.0549855 0.00365715 -0.0452901 6.59898e-13 4.14432e-13 3.0469e-13 0 3.11745e-20
368 11 0.001 -0.0540422 0.00381161 -0.0449994 6.39217e-13 1.2009e-13 2.50199e-13 0 5.33156e-19
367 11 0.001 -0.0530918 0.00372552 -0.0447041 7.73006e-13 -1.40782e-13 2.11904e-13 0 6.06565e-18
745 12 0.001 -0.0349855 0.00365714 -0.0452901 6.09466e-13 3.82966e-13 2.96049e-13 0 1.50823e-20
746 12 0.001 -0.0358626 0.00327137 -0.0455728 5.14407e-13 6.33328e-13 2.67629e-13 0 1.59793e-18
744 12 0.001 -0.0340423 0.00381161 -0.0449994 6.745e-13 1.2533e-13 2.71155e-13 0 5.81932e-19
743 12 0.001 -0.0330918 0.00372553 -0.0447041 6.68882e-13 -1.29833e-13 1.93934e-13 0 6.30665e-18
1142 14 0.001 -0.0158626 0.00327137 -0.0455728 5.51328e-13 6.34776e-13 2.77841e-13 0 1.59793e-18
1140 14 0.001 -0.0140423 0.00381161 -0.0449994 6.53149e-13 1.26686e-13 2.64056e-13 0 5.81932e-19
1141 14 0.001 -0.0149855 0.00365714 -0.0452901 5.98274e-13 3.87865e-13 2.9386e-13 0 1.50823e-20
1139 14 0.001 -0.0130918 0.00372553 -0.0447041 6.98913e-13 -1.38625e-13 2.03473e-13 0 6.30665e-18
1538 16 0.001 0.00413741 0.00327137 -0.0455728 5.38112e-13 6.35622e-13 2.73891e-13 0 1.59793e-18
1537 16 0.001 0.00501448 0.00365714 -0.0452901 6.0304e-13 3.85313e-13 2.951e-13 0 1.50823e-20
1536 16 0.001 0.00595772 0.00381161 -0.0449994 6.64537e-13 1.32373e-13 2.6735e-13 0 5.81932e-19
1535 16 0.001 0.00690819 0.00372553 -0.0447041 6.83134e-13 -1.42099e-13 1.9904e-13 0 6.30665e-18
1933 18 0.001 0.0250145 0.00365714 -0.0452901 5.92911e-13 3.91262e-13 2.92649e-13 0 1.50823e-20
1934 18 0.001 0.0241374 0.00327137 -0.0455728 5.39835e-13 6.2643e-13 2.73767e-13 0 1.59793e-18
1932 18 0.001 0.0259577 0.00381161 -0.0449994 6.63146e-13 1.26789e-13 2.67107e-13 0 5.81932e-19
1931 18 0.001 0.0269082 0.00372553 -0.0447041 6.97627e-13 -1.35651e-13 2.02924e-13 0 6.30665e-18
361 11 0.001 -0.0501633 -0.000600008 -0.0429858 -1.73628e-13 -1.00059e-12 -5.51955e-13 0 2.68864e-16
737 12 0.001 -0.0301633 -0.000599961 -0.0429858 -1.74127e-13 -9.78352e-13 -5.42154e-13 0 2.69398e-16
1133 14 0.001 -0.0101633 -0.000599961 -0.0429858 -1.94209e-13 -9.76554e-13 -5.42826e-13 0 2.69398e-16
1529 16 0.001 0.00983671 -0.000599961 -0.0429858 -2.08075e-13 -9.72009e-13 -5.44465e-13 0 2.69398e-16
1925 18 0.001 0.0298367 -0.000599961 -0.0429858 -1.98615e-13 -9.72167e-13 -5.43289e-13 0 2.69398e-16
362 11 0.001 -0.0501314 0.000360911 -0.0432572 1.56854e-14 -1.00867e-12 -4.83181e-13 0 2.39588e-16
363 11 0.001 -0.0503389 0.00129763 -0.0435356 1.71061e-13 -9.17509e-13 -3.83371e-13 0 1.86115e-16
738 12 0.001 -0.0301314 0.000360959 -0.0432572 -6.94912e-15 -9.7199e-13 -4.80068e-13 0 2.40208e-16
739 12 0.001 -0.030339 0.00129767 -0.0435356 2.01373e-13 -8.98577e-13 -3.69203e-13 0 1.86811e-16
1134 14 0.001 -0.0101314 0.000360959 -0.0432572 9.49892e-15 -9.71992e-13 -4.7975e-13 0 2.40208e-16
1135 14 0.001 -0.010339 0.00129767 -0.0435356 2.00398e-13 -9.00831e-13 -3.67804e-13 0 1.86811e-16
1530 16 0.001 0.00986856 0.000360959 -0.0432572 3.14255e-14 -9.71418e-13 -4.78562e-13 0 2.40208e-16
1531 16 0.001 0.00966104 0.00129767 -0.0435356 1.91548e-13 -9.09931e-13 -3.66356e-13 0 1.86811e-16
1926 18 0.001 0.0298686 0.000360959 -0.0432572 1.39916e-14 -9.74974e-13 -4.78922e-13 0 2.40208e-16
1927 18 0.001 0.029661 0.00129767 -0.0435356 1.93427e-13 -9.06046e-13 -3.67317e-13 0 1.86811e-16
365 11 0.001 -0.0514038 0.00286858 -0.0441121 5.65843e-13 -6.3299e-13 -6.93291e-14 0 6.52071e-17
364 11 0.001 -0.0507723 0.00215134 -0.0438209 4.21141e-13 -7.84765e-13 -2.39885e-13 0 1.22576e-16
740 12 0.001 -0.0307723 0.00215138 -0.0438209 3.80879e-13 -7.6555e-13 -2.35594e-13 0 1.23289e-16
741 12 0.001 -0.0314038 0.00286861 -0.0441121 5.25434e-13 -6.09235e-13 -7.08965e-14 0 6.58425e-17
1136 14 0.001 -0.0107723 0.00215138 -0.0438209 3.65232e-13 -7.6188e-13 -2.40116e-13 0 1.23289e-16
1137 14 0.001 -0.0114038 0.00286861 -0.0441121 5.46122e-13 -6.10755e-13 -6.57217e-14 0 6.58425e-17
1533 16 0.001 0.00859618 0.00286861 -0.0441121 5.46919e-13 -6.19975e-13 -6.42529e-14 0 6.58425e-17
1532 16 0.001 0.00922769 0.00215138 -0.0438209 3.59049e-13 -7.47531e-13 -2.44157e-13 0 1.23289e-16
1928 18 0.001 0.0292277 0.00215138 -0.0438209 3.71822e-13 -7.55417e-13 -2.40249e-13 0 1.23289e-16
1929 18 0.001 0.0285962 0.00286861 -0.0441121 5.40749e-13 -6.11521e-13 -6.69425e-14 0 6.58425e-17
366 11 0.001 -0.0521935 0.00340447 -0.0444073 5.65735e-13 -3.63639e-13 3.57759e-14 0 2.55643e-17
742 12 0.001 -0.0321936 0.00340449 -0.0444073 5.95034e-13 -3.57207e-13 5.45932e-14 0 2.60279e-17
1138 14 0.001 -0.0121936 0.00340449 -0.0444073 5.73418e-13 -3.52998e-13 4.87099e-14 0 2.60279e-17
1534 16 0.001 0.00780644 0.00340449 -0.0444073 5.85078e-13 -3.50443e-13 5.15132e-14 0 2.60279e-17
1930 18 0.001 0.0278064 0.00340449 -0.0444073 5.74831e-13 -3.54986e-13 4.91495e-14 0 2.60279e-17
355 11 0.001 -0.0543291 -0.00384351 -0.0414469 -7.87349e-13 -5.42304e-14 -1.65783e-13 0 6.64036e-17
356 11 0.001 -0.0533634 -0.0038072 -0.0417003 -8.29695e-13 -2.74682e-13 -2.6406e-13 0 9.8479e-17
357 11 0.001 -0.0524365 -0.00353332 -0.0419529 -7.70509e-13 -4.68621e-13 -3.78236e-13 0 1.4245e-16
358 11 0.001 -0.0516061 -0.00303898 -0.0422061 -6.70743e-13 -6.87186e-13 -4.74779e-13 0 1.92687e-16
731 12 0.001 -0.034329 -0.00384352 -0.0414468 -7.3863e-13 -7.22049e-14 -1.69673e-13 0 6.70085e-17
732 12 0.001 -0.0333634 -0.00380719 -0.0417003 -8.26603e-13 -2.4781e-13 -2.4824e-13 0 9.90635e-17
733 12 0.001 -0.0324364 -0.00353331 -0.0419529 -7.23977e-13 -4.92389e-13 -3.71268e-13 0 1.42999e-16
734 12 0.001 -0.0316061 -0.00303895 -0.0422061 -7.17176e-13 -6.45388e-13 -4.57561e-13 0 1.93191e-16
1127 14 0.001 -0.014329 -0.00384352 -0.0414468 -7.55105e-13 -5.90735e-14 -1.65822e-13 0 6.70085e-17
1128 14 0.001 -0.0133634 -0.00380719 -0.0417003 -7.91513e-13 -2.70956e-13 -2.55935e-13 0 9.90635e-17
1129 14 0.001 -0.0124364 -0.00353331 -0.0419529 -7.63365e-13 -4.67471e-13 -3.65234e-13 0 1.42999e-16
1130 14 0.001 -0.0116061 -0.00303895 -0.0422061 -6.66476e-13 -6.58216e-13 -4.65077e-13 0 1.93191e-16
1523 16 0.001 0.00567099 -0.00384352 -0.0414468 -7.40784e-13 -5.91388e-14 -1.68908e-13 0 6.70085e-17
1524 16 0.001 0.00663664 -0.00380719 -0.0417003 -7.9221e-13 -2.63125e-13 -2.56189e-13 0 9.90635e-17
1525 16 0.001 0.00756357 -0.00353331 -0.0419529 -7.57233e-13 -4.73152e-13 -3.66166e-13 0 1.42999e-16
1526 16 0.001 0.00839393 -0.00303895 -0.0422061 -6.77859e-13 -6.58727e-13 -4.62739e-13 0 1.93191e-16
1919 18 0.001 0.025671 -0.00384352 -0.0414468 -7.29486e-13 -5.68216e-14 -1.72296e-13 0 6.70085e-17
1920 18 0.001 0.0266366 -0.00380719 -0.0417003 -7.8664e-13 -2.73506e-13 -2.57703e-13 0 9.90635e-17
1921 18 0.001 0.0275636 -0.00353331 -0.0419529 -7.57747e-13 -4.67013e-13 -3.65006e-13 0 1.42999e-16
1922 18 0.001 0.0283939 -0.00303895 -0.0422061 -6.81739e-13 -6.59827e-13 -4.62881e-13 0 1.93191e-16
359 11 0.001 -0.0509241 -0.00235514 -0.0424616 -5.97005e-13 -8.38125e-13 -5.33348e-13 0 2.38654e-16
360 11 0.001 -0.050433 -0.00152474 -0.042721 -3.95835e-13 -9.58343e-13 -5.6993e-13 0 2.6751e-16
735 12 0.001 -0.0309241 -0.0023551 -0.0424616 -5.07741e-13 -8.26988e-13 -5.34652e-13 0 2.39127e-16
736 12 0.001 -0.030433 -0.0015247 -0.042721 -4.03359e-13 -9.24609e-13 -5.60021e-13 0 2.6799e-16
1131 14 0.001 -0.0109241 -0.0023551 -0.0424616 -5.50193e-13 -8.2397e-13 -5.28631e-13 0 2.39127e-16
1132 14 0.001 -0.010433 -0.0015247 -0.042721 -3.84626e-13 -9.28929e-13 -5.60335e-13 0 2.6799e-16
1527 16 0.001 0.00907591 -0.0023551 -0.0424616 -5.4173e-13 -8.21963e-13 -5.30273e-13 0 2.39127e-16
1528 16 0.001 0.00956699 -0.0015247 -0.042721 -3.85427e-13 -9.33197e-13 -5.58834e-13 0 2.6799e-16
1923 18 0.001 0.0290759 -0.0023551 -0.0424616 -5.56475e-13 -8.25741e-13 -5.27115e-13 0 2.39127e-16
1924 18 0.001 0.029567 -0.0015247 -0.042721 -3.71352e-13 -9.28564e-13 -5.62084e-13 0 2.6799e-16
353 11 0.001 -0.0561372 -0.0032098 -0.0409337 -6.18264e-13 3.51023e-13 -2.30437e-14 0 3.93478e-17
354 11 0.001 -0.0552732 -0.00364011 -0.0411916 -7.24948e-13 1.87081e-13 -8.51744e-14 0 4.71835e-17
729 12 0.001 -0.0361371 -0.00320983 -0.0409337 -5.76346e-13 3.61699e-13 -3.72355e-14 0 4.00235e-17
730 12 0.001 -0.0352732 -0.00364013 -0.0411916 -7.11265e-13 1.66779e-13 -6.14712e-14 0 4.78083e-17
1125 14 0.001 -0.0161371 -0.00320983 -0.0409337 -5.96678e-13 3.56762e-13 -3.27508e-14 0 4.00235e-17
1126 14 0.001 -0.0152732 -0.00364013 -0.0411916 -6.94289e-13 1.71121e-13 -6.44345e-14 0 4.78083e-17
1521 16 0.001 0.00386288 -0.00320983 -0.0409337 -5.71396e-13 3.4939e-13 -3.98538e-14 0 4.00235e-17
1522 16 0.001 0.00472681 -0.00364013 -0.0411916 -7.27927e-13 1.69797e-13 -5.66054e-14 0 4.78083e-17
1917 18 0.001 0.0238629 -0.00320983 -0.0409337 -5.97504e-13 3.61816e-13 -3.19781e-14 0 4.00235e-17
1918 18 0.001 0.0247268 -0.00364013 -0.0411916 -7.23583e-13 1.71255e-13 -5.71932e-14 0 4.78083e-17
351 11 0.001 -0.0574178 -0.00178869 -0.0404098 -2.82155e-13 6.56203e-13 -3.45709e-14 0 5.43883e-17
352 11 0.001 -0.0568671 -0.00257953 -0.0406731 -4.38144e-13 5.67797e-13 -2.47857e-14 0 4.16149e-17
727 12 0.001 -0.0374178 -0.00178875 -0.0404098 -2.38272e-13 6.67026e-13 -3.47859e-14 0 5.53824e-17
728 12 0.001 -0.0368671 -0.00257958 -0.0406731 -4.21621e-13 4.99146e-13 -6.8552e-16 0 4.24065e-17
1123 14 0.001 -0.0174178 -0.00178875 -0.0404098 -2.25334e-13 6.53379e-13 -4.03786e-14 0 5.53824e-17
1124 14 0.001 -0.0168671 -0.00257958 -0.0406731 -4.34865e-13 5.07663e-13 2.09393e-15 0 4.24065e-17
1519 16 0.001 0.00258219 -0.00178875 -0.0404098 -2.51e-13 6.52294e-13 -3.77513e-14 0 5.53824e-17
1520 16 0.001 0.0031329 -0.00257958 -0.0406731 -4.26304e-13 5.13975e-13 2.68077e-15 0 4.24065e-17
1915 18 0.001 0.0225822 -0.00178875 -0.0404098 -2.25879e-13 6.57826e-13 -3.9076e-14 0 5.53824e-17
1916 18 0.001 0.0231329 -0.00257958 -0.0406731 -4.26293e-13 5.01982e-13 -5.00921e-16 0 4.24065e-17
350 11 0.001 -0.0577551 -0.000886597 -0.0401444 -1.87317e-14 7.78367e-13 -9.91949e-14 0 7.94653e-17
726 12 0.001 -0.0377551 -0.000886656 -0.0401443 -9.27588e-14 7.24931e-13 -8.46642e-14 0 8.07472e-17
1122 14 0.001 -0.0177551 -0.000886656 -0.0401443 -7.2465e-14 7.31567e-13 -8.37436e-14 0 8.07472e-17
1518 16 0.001 0.00224489 -0.000886656 -0.0401443 -5.1603e-14 7.33039e-13 -8.45966e-14 0 8.07472e-17
1914 18 0.001 0.0222449 -0.000886656 -0.0401443 -7.84055e-14 7.26429e-13 -8.48076e-14 0 8.07472e-17
348 11 0.001 -0.0577204 0.00102305 -0.0396094 3.59137e-13 7.92625e-13 -2.64632e-13 0 1.70041e-16
349 11 0.001 -0.0578581 7.05301e-05 -0.0398773 1.56663e-13 8.06387e-13 -1.69668e-13 0 1.18321e-16
724 12 0.001 -0.0377204 0.00102299 -0.0396094 3.47251e-13 7.7211e-13 -2.52009e-13 0 1.72034e-16
725 12 0.001 -0.0378581 7.04687e-05 -0.0398773 2.00529e-13 7.88272e-13 -1.60133e-13 0 1.1995e-16
1120 14 0.001 -0.0177204 0.00102299 -0.0396094 3.37175e-13 7.70519e-13 -2.53067e-13 0 1.72034e-16
1121 14 0.001 -0.0178581 7.04687e-05 -0.0398773 1.90321e-13 7.87981e-13 -1.59049e-13 0 1.1995e-16
1516 16 0.001 0.00227956 0.00102299 -0.0396094 3.72063e-13 7.61805e-13 -2.52805e-13 0 1.72034e-16
1517 16 0.001 0.00214191 7.04687e-05 -0.0398773 1.65012e-13 7.90438e-13 -1.59036e-13 0 1.1995e-16
1912 18 0.001 0.0222796 0.00102299 -0.0396094 3.50003e-13 7.67309e-13 -2.52463e-13 0 1.72034e-16
1913 18 0.001 0.0221419 7.04687e-05 -0.0398773 1.93684e-13 7.89174e-13 -1.59016e-13 0 1.1995e-16
347 11 0.001 -0.0573507 0.00191157 -0.0393413 6.14038e-13 7.47025e-13 -3.33631e-13 0 2.30097e-16
346 11 0.001 -0.0567721 0.00268068 -0.0390736 7.2307e-13 6.36503e-13 -4.09777e-13 0 2.90675e-16
722 12 0.001 -0.0367721 0.00268064 -0.0390736 6.86877e-13 6.11503e-13 -4.02453e-13 0 2.93261e-16
723 12 0.001 -0.0373508 0.00191152 -0.0393413 5.99495e-13 7.07807e-13 -3.25459e-13 0 2.32422e-16
1118 14 0.001 -0.0167721 0.00268064 -0.0390736 6.96648e-13 6.11881e-13 -4.01302e-13 0 2.93261e-16
1119 14 0.001 -0.0173508 0.00191152 -0.0393413 5.99093e-13 7.08046e-13 -3.26363e-13 0 2.32422e-16
1515 16 0.001 0.00264924 0.00191152 -0.0393413 5.63691e-13 7.13972e-13 -3.28964e-13 0 2.32422e-16
1514 16 0.001 0.00322789 0.00268064 -0.0390736 7.25518e-13 6.11345e-13 -3.96854e-13 0 2.93261e-16
1910 18 0.001 0.0232279 0.00268064 -0.0390736 7.59189e-13 6.04141e-13 -3.92413e-13 0 2.93261e-16
1911 18 0.001 0.0226492 0.00191152 -0.0393413 5.5727e-13 7.15566e-13 -3.30178e-13 0 2.32422e-16
345 11 0.001 -0.0560205 0.00328234 -0.0388068 8.95333e-13 4.78922e-13 -4.41427e-13 0 3.42519e-16
344 11 0.001 -0.055143 0.00367894 -0.038541 9.55788e-13 3.07664e-13 -4.49786e-13 0 3.77521e-16
721 12 0.001 -0.0360206 0.00328231 -0.0388068 8.54064e-13 4.632e-13 -4.36889e-13 0 3.45272e-16
720 12 0.001 -0.035143 0.00367892 -0.038541 9.68596e-13 3.07104e-13 -4.26337e-13 0 3.80346e-16
1117 14 0.001 -0.0160206 0.00328231 -0.0388068 8.62627e-13 4.61447e-13 -4.32949e-13 0 3.45272e-16
1116 14 0.001 -0.015143 0.00367892 -0.038541 9.24735e-13 3.06413e-13 -4.39671e-13 0 3.80346e-16
1513 16 0.001 0.00397942 0.00328231 -0.0388068 8.4847e-13 4.65484e-13 -4.35009e-13 0 3.45272e-16
1512 16 0.001 0.00485696 0.00367892 -0.038541 9.34422e-13 3.00525e-13 -4.37867e-13 0 3.80346e-16
1909 18 0.001 0.0239794 0.00328231 -0.0388068 8.16004e-13 4.73258e-13 -4.40256e-13 0 3.45272e-16
1908 18 0.001 0.024857 0.00367892 -0.038541 9.4058e-13 2.9339e-13 -4.37426e-13 0 3.80346e-16
338 11 0.001 -0.0504057 0.00137769 -0.0369591 4.11725e-13 -6.29437e-13 -5.83795e-14 0 2.42678e-16
714 12 0.001 -0.0304057 0.00137775 -0.0369591 3.74308e-13 -6.38277e-13 -5.1395e-14 0 2.44985e-16
1110 14 0.001 -0.0104057 0.00137775 -0.0369591 3.78274e-13 -6.38923e-13 -5.03908e-14 0 2.44985e-16
1506 16 0.001 0.00959429 0.00137775 -0.0369591 3.72399e-13 -6.35385e-13 -5.14217e-14 0 2.44985e-16
1902 18 0.001 0.0295943 0.00137775 -0.0369591 3.83247e-13 -6.28529e-13 -5.21893e-14 0 2.44985e-16
340 11 0.001 -0.0515134 0.0029364 -0.0374859 7.45718e-13 -4.29109e-13 -2.05784e-13 0 3.20508e-16
339 11 0.001 -0.0508614 0.00222671 -0.0372227 5.52923e-13 -5.15927e-13 -1.42138e-13 0 2.80265e-16
716 12 0.001 -0.0315134 0.00293645 -0.0374859 7.10476e-13 -3.94997e-13 -2.03028e-13 0 3.23028e-16
715 12 0.001 -0.0308614 0.00222676 -0.0372227 5.44649e-13 -4.72422e-13 -1.33143e-13 0 2.8267e-16
1111 14 0.001 -0.0108614 0.00222676 -0.0372227 5.37246e-13 -4.69903e-13 -1.35665e-13 0 2.8267e-16
1112 14 0.001 -0.0115134 0.00293645 -0.0374859 7.18795e-13 -3.99346e-13 -1.99656e-13 0 3.23028e-16
1508 16 0.001 0.00848656 0.00293645 -0.0374859 7.09252e-13 -3.98464e-13 -2.01815e-13 0 3.23028e-16
1507 16 0.001 0.00913855 0.00222676 -0.0372227 5.40389e-13 -4.73088e-13 -1.34496e-13 0 2.8267e-16
1904 18 0.001 0.0284866 0.00293645 -0.0374859 6.97944e-13 -3.92432e-13 -2.04315e-13 0 3.23028e-16
1903 18 0.001 0.0291386 0.00222676 -0.0372227 5.48343e-13 -4.86096e-13 -1.30857e-13 0 2.8267e-16
343 11 0.001 -0.0541942 0.00384563 -0.0382762 9.78656e-13 1.28573e-13 -4.25331e-13 0 3.91012e-16
342 11 0.001 -0.0532335 0.00377195 -0.0380124 9.28347e-13 -8.58867e-14 -3.7363e-13 0 3.82871e-16
341 11 0.001 -0.0523209 0.00346243 -0.037749 8.90955e-13 -2.4787e-13 -2.90142e-13 0 3.57145e-16
719 12 0.001 -0.0341943 0.00384563 -0.0382762 9.06777e-13 1.09432e-13 -4.28639e-13 0 3.93827e-16
718 12 0.001 -0.0332336 0.00377196 -0.0380123 9.26117e-13 -6.43099e-14 -3.57451e-13 0 3.85616e-16
717 12 0.001 -0.032321 0.00346246 -0.037749 8.45323e-13 -2.47321e-13 -2.84401e-13 0 3.59785e-16
1115 14 0.001 -0.0141943 0.00384563 -0.0382762 9.53889e-13 1.10142e-13 -4.15284e-13 0 3.93827e-16
1113 14 0.001 -0.012321 0.00346246 -0.037749 8.35763e-13 -2.38269e-13 -2.89086e-13 0 3.59785e-16
1114 14 0.001 -0.0132336 0.00377196 -0.0380123 9.16037e-13 -6.83583e-14 -3.59063e-13 0 3.85616e-16
1511 16 0.001 0.0058057 0.00384563 -0.0382762 9.49027e-13 1.14424e-13 -4.16492e-13 0 3.93827e-16
1510 16 0.001 0.00676641 0.00377196 -0.0380123 9.01755e-13 -6.93868e-14 -3.62758e-13 0 3.85616e-16
1509 16 0.001 0.00767903 0.00346246 -0.037749 8.5472e-13 -2.39818e-13 -2.84471e-13 0 3.59785e-16
1907 18 0.001 0.0258057 0.00384563 -0.0382762 9.61697e-13 1.18791e-13 -4.1296e-13 0 3.93827e-16
1906 18 0.001 0.0267664 0.00377196 -0.0380123 9.08573e-13 -7.55393e-14 -3.60351e-13 0 3.85616e-16
1905 18 0.001 0.027679 0.00346246 -0.037749 8.45025e-13 -2.35565e-13 -2.88019e-13 0 3.59785e-16
333 11 0.001 -0.0515621 -0.00299029 -0.0356317 -5.48471e-13 -3.82698e-13 -1.40675e-13 0 1.8532e-16
334 11 0.001 -0.0508987 -0.00229244 -0.0358982 -4.4039e-13 -5.09653e-13 -7.29506e-14 0 1.77797e-16
709 12 0.001 -0.031562 -0.00299025 -0.0356317 -5.54388e-13 -3.44163e-13 -1.30702e-13 0 1.87769e-16
710 12 0.001 -0.0308987 -0.00229239 -0.0358982 -3.83799e-13 -4.85755e-13 -6.70124e-14 0 1.80113e-16
1105 14 0.001 -0.011562 -0.00299025 -0.0356317 -5.5051e-13 -3.63076e-13 -1.27322e-13 0 1.87769e-16
1106 14 0.001 -0.0108987 -0.00229239 -0.0358982 -4.14008e-13 -4.75104e-13 -6.50315e-14 0 1.80113e-16
1501 16 0.001 0.00843799 -0.00299025 -0.0356317 -5.49712e-13 -3.68161e-13 -1.27271e-13 0 1.87769e-16
1502 16 0.001 0.00910131 -0.00229239 -0.0358982 -4.0541e-13 -4.72139e-13 -6.67374e-14 0 1.80113e-16
1897 18 0.001 0.028438 -0.00299025 -0.0356317 -6.16785e-13 -3.55081e-13 -1.13868e-13 0 1.87769e-16
1898 18 0.001 0.0291013 -0.00229239 -0.0358982 -3.83388e-13 -4.85178e-13 -6.98134e-14 0 1.80113e-16
335 11 0.001 -0.0504291 -0.00145181 -0.0361644 -2.76085e-13 -6.06184e-13 -2.77074e-14 0 1.79344e-16
336 11 0.001 -0.0501826 -0.000520834 -0.0364299 2.32502e-14 -6.33014e-13 -2.12064e-14 0 1.90698e-16
711 12 0.001 -0.0304291 -0.00145174 -0.0361643 -2.40401e-13 -5.4618e-13 -2.76392e-14 0 1.81582e-16
712 12 0.001 -0.0301826 -0.000520763 -0.0364299 -3.92763e-14 -6.34004e-13 -1.01354e-14 0 1.92911e-16
1107 14 0.001 -0.0104291 -0.00145174 -0.0361643 -2.1704e-13 -5.50065e-13 -2.95452e-14 0 1.81582e-16
1108 14 0.001 -0.0101826 -0.000520763 -0.0364299 -4.11231e-14 -6.29619e-13 -1.06454e-14 0 1.92911e-16
1503 16 0.001 0.00957088 -0.00145174 -0.0361643 -2.23882e-13 -5.50929e-13 -2.84036e-14 0 1.81582e-16
1504 16 0.001 0.00981738 -0.000520763 -0.0364299 -4.51718e-14 -6.3142e-13 -1.03471e-14 0 1.92911e-16
1899 18 0.001 0.0295709 -0.00145174 -0.0361643 -2.10293e-13 -5.43149e-13 -3.05534e-14 0 1.81582e-16
1900 18 0.001 0.0298174 -0.000520763 -0.0364299 -5.32989e-14 -6.38269e-13 -7.35977e-15 0 1.92911e-16
337 11 0.001 -0.0501746 0.000442371 -0.0366949 1.16766e-13 -6.33922e-13 -3.94407e-14 0 2.12057e-16
713 12 0.001 -0.0301746 0.000442443 -0.0366949 1.77723e-13 -5.84396e-13 -2.31651e-14 0 2.14297e-16
1109 14 0.001 -0.0101746 0.000442443 -0.0366949 1.74168e-13 -5.87844e-13 -2.25519e-14 0 2.14297e-16
1505 16 0.001 0.00982536 0.000442443 -0.0366949 1.83619e-13 -5.87952e-13 -2.23112e-14 0 2.14297e-16
1901 18 0.001 0.0298254 0.000442443 -0.0366949 1.68755e-13 -5.81366e-13 -2.52143e-14 0 2.14297e-16
328 11 0.001 -0.056072 -0.00325603 -0.034302 -6.88351e-13 4.87267e-13 -3.70738e-13 0 3.01674e-16
329 11 0.001 -0.0552015 -0.00366825 -0.0345671 -7.94737e-13 3.00203e-13 -3.53293e-13 0 2.75659e-16
330 11 0.001 -0.0542561 -0.00385173 -0.0348327 -7.60704e-13 1.32364e-13 -3.33159e-13 0 2.48349e-16
331 11 0.001 -0.0532948 -0.00379506 -0.0350987 -7.78244e-13 -5.14694e-14 -2.66787e-13 0 2.22507e-16
332 11 0.001 -0.0523777 -0.00350181 -0.0353652 -7.15693e-13 -2.05151e-13 -2.03021e-13 0 2.00768e-16
704 12 0.001 -0.036072 -0.00325609 -0.034302 -6.98646e-13 4.39089e-13 -3.55798e-13 0 3.05159e-16
705 12 0.001 -0.0352014 -0.00366828 -0.034567 -6.9766e-13 3.06066e-13 -3.53904e-13 0 2.78937e-16
706 12 0.001 -0.034256 -0.00385174 -0.0348326 -7.78167e-13 1.25864e-13 -3.11847e-13 0 2.51405e-16
707 12 0.001 -0.0332947 -0.00379505 -0.0350987 -7.23198e-13 -4.30442e-14 -2.61721e-13 0 2.2534e-16
708 12 0.001 -0.0323777 -0.00350178 -0.0353652 -6.82458e-13 -2.1411e-13 -1.89536e-13 0 2.03393e-16
1100 14 0.001 -0.016072 -0.00325609 -0.034302 -6.48604e-13 4.3949e-13 -3.67403e-13 0 3.05159e-16
1101 14 0.001 -0.0152014 -0.00366828 -0.034567 -7.49672e-13 3.00333e-13 -3.41811e-13 0 2.78937e-16
1102 14 0.001 -0.014256 -0.00385174 -0.0348326 -7.39722e-13 1.3131e-13 -3.2153e-13 0 2.51405e-16
1104 14 0.001 -0.0123777 -0.00350178 -0.0353652 -6.67638e-13 -2.0158e-13 -1.94661e-13 0 2.03393e-16
1103 14 0.001 -0.0132947 -0.00379505 -0.0350987 -7.46314e-13 -4.9125e-14 -2.55709e-13 0 2.2534e-16
1496 16 0.001 0.00392804 -0.00325609 -0.034302 -6.53278e-13 4.40652e-13 -3.65595e-13 0 3.05159e-16
1497 16 0.001 0.0047986 -0.00366828 -0.034567 -7.50715e-13 3.00229e-13 -3.42676e-13 0 2.78937e-16
1498 16 0.001 0.00574402 -0.00385174 -0.0348326 -7.51138e-13 1.34462e-13 -3.16318e-13 0 2.51405e-16
1499 16 0.001 0.00670526 -0.00379505 -0.0350987 -7.35034e-13 -5.28579e-14 -2.6001e-13 0 2.2534e-16
1500 16 0.001 0.00762234 -0.00350178 -0.0353652 -6.72084e-13 -1.94355e-13 -1.93722e-13 0 2.03393e-16
1892 18 0.001 0.023928 -0.00325609 -0.034302 -6.54068e-13 4.51025e-13 -3.64703e-13 0 3.05159e-16
1893 18 0.001 0.0247986 -0.00366828 -0.034567 -7.27655e-13 2.92734e-13 -3.48057e-13 0 2.78937e-16
1894 18 0.001 0.025744 -0.00385174 -0.0348326 -7.26986e-13 1.318e-13 -3.24229e-13 0 2.51405e-16
1895 18 0.001 0.0267053 -0.00379505 -0.0350987 -8.23767e-13 -4.58329e-14 -2.36265e-13 0 2.2534e-16
1896 18 0.001 0.0276223 -0.00350178 -0.0353652 -5.79972e-13 -2.04142e-13 -2.15646e-13 0 2.03393e-16
327 11 0.001 -0.0568133 -0.00264079 -0.0340375 -5.65526e-13 5.87103e-13 -3.59218e-13 0 3.23965e-16
703 12 0.001 -0.0368133 -0.00264086 -0.0340375 -5.55368e-13 5.81023e-13 -3.44104e-13 0 3.27635e-16