ITEM: TIMESTEP
7000000
ITEM: NUMBER OF ATOMS
1970
ITEM: BOX BOUNDS ff ff ff
-6.0000000000000005e-02 6.0000000000000005e-02
-6.0000000000000001e-03 6.0000000000000001e-03
-5.5000000000000000e-02 5.5000000000000000e-02
ITEM: ATOMS id type radius x y z fx fy fz c_bendingE c_stretchingE
384 11 0.001 -0.0508197 -0.00263677 -0.0489932 -3.70156e-13 4.69052e-14 -1.36719e-13 0 2.36563e-17
385 11 0.001 -0.0503203 -0.00183436 -0.0493169 -2.22519e-13 3.30443e-14 -8.68352e-14 0 9.41078e-15
760 12 0.001 -0.0308195 -0.00263674 -0.0489929 -3.1139e-13 6.00947e-14 -1.23192e-13 0 2.41996e-17
761 12 0.001 -0.0303202 -0.00183432 -0.0493167 -2.50446e-13 -1.29758e-14 -4.63515e-14 0 9.33264e-15
1156 14 0.001 -0.0108195 -0.00263674 -0.0489929 -3.08244e-13 7.76409e-14 -1.31273e-13 0 2.41996e-17
1157 14 0.001 -0.0103202 -0.00183432 -0.0493167 -2.37979e-13 -1.39131e-14 -4.54469e-14 0 9.33264e-15
1552 16 0.001 0.00918052 -0.00263674 -0.0489929 -3.15653e-13 7.27024e-14 -1.26555e-13 0 2.41996e-17
1553 16 0.001 0.00967985 -0.00183432 -0.0493167 -2.34453e-13 -1.68914e-14 -4.63197e-14 0 9.33264e-15
1948 18 0.001 0.0291805 -0.00263674 -0.0489929 -3.55782e-13 7.17799e-14 -1.20924e-13 0 2.41996e-17
1949 18 0.001 0.0296798 -0.00183432 -0.0493167 -2.12919e-13 -1.34516e-14 -4.91285e-14 0 9.33264e-15
2 2 0.001 -0.05 -4.31175e-17 -0.05 -2.78039e-06 3.00518e-06 2.01062e-06 0 8.2563e-15
386 11 0.001 -0.0500414 -0.000936303 -0.0496541 -1.21313e-13 -3.322e-15 -3.25338e-14 0 1.76565e-14
762 12 0.001 -0.0300413 -0.000936266 -0.049654 -9.93611e-14 3.69429e-14 -4.02029e-14 0 1.74897e-14
4 4 0.001 -0.03 -4.31175e-17 -0.05 -2.80389e-06 3.06365e-06 1.99525e-06 0 8.16999e-15
6 6 0.001 -0.01 -4.31175e-17 -0.05 -2.80389e-06 3.06365e-06 1.99525e-06 0 8.16999e-15
1158 14 0.001 -0.0100413 -0.000936266 -0.049654 -1.1054e-13 2.94008e-14 -3.76568e-14 0 1.74897e-14
8 8 0.001 0.01 -4.31175e-17 -0.05 -2.80389e-06 3.06365e-06 1.99525e-06 0 8.16999e-15
1554 16 0.001 0.00995868 -0.000936266 -0.049654 -1.13706e-13 3.38894e-14 -3.83894e-14 0 1.74897e-14
10 10 0.001 0.03 -4.31175e-17 -0.05 -2.80389e-06 3.06365e-06 1.99525e-06 0 8.16999e-15
1950 18 0.001 0.0299587 -0.000936266 -0.049654 -1.17637e-13 2.67727e-14 -3.59824e-14 0 1.74897e-14
379 11 0.001 -0.0551874 -0.00377997 -0.047653 -5.54391e-13 4.69456e-13 -4.43477e-13 0 9.99247e-16
380 11 0.001 -0.0542435 -0.00401086 -0.047885 -5.75648e-13 3.8581e-13 -4.07299e-13 0 8.63401e-16
381 11 0.001 -0.0532758 -0.00400277 -0.0481331 -5.2938e-13 2.95804e-13 -3.64385e-13 0 6.19358e-16
382 11 0.001 -0.0523449 -0.00375753 -0.0484 -5.24537e-13 1.9117e-13 -2.83785e-13 0 3.38921e-16
383 11 0.001 -0.0515088 -0.00329198 -0.0486869 -4.30391e-13 1.2099e-13 -2.17657e-13 0 1.13405e-16
755 12 0.001 -0.035187 -0.00378024 -0.0476526 -5.6368e-13 4.68003e-13 -3.98783e-13 0 1.00535e-15
756 12 0.001 -0.0342431 -0.00401107 -0.0478846 -4.97987e-13 3.67646e-13 -3.8644e-13 0 8.64546e-16
757 12 0.001 -0.0332754 -0.0040029 -0.0481327 -5.01356e-13 2.76543e-13 -3.28756e-13 0 6.15849e-16
758 12 0.001 -0.0323445 -0.0037576 -0.0483996 -4.9061e-13 1.76495e-13 -2.48764e-13 0 3.32754e-16
759 12 0.001 -0.0315085 -0.00329199 -0.0486865 -4.06729e-13 1.40312e-13 -1.94996e-13 0 1.08239e-16
1151 14 0.001 -0.015187 -0.00378024 -0.0476526 -5.22849e-13 4.62241e-13 -4.09005e-13 0 1.00535e-15
1152 14 0.001 -0.0142431 -0.00401107 -0.0478846 -5.07832e-13 3.6162e-13 -3.83904e-13 0 8.64546e-16
1153 14 0.001 -0.0132754 -0.0040029 -0.0481327 -5.23398e-13 2.76198e-13 -3.22471e-13 0 6.15849e-16
1154 14 0.001 -0.0123445 -0.0037576 -0.0483996 -4.63792e-13 1.95799e-13 -2.60252e-13 0 3.32754e-16
1155 14 0.001 -0.0115085 -0.00329199 -0.0486865 -4.30064e-13 1.11217e-13 -1.80955e-13 0 1.08239e-16
1547 16 0.001 0.004813 -0.00378024 -0.0476526 -5.21493e-13 4.48798e-13 -4.10164e-13 0 1.00535e-15
1548 16 0.001 0.00575689 -0.00401107 -0.0478846 -5.22154e-13 3.68905e-13 -3.80371e-13 0 8.64546e-16
1549 16 0.001 0.00672457 -0.0040029 -0.0481327 -5.14476e-13 2.75675e-13 -3.25225e-13 0 6.15849e-16
1550 16 0.001 0.00765548 -0.0037576 -0.0483996 -4.76349e-13 1.87998e-13 -2.54268e-13 0 3.32754e-16
1551 16 0.001 0.00849148 -0.00329199 -0.0486865 -4.1472e-13 1.24306e-13 -1.89483e-13 0 1.08239e-16
1943 18 0.001 0.024813 -0.00378024 -0.0476526 -5.1957e-13 4.54729e-13 -4.10063e-13 0 1.00535e-15
1944 18 0.001 0.0257569 -0.00401107 -0.0478846 -5.00995e-13 3.68362e-13 -3.85702e-13 0 8.64546e-16
1945 18 0.001 0.0267246 -0.0040029 -0.0481327 -5.39845e-13 2.70518e-13 -3.18407e-13 0 6.15849e-16
1946 18 0.001 0.0276555 -0.0037576 -0.0483996 -4.79533e-13 1.9347e-13 -2.55058e-13 0 3.32754e-16
1947 18 0.001 0.0284915 -0.00329199 -0.0486865 -3.78591e-13 1.22727e-13 -1.95326e-13 0 1.08239e-16
378 11 0.001 -0.0560483 -0.00332342 -0.0474332 -4.7761e-13 5.61633e-13 -4.51979e-13 0 9.95133e-16
754 12 0.001 -0.036048 -0.00332376 -0.0474328 -4.82259e-13 5.1234e-13 -4.21793e-13 0 1.00519e-15
1150 14 0.001 -0.016048 -0.00332376 -0.0474328 -4.83594e-13 5.22558e-13 -4.19277e-13 0 1.00519e-15
1546 16 0.001 0.00395199 -0.00332376 -0.0474328 -4.68864e-13 5.34116e-13 -4.21192e-13 0 1.00519e-15
1942 18 0.001 0.023952 -0.00332376 -0.0474328 -4.79757e-13 5.25396e-13 -4.19839e-13 0 1.00519e-15
376 11 0.001 -0.0573149 -0.00185671 -0.0470105 -3.5446e-13 6.75497e-13 -3.62792e-13 0 6.53299e-16
377 11 0.001 -0.0567725 -0.00266891 -0.0472207 -4.29021e-13 6.29689e-13 -4.23361e-13 0 8.64129e-16
753 12 0.001 -0.0367723 -0.00266931 -0.0472204 -3.66933e-13 5.99535e-13 -4.03667e-13 0 8.76394e-16
752 12 0.001 -0.0373148 -0.00185715 -0.0470103 -3.27204e-13 6.35938e-13 -3.46538e-13 0 6.65854e-16
1149 14 0.001 -0.0167723 -0.00266931 -0.0472204 -4.03262e-13 6.00467e-13 -3.98057e-13 0 8.76394e-16
1148 14 0.001 -0.0173148 -0.00185715 -0.0470103 -3.24119e-13 6.31964e-13 -3.49784e-13 0 6.65854e-16
1544 16 0.001 0.00268525 -0.00185715 -0.0470103 -3.29426e-13 6.35868e-13 -3.48681e-13 0 6.65854e-16
1545 16 0.001 0.00322771 -0.00266931 -0.0472204 -4.09058e-13 5.93281e-13 -3.97736e-13 0 8.76394e-16
1941 18 0.001 0.0232277 -0.00266931 -0.0472204 -4.06741e-13 5.99542e-13 -3.97632e-13 0 8.76394e-16
1940 18 0.001 0.0226852 -0.00185715 -0.0470103 -3.22361e-13 6.35169e-13 -3.48649e-13 0 6.65854e-16
375 11 0.001 -0.0576419 -0.000937036 -0.0467977 -2.53504e-13 6.83729e-13 -2.89601e-13 0 4.2312e-16
751 12 0.001 -0.0376419 -0.000937491 -0.0467976 -2.59442e-13 6.44454e-13 -2.72413e-13 0 4.34303e-16
1147 14 0.001 -0.0176419 -0.000937491 -0.0467976 -2.3945e-13 6.49177e-13 -2.7174e-13 0 4.34303e-16
1543 16 0.001 0.00235815 -0.000937491 -0.0467976 -2.32071e-13 6.49746e-13 -2.71809e-13 0 4.34303e-16
1939 18 0.001 0.0223581 -0.000937491 -0.0467976 -2.4529e-13 6.43212e-13 -2.74413e-13 0 4.34303e-16
373 11 0.001 -0.0575852 0.000993923 -0.046348 -2.56439e-14 6.22916e-13 -8.22076e-14 0 9.14814e-17
374 11 0.001 -0.0577337 3.31754e-05 -0.046578 -1.25352e-13 6.97419e-13 -1.85966e-13 0 2.25968e-16
749 12 0.001 -0.0375853 0.000993494 -0.0463479 3.59717e-14 6.07858e-13 -7.02773e-14 0 9.71114e-17
750 12 0.001 -0.0377337 3.27226e-05 -0.0465779 -1.64425e-13 6.37227e-13 -1.84064e-13 0 2.34636e-16
1145 14 0.001 -0.0175853 0.000993494 -0.0463479 -6.19819e-14 6.04996e-13 -8.28401e-14 0 9.71114e-17
1146 14 0.001 -0.0177337 3.27226e-05 -0.0465779 -1.21007e-13 6.30183e-13 -1.80166e-13 0 2.34636e-16
1541 16 0.001 0.00241472 0.000993494 -0.0463479 -3.86038e-14 6.04696e-13 -8.01514e-14 0 9.71114e-17
1542 16 0.001 0.00226628 3.27226e-05 -0.0465779 -1.36387e-13 6.28853e-13 -1.81662e-13 0 2.34636e-16
1937 18 0.001 0.0224147 0.000993494 -0.0463479 -5.40943e-14 6.02205e-13 -8.36721e-14 0 9.71114e-17
1938 18 0.001 0.0222663 3.27226e-05 -0.0465779 -1.18011e-13 6.39652e-13 -1.76362e-13 0 2.34636e-16
372 11 0.001 -0.0572063 0.00188592 -0.0461054 4.69353e-14 5.61324e-13 9.1468e-15 0 2.27894e-17
748 12 0.001 -0.0372065 0.00188553 -0.0461054 2.16676e-14 5.28496e-13 1.89083e-14 0 2.54563e-17
1144 14 0.001 -0.0172065 0.00188553 -0.0461054 5.57094e-14 5.25617e-13 2.31511e-14 0 2.54563e-17
1540 16 0.001 0.00279351 0.00188553 -0.0461054 4.33424e-14 5.22727e-13 2.09504e-14 0 2.54563e-17
1936 18 0.001 0.0227935 0.00188553 -0.0461054 4.23038e-14 5.20866e-13 2.06576e-14 0 2.54563e-17
371 11 0.001 -0.0566213 0.00265427 -0.0458496 1.2489e-13 4.55702e-13 9.87208e-14 0 2.82959e-18
747 12 0.001 -0.0366216 0.00265395 -0.0458496 1.12789e-13 4.40381e-13 1.00631e-13 0 3.08884e-18
1143 14 0.001 -0.0166216 0.00265395 -0.0458496 1.42712e-13 4.52968e-13 1.07199e-13 0 3.08884e-18
1539 16 0.001 0.0033784 0.00265395 -0.0458496 1.38037e-13 4.59444e-13 1.07631e-13 0 3.08884e-18
1935 18 0.001 0.0233784 0.00265395 -0.0458496 1.47228e-13 4.5325e-13 1.07871e-13 0 3.08884e-18
370 11 0.001 -0.0558672 0.00325183 -0.0455808 2.15464e-13 3.69016e-13 1.69374e-13 0 6.38685e-18
369 11 0.001 -0.0549913 0.00364208 -0.0453005 2.76884e-13 2.44267e-13 2.06248e-13 0 1.21933e-17
368 11 0.001 -0.0540485 0.00380129 -0.0450113 2.90801e-13 1.05776e-13 2.05194e-13 0 1.04719e-17
367 11 0.001 -0.0530976 0.00372001 -0.044716 1.97374e-13 -3.83773e-14 1.44233e-13 0 3.8752e-18
745 12 0.001 -0.0349917 0.00364194 -0.0453005 2.71493e-13 2.12295e-13 2.13752e-13 0 1.03104e-17
746 12 0.001 -0.0358676 0.00325159 -0.0455808 1.58641e-13 3.42867e-13 1.57831e-13 0 5.09727e-18
744 12 0.001 -0.0340489 0.00380125 -0.0450113 2.07619e-13 1.05735e-13 1.88371e-13 0 8.84856e-18
743 12 0.001 -0.033098 0.00372007 -0.044716 2.32186e-13 -2.21753e-14 1.63261e-13 0 3.10702e-18
1142 14 0.001 -0.0158676 0.00325159 -0.0455808 1.67748e-13 3.3592e-13 1.62525e-13 0 5.09727e-18
1140 14 0.001 -0.0140489 0.00380125 -0.0450113 2.4806e-13 1.03943e-13 2.00231e-13 0 8.84856e-18
1141 14 0.001 -0.0149917 0.00364194 -0.0453005 2.20139e-13 2.19489e-13 1.98293e-13 0 1.03105e-17
1139 14 0.001 -0.013098 0.00372007 -0.044716 2.24388e-13 -2.64797e-14 1.61213e-13 0 3.10702e-18
1538 16 0.001 0.00413244 0.00325159 -0.0455808 1.77475e-13 3.34669e-13 1.63373e-13 0 5.09727e-18
1537 16 0.001 0.00500829 0.00364194 -0.0453005 2.15624e-13 2.18023e-13 1.97988e-13 0 1.03104e-17
1536 16 0.001 0.00595114 0.00380125 -0.0450113 2.45009e-13 9.80397e-14 1.99113e-13 0 8.84856e-18
1535 16 0.001 0.00690205 0.00372007 -0.044716 2.2629e-13 -1.89164e-14 1.61534e-13 0 3.10702e-18
1933 18 0.001 0.0250083 0.00364194 -0.0453005 2.40029e-13 2.14653e-13 2.0373e-13 0 1.03104e-17
1934 18 0.001 0.0241324 0.00325159 -0.0455808 1.64082e-13 3.4061e-13 1.6197e-13 0 5.09727e-18
1932 18 0.001 0.0259511 0.00380125 -0.0450113 2.21669e-13 1.0968e-13 1.92431e-13 0 8.84856e-18
1931 18 0.001 0.026902 0.00372007 -0.044716 2.28885e-13 -3.74091e-14 1.6385e-13 0 3.10702e-18
361 11 0.001 -0.0501534 -0.000587144 -0.0429788 -1.54828e-13 -4.95997e-13 -2.94172e-13 0 1.89433e-16
737 12 0.001 -0.0301533 -0.000586747 -0.0429786 -1.39179e-13 -4.58312e-13 -2.85636e-13 0 1.91967e-16
1133 14 0.001 -0.0101533 -0.000586747 -0.0429786 -1.54001e-13 -4.58655e-13 -2.84971e-13 0 1.91967e-16
1529 16 0.001 0.00984665 -0.000586747 -0.0429786 -1.34024e-13 -4.56046e-13 -2.85295e-13 0 1.91967e-16
1925 18 0.001 0.0298467 -0.000586747 -0.0429786 -1.32379e-13 -4.58544e-13 -2.85304e-13 0 1.91967e-16
362 11 0.001 -0.050125 0.000372826 -0.0432538 -2.69419e-14 -4.64606e-13 -2.40784e-13 0 1.51174e-16
363 11 0.001 -0.0503359 0.00130756 -0.0435363 2.14917e-14 -4.61851e-13 -1.52972e-13 0 1.0039e-16
738 12 0.001 -0.0301251 0.000373224 -0.0432537 -5.75354e-14 -4.54839e-13 -2.28436e-13 0 1.53825e-16
739 12 0.001 -0.0303361 0.00130794 -0.0435362 4.30542e-14 -3.86697e-13 -1.54267e-13 0 1.02969e-16
1134 14 0.001 -0.0101251 0.000373224 -0.0432537 -5.02816e-14 -4.54109e-13 -2.28747e-13 0 1.53825e-16
1135 14 0.001 -0.0103361 0.00130794 -0.0435362 3.05452e-14 -3.90667e-13 -1.55414e-13 0 1.02969e-16
1530 16 0.001 0.00987491 0.000373224 -0.0432537 -7.21348e-14 -4.53048e-13 -2.29982e-13 0 1.53825e-16
1531 16 0.001 0.0096639 0.00130794 -0.0435362 3.95667e-14 -3.87385e-13 -1.5549e-13 0 1.02969e-16
1926 18 0.001 0.0298749 0.000373224 -0.0432537 -6.49399e-14 -4.56341e-13 -2.28589e-13 0 1.53825e-16
1927 18 0.001 0.0296639 0.00130794 -0.0435362 3.95451e-14 -3.87572e-13 -1.5385e-13 0 1.02969e-16
365 11 0.001 -0.0514064 0.00287195 -0.0441202 2.15835e-13 -3.03085e-13 3.18593e-14 0 1.72745e-17
364 11 0.001 -0.0507724 0.00215838 -0.0438256 1.05835e-13 -3.20653e-13 -8.48718e-14 0 5.159e-17
740 12 0.001 -0.0307726 0.00215871 -0.0438255 8.99985e-14 -3.65568e-13 -6.0363e-14 0 5.37692e-17
741 12 0.001 -0.0314067 0.0028722 -0.0441201 1.82645e-13 -2.31311e-13 2.49073e-14 0 1.86811e-17
1136 14 0.001 -0.0107726 0.00215871 -0.0438255 1.24788e-13 -3.64024e-13 -5.38958e-14 0 5.37692e-17
1137 14 0.001 -0.0114067 0.0028722 -0.0441201 1.5586e-13 -2.31129e-13 1.95341e-14 0 1.86811e-17
1533 16 0.001 0.00859326 0.0028722 -0.0441201 1.49203e-13 -2.30272e-13 1.76554e-14 0 1.86811e-17
1532 16 0.001 0.00922741 0.00215871 -0.0438255 1.26591e-13 -3.69665e-13 -5.20715e-14 0 5.37692e-17
1928 18 0.001 0.0292274 0.00215871 -0.0438255 1.1221e-13 -3.65096e-13 -5.7456e-14 0 5.37692e-17
1929 18 0.001 0.0285933 0.0028722 -0.0441201 1.47829e-13 -2.31824e-13 1.78906e-14 0 1.86811e-17
366 11 0.001 -0.0521981 0.00340359 -0.0444179 2.88953e-13 -1.3693e-13 1.16499e-13 0 2.68258e-18
742 12 0.001 -0.0321985 0.00340375 -0.0444179 2.2935e-13 -1.55226e-13 1.1363e-13 0 3.0312e-18
1138 14 0.001 -0.0121985 0.00340375 -0.0444179 2.27953e-13 -1.52253e-13 1.12453e-13 0 3.0312e-18
1534 16 0.001 0.00780154 0.00340375 -0.0444179 2.33073e-13 -1.53586e-13 1.13731e-13 0 3.0312e-18
1930 18 0.001 0.0278015 0.00340375 -0.0444179 2.49278e-13 -1.43101e-13 1.16735e-13 0 3.0312e-18
356 11 0.001 -0.053343 -0.00380323 -0.0416893 -4.2187e-13 -1.65534e-13 -1.95172e-13 0 7.88232e-17
357 11 0.001 -0.0524165 -0.00352631 -0.0419405 -4.26184e-13 -2.61439e-13 -2.57663e-13 0 1.20203e-16
358 11 0.001 -0.0515876 -0.00302932 -0.0421933 -3.71335e-13 -3.55286e-13 -3.05045e-13 0 1.62171e-16
732 12 0.001 -0.0333426 -0.00380318 -0.0416892 -4.14148e-13 -1.51118e-13 -1.81099e-13 0 8.10466e-17
733 12 0.001 -0.0324162 -0.00352615 -0.0419403 -4.11202e-13 -2.57806e-13 -2.42145e-13 0 1.22478e-16
734 12 0.001 -0.0315873 -0.00302908 -0.0421932 -3.35832e-13 -3.29177e-13 -3.00015e-13 0 1.64437e-16
1128 14 0.001 -0.0133426 -0.00380318 -0.0416892 -4.00023e-13 -1.63863e-13 -1.85305e-13 0 8.10466e-17
1129 14 0.001 -0.0124162 -0.00352615 -0.0419403 -4.20504e-13 -2.58813e-13 -2.39264e-13 0 1.22478e-16
1130 14 0.001 -0.0115873 -0.00302908 -0.0421932 -3.35306e-13 -3.22856e-13 -3.00871e-13 0 1.64437e-16
1524 16 0.001 0.00665744 -0.00380318 -0.0416892 -4.09325e-13 -1.59779e-13 -1.81223e-13 0 8.10466e-17
1525 16 0.001 0.00758384 -0.00352615 -0.0419403 -3.98988e-13 -2.55465e-13 -2.4547e-13 0 1.22478e-16
1526 16 0.001 0.0084127 -0.00302908 -0.0421932 -3.57796e-13 -3.28027e-13 -2.953e-13 0 1.64437e-16
1920 18 0.001 0.0266574 -0.00380318 -0.0416892 -4.41391e-13 -1.55052e-13 -1.74118e-13 0 8.10466e-17
1921 18 0.001 0.0275838 -0.00352615 -0.0419403 -3.70367e-13 -2.56364e-13 -2.52419e-13 0 1.22478e-16
1922 18 0.001 0.0284127 -0.00302908 -0.0421932 -3.43619e-13 -3.23233e-13 -2.98096e-13 0 1.64437e-16
359 11 0.001 -0.0509079 -0.00234349 -0.0424496 -3.34764e-13 -4.25399e-13 -3.27805e-13 0 1.93739e-16
360 11 0.001 -0.0504198 -0.00151199 -0.0427109 -2.31232e-13 -4.69388e-13 -3.28772e-13 0 2.04568e-16
735 12 0.001 -0.0309077 -0.00234318 -0.0424494 -3.04988e-13 -3.97426e-13 -3.18159e-13 0 1.96022e-16
736 12 0.001 -0.0304196 -0.00151162 -0.0427108 -2.36027e-13 -4.46297e-13 -3.16293e-13 0 2.06946e-16
1131 14 0.001 -0.0109077 -0.00234318 -0.0424494 -3.06459e-13 -3.98643e-13 -3.17803e-13 0 1.96022e-16
1132 14 0.001 -0.0104196 -0.00151162 -0.0427108 -2.27274e-13 -4.46953e-13 -3.16701e-13 0 2.06946e-16
1527 16 0.001 0.00909231 -0.00234318 -0.0424494 -2.97507e-13 -3.95486e-13 -3.20061e-13 0 1.96022e-16
1528 16 0.001 0.00958038 -0.00151162 -0.0427108 -2.33456e-13 -4.50818e-13 -3.15725e-13 0 2.06946e-16
1923 18 0.001 0.0290923 -0.00234318 -0.0424494 -3.21349e-13 -4.05832e-13 -3.14412e-13 0 1.96022e-16
1924 18 0.001 0.0295804 -0.00151162 -0.0427108 -2.29323e-13 -4.43143e-13 -3.17999e-13 0 2.06946e-16
353 11 0.001 -0.0561209 -0.00321494 -0.040931 -3.29404e-13 1.41861e-13 3.84904e-15 0 1.24015e-17
355 11 0.001 -0.0543091 -0.00384276 -0.0414382 -4.27613e-13 -5.91653e-14 -1.24055e-13 0 4.58188e-17
354 11 0.001 -0.0552547 -0.00364246 -0.0411858 -3.70699e-13 4.23815e-14 -6.63119e-14 0 2.40889e-17
729 12 0.001 -0.0361206 -0.0032152 -0.0409308 -2.78886e-13 1.05718e-13 -4.79635e-15 0 1.39404e-17
730 12 0.001 -0.0352543 -0.00364262 -0.0411857 -3.73379e-13 2.39748e-14 -4.74811e-14 0 2.58873e-17
731 12 0.001 -0.0343087 -0.00384281 -0.0414381 -3.75632e-13 -6.04485e-14 -1.19707e-13 0 4.78776e-17
1125 14 0.001 -0.0161206 -0.0032152 -0.0409308 -2.83031e-13 1.1234e-13 -3.844e-16 0 1.39404e-17
1126 14 0.001 -0.0152543 -0.00364262 -0.0411857 -3.80797e-13 2.3011e-14 -4.76387e-14 0 2.58873e-17
1127 14 0.001 -0.0143087 -0.00384281 -0.0414381 -3.67497e-13 -4.98087e-14 -1.20482e-13 0 4.78776e-17
1521 16 0.001 0.00387944 -0.0032152 -0.0409308 -2.84581e-13 1.13955e-13 -8.12081e-16 0 1.39404e-17
1523 16 0.001 0.00569131 -0.00384281 -0.0414381 -3.71565e-13 -6.10558e-14 -1.21952e-13 0 4.78776e-17
1522 16 0.001 0.00474569 -0.00364262 -0.0411857 -3.70373e-13 3.12165e-14 -4.75684e-14 0 2.58873e-17
1917 18 0.001 0.0238794 -0.0032152 -0.0409308 -2.77791e-13 1.18356e-13 2.07272e-16 0 1.39404e-17
1918 18 0.001 0.0247457 -0.00364262 -0.0411857 -3.60357e-13 2.33955e-14 -5.31631e-14 0 2.58873e-17
1919 18 0.001 0.0256913 -0.00384281 -0.0414381 -3.78054e-13 -6.21335e-14 -1.18857e-13 0 4.78776e-17
351 11 0.001 -0.0574081 -0.00179785 -0.0404121 -4.95076e-14 2.90629e-13 3.12586e-14 0 7.82693e-18
352 11 0.001 -0.0568538 -0.00258699 -0.0406731 -2.55639e-13 1.78148e-13 1.10197e-14 0 7.74113e-18
727 12 0.001 -0.0374079 -0.00179826 -0.040412 -2.13644e-13 2.2701e-13 5.05933e-14 0 9.43649e-18
728 12 0.001 -0.0368536 -0.00258734 -0.040673 -1.77218e-13 2.05678e-13 2.8463e-14 0 9.16866e-18
1123 14 0.001 -0.0174079 -0.00179826 -0.040412 -1.63559e-13 2.47894e-13 5.10763e-14 0 9.43649e-18
1124 14 0.001 -0.0168536 -0.00258734 -0.040673 -1.93901e-13 1.85441e-13 2.48318e-14 0 9.16866e-18
1519 16 0.001 0.00259211 -0.00179826 -0.040412 -1.3024e-13 2.51484e-13 4.83313e-14 0 9.43649e-18
1520 16 0.001 0.00314642 -0.00258734 -0.040673 -2.12198e-13 1.80625e-13 2.71747e-14 0 9.16866e-18
1915 18 0.001 0.0225921 -0.00179826 -0.040412 -1.86493e-13 2.39077e-13 5.07474e-14 0 9.43649e-18
1916 18 0.001 0.0231464 -0.00258734 -0.040673 -1.99754e-13 1.8988e-13 2.7223e-14 0 9.16866e-18
350 11 0.001 -0.0577492 -0.000896766 -0.0401482 -1.44435e-13 3.16167e-13 3.94325e-14 0 1.25491e-17
726 12 0.001 -0.0377491 -0.000897216 -0.040148 7.47911e-14 2.9092e-13 2.54304e-14 0 1.47228e-17
1122 14 0.001 -0.0177491 -0.000897216 -0.040148 1.09442e-14 2.80845e-13 2.6793e-14 0 1.47228e-17
1518 16 0.001 0.00225086 -0.000897216 -0.040148 -3.20068e-14 2.80601e-13 2.8649e-14 0 1.47228e-17
1914 18 0.001 0.0222509 -0.000897216 -0.040148 5.45597e-14 2.84236e-13 2.53007e-14 0 1.47228e-17
348 11 0.001 -0.0577226 0.00101312 -0.0396136 1.90528e-13 3.56447e-13 -3.67735e-14 0 4.38537e-17
349 11 0.001 -0.0578562 6.00998e-05 -0.0398818 1.21897e-13 3.26302e-13 -2.63919e-14 0 2.37797e-17
724 12 0.001 -0.0377227 0.00101267 -0.0396135 2.28446e-13 2.82628e-13 -4.77008e-14 0 4.81942e-17
725 12 0.001 -0.0378563 5.96357e-05 -0.0398816 -2.03555e-14 3.10765e-13 1.04316e-15 0 2.68966e-17
1120 14 0.001 -0.0177227 0.00101267 -0.0396135 2.03481e-13 2.91637e-13 -4.50009e-14 0 4.81942e-17
1121 14 0.001 -0.0178563 5.96357e-05 -0.0398816 2.60527e-14 3.12682e-13 2.87646e-16 0 2.68966e-17
1516 16 0.001 0.00227728 0.00101267 -0.0396135 1.80277e-13 2.88214e-13 -4.63918e-14 0 4.81942e-17
1517 16 0.001 0.00214374 5.96357e-05 -0.0398816 7.09686e-14 3.11194e-13 1.31969e-16 0 2.68966e-17
1912 18 0.001 0.0222773 0.00101267 -0.0396135 2.22645e-13 2.89725e-13 -4.60044e-14 0 4.81942e-17
1913 18 0.001 0.0221437 5.96357e-05 -0.0398816 -7.84523e-15 3.09099e-13 5.75166e-16 0 2.68966e-17
347 11 0.001 -0.0573567 0.00190292 -0.0393446 2.73137e-13 2.85862e-13 -1.18884e-13 0 7.36151e-17
346 11 0.001 -0.0567814 0.002674 -0.0390753 3.71515e-13 2.56789e-13 -1.60414e-13 0 1.11046e-16
722 12 0.001 -0.0367817 0.00267366 -0.0390752 3.47012e-13 2.26006e-13 -1.53917e-13 0 1.17985e-16
723 12 0.001 -0.0373569 0.00190251 -0.0393444 2.66567e-13 3.07429e-13 -9.17668e-14 0 7.92924e-17
1118 14 0.001 -0.0167817 0.00267366 -0.0390752 3.24687e-13 2.39872e-13 -1.53353e-13 0 1.17985e-16
1119 14 0.001 -0.0173569 0.00190251 -0.0393444 2.77708e-13 2.87849e-13 -9.73443e-14 0 7.92924e-17
1515 16 0.001 0.00264308 0.00190251 -0.0393444 2.64446e-13 2.97321e-13 -9.80373e-14 0 7.92924e-17
1514 16 0.001 0.00321827 0.00267366 -0.0390752 3.56205e-13 2.24318e-13 -1.50514e-13 0 1.17985e-16
1910 18 0.001 0.0232183 0.00267366 -0.0390752 3.51838e-13 2.32449e-13 -1.52402e-13 0 1.17985e-16
1911 18 0.001 0.0226431 0.00190251 -0.0393444 2.51449e-13 2.9454e-13 -9.73506e-14 0 7.92924e-17
345 11 0.001 -0.0560326 0.00327825 -0.0388066 4.32875e-13 1.87345e-13 -2.05328e-13 0 1.51161e-16
344 11 0.001 -0.055157 0.00367789 -0.0385388 4.8439e-13 1.05086e-13 -2.37297e-13 0 1.87225e-16
721 12 0.001 -0.036033 0.003278 -0.0388064 3.76175e-13 1.55814e-13 -2.07338e-13 0 1.59123e-16
720 12 0.001 -0.0351575 0.00367775 -0.0385387 5.0533e-13 1.10054e-13 -2.11513e-13 0 1.95873e-16
1117 14 0.001 -0.016033 0.003278 -0.0388064 4.22214e-13 1.57614e-13 -1.98144e-13 0 1.59123e-16
1116 14 0.001 -0.0151575 0.00367775 -0.0385387 4.53269e-13 1.0276e-13 -2.25246e-13 0 1.95873e-16
1513 16 0.001 0.00396699 0.003278 -0.0388064 4.01397e-13 1.72196e-13 -2.00083e-13 0 1.59123e-16
1512 16 0.001 0.0048425 0.00367775 -0.0385387 4.58512e-13 9.69378e-14 -2.24851e-13 0 1.95873e-16
1909 18 0.001 0.023967 0.003278 -0.0388064 4.17584e-13 1.64867e-13 -1.95843e-13 0 1.59123e-16
1908 18 0.001 0.0248425 0.00367775 -0.0385387 4.57364e-13 1.01813e-13 -2.25246e-13 0 1.95873e-16
338 11 0.001 -0.0504131 0.00139249 -0.036954 2.90302e-13 -3.32787e-13 -6.72434e-14 0 1.44803e-16
714 12 0.001 -0.0304133 0.00139295 -0.0369539 1.87838e-13 -3.05053e-13 -6.84937e-14 0 1.51913e-16
1110 14 0.001 -0.0104133 0.00139295 -0.0369539 2.25209e-13 -2.86126e-13 -7.18106e-14 0 1.51913e-16
1506 16 0.001 0.00958673 0.00139295 -0.0369539 2.31388e-13 -2.87582e-13 -7.07438e-14 0 1.51913e-16
1902 18 0.001 0.0295867 0.00139295 -0.0369539 1.71053e-13 -2.90772e-13 -7.52117e-14 0 1.51913e-16
340 11 0.001 -0.0515261 0.00294783 -0.0374796 4.10745e-13 -2.28909e-13 -1.69143e-13 0 2.00676e-16
339 11 0.001 -0.0508718 0.00224021 -0.0372168 2.81134e-13 -2.61834e-13 -1.3173e-13 0 1.74233e-16
716 12 0.001 -0.0315265 0.00294814 -0.0374795 3.43848e-13 -1.95923e-13 -1.74434e-13 0 2.08905e-16
715 12 0.001 -0.030872 0.0022406 -0.0372166 3.39599e-13 -2.67854e-13 -1.03715e-13 0 1.81916e-16
1111 14 0.001 -0.010872 0.0022406 -0.0372166 3.09066e-13 -2.77557e-13 -1.04747e-13 0 1.81916e-16
1112 14 0.001 -0.0115265 0.00294814 -0.0374795 3.60282e-13 -1.96914e-13 -1.713e-13 0 2.08905e-16
1508 16 0.001 0.00847349 0.00294814 -0.0374795 3.68169e-13 -1.97114e-13 -1.6974e-13 0 2.08905e-16
1507 16 0.001 0.00912796 0.0022406 -0.0372166 2.99486e-13 -2.73752e-13 -1.06915e-13 0 1.81916e-16
1904 18 0.001 0.0284735 0.00294814 -0.0374795 3.55509e-13 -1.95142e-13 -1.72367e-13 0 2.08905e-16
1903 18 0.001 0.029128 0.0022406 -0.0372166 3.39925e-13 -2.75439e-13 -1.01146e-13 0 1.81916e-16
343 11 0.001 -0.0542094 0.00384789 -0.0382723 5.42435e-13 2.93032e-14 -2.32101e-13 0 2.12768e-16
342 11 0.001 -0.0532488 0.00377754 -0.038007 4.41038e-13 -7.38375e-14 -2.53901e-13 0 2.23547e-16
341 11 0.001 -0.0523353 0.00347116 -0.0377429 4.85588e-13 -1.56996e-13 -2.00925e-13 0 2.18694e-16
719 12 0.001 -0.0342099 0.00384786 -0.0382721 4.49301e-13 1.66132e-14 -2.42862e-13 0 2.21735e-16
718 12 0.001 -0.0332493 0.00377764 -0.0380069 4.63568e-13 -7.21952e-14 -2.29194e-13 0 2.325e-16
717 12 0.001 -0.0323358 0.00347137 -0.0377427 4.39338e-13 -1.37695e-13 -1.98251e-13 0 2.27372e-16
1115 14 0.001 -0.0142099 0.00384786 -0.0382721 4.7658e-13 1.91181e-14 -2.34538e-13 0 2.21735e-16
1113 14 0.001 -0.0123358 0.00347137 -0.0377427 4.33263e-13 -1.33213e-13 -2.00887e-13 0 2.27372e-16
1114 14 0.001 -0.0132493 0.00377764 -0.0380069 4.65026e-13 -7.34924e-14 -2.28674e-13 0 2.325e-16
1511 16 0.001 0.00579015 0.00384786 -0.0382721 4.78736e-13 1.73944e-14 -2.33845e-13 0 2.21735e-16
1510 16 0.001 0.00675073 0.00377764 -0.0380069 4.6514e-13 -6.87545e-14 -2.28985e-13 0 2.325e-16
1509 16 0.001 0.00766421 0.00347137 -0.0377427 4.27703e-13 -1.37347e-13 -2.01697e-13 0 2.27372e-16
1907 18 0.001 0.0257901 0.00384786 -0.0382721 4.66782e-13 1.70788e-14 -2.36842e-13 0 2.21735e-16
1906 18 0.001 0.0267507 0.00377764 -0.0380069 4.58415e-13 -6.65083e-14 -2.31205e-13 0 2.325e-16
1905 18 0.001 0.0276642 0.00347137 -0.0377427 4.3831e-13 -1.41766e-13 -1.98348e-13 0 2.27372e-16
333 11 0.001 -0.0515545 -0.00298114 -0.0356324 -2.76723e-13 -1.55151e-13 3.3363e-15 0 6.39401e-17
334 11 0.001 -0.0508935 -0.00228072 -0.0358981 -5.98514e-14 -2.46432e-13 1.48566e-15 0 6.77561e-17
709 12 0.001 -0.0315541 -0.00298083 -0.0356322 -2.2558e-13 -1.54785e-13 7.9437e-15 0 6.9632e-17
710 12 0.001 -0.0308932 -0.00228033 -0.035898 -1.46439e-13 -2.00198e-13 2.02915e-14 0 7.33843e-17
1105 14 0.001 -0.0115541 -0.00298083 -0.0356322 -2.39108e-13 -1.58978e-13 1.15967e-14 0 6.9632e-17
1106 14 0.001 -0.0108932 -0.00228033 -0.035898 -1.28525e-13 -1.99055e-13 1.68788e-14 0 7.33843e-17
1501 16 0.001 0.00844595 -0.00298083 -0.0356322 -2.44839e-13 -1.51988e-13 1.16564e-14 0 6.9632e-17
1502 16 0.001 0.00910679 -0.00228033 -0.035898 -1.20263e-13 -2.04319e-13 1.65755e-14 0 7.33843e-17
1897 18 0.001 0.0284459 -0.00298083 -0.0356322 -2.35728e-13 -1.62618e-13 1.16484e-14 0 6.9632e-17
1898 18 0.001 0.0291068 -0.00228033 -0.035898 -1.32107e-13 -1.86063e-13 1.48705e-14 0 7.33843e-17
335 11 0.001 -0.0504268 -0.00143814 -0.0361632 -2.07854e-13 -2.75222e-13 2.51174e-14 0 7.77265e-17
336 11 0.001 -0.0501835 -0.000505957 -0.0364274 1.65374e-13 -3.34369e-13 -1.73031e-15 0 9.42471e-17
711 12 0.001 -0.0304266 -0.00143769 -0.036163 -6.01937e-14 -2.82238e-13 2.06723e-14 0 8.35032e-17
712 12 0.001 -0.0301834 -0.000505473 -0.0364273 2.42396e-14 -2.80481e-13 9.70669e-15 0 1.00351e-16
1107 14 0.001 -0.0104266 -0.00143769 -0.036163 -7.70595e-14 -2.7214e-13 1.98579e-14 0 8.35032e-17
1108 14 0.001 -0.0101834 -0.000505473 -0.0364273 5.73141e-14 -2.84557e-13 9.24291e-15 0 1.00351e-16
1503 16 0.001 0.00957339 -0.00143769 -0.036163 -7.76095e-14 -2.70299e-13 1.94699e-14 0 8.35032e-17
1504 16 0.001 0.00981658 -0.000505473 -0.0364273 5.41141e-14 -2.8598e-13 9.99049e-15 0 1.00351e-16
1899 18 0.001 0.0295734 -0.00143769 -0.036163 -6.16937e-14 -2.87006e-13 2.24774e-14 0 8.35032e-17
1900 18 0.001 0.0298166 -0.000505473 -0.0364273 1.10659e-14 -2.80982e-13 9.36522e-15 0 1.00351e-16
337 11 0.001 -0.0501788 0.000457643 -0.036691 2.49119e-14 -3.01262e-13 -3.79215e-14 0 1.17094e-16
713 12 0.001 -0.0301789 0.000458127 -0.0366909 1.43574e-13 -2.7254e-13 -3.21984e-14 0 1.2366e-16
1109 14 0.001 -0.0101789 0.000458127 -0.0366909 1.01627e-13 -2.84431e-13 -2.86994e-14 0 1.2366e-16
1505 16 0.001 0.00982114 0.000458127 -0.0366909 1.0171e-13 -2.83714e-13 -2.91716e-14 0 1.2366e-16
1901 18 0.001 0.0298211 0.000458127 -0.0366909 1.63127e-13 -2.80845e-13 -2.79969e-14 0 1.2366e-16
328 11 0.001 -0.0560628 -0.00326321 -0.0343008 -3.37307e-13 2.63509e-13 -1.69294e-13 0 1.16366e-16
329 11 0.001 -0.0551911 -0.0036723 -0.0345667 -2.97491e-13 1.80071e-13 -1.60908e-13 0 9.91289e-17
330 11 0.001 -0.0542452 -0.0038524 -0.0348331 -3.77286e-13 8.40989e-14 -1.00596e-13 0 8.40962e-17
331 11 0.001 -0.0532843 -0.00379227 -0.0350996 -3.29937e-13 -7.24459e-15 -7.43418e-14 0 7.26614e-17
332 11 0.001 -0.0523683 -0.00349568 -0.0353661 -2.69312e-13 -8.79895e-14 -3.71755e-14 0 6.5744e-17
704 12 0.001 -0.0360623 -0.00326352 -0.0343006 -2.92019e-13 2.43405e-13 -1.69395e-13 0 1.25018e-16
705 12 0.001 -0.0351906 -0.00367249 -0.0345665 -3.05092e-13 1.64665e-13 -1.42541e-13 0 1.07004e-16
706 12 0.001 -0.0342447 -0.00385246 -0.0348329 -2.94376e-13 8.01115e-14 -1.09415e-13 0 9.12202e-17
707 12 0.001 -0.0332838 -0.0037922 -0.0350995 -3.80704e-13 -8.49006e-16 -4.5187e-14 0 7.91318e-17
708 12 0.001 -0.0323678 -0.00349549 -0.035366 -2.03378e-13 -6.92736e-14 -4.155e-14 0 7.17223e-17
1100 14 0.001 -0.0160623 -0.00326352 -0.0343006 -2.92549e-13 2.41577e-13 -1.69108e-13 0 1.25018e-16
1101 14 0.001 -0.0151906 -0.00367249 -0.0345665 -3.05002e-13 1.6625e-13 -1.4191e-13 0 1.07004e-16
1102 14 0.001 -0.0142447 -0.00385246 -0.0348329 -3.03518e-13 9.0231e-14 -1.07126e-13 0 9.12202e-17
1104 14 0.001 -0.0123678 -0.00349549 -0.035366 -2.23667e-13 -7.22032e-14 -3.60929e-14 0 7.17223e-17
1103 14 0.001 -0.0132838 -0.0037922 -0.0350995 -3.52732e-13 -5.31312e-15 -5.23177e-14 0 7.91318e-17
1496 16 0.001 0.00393765 -0.00326352 -0.0343006 -2.83676e-13 2.41456e-13 -1.71511e-13 0 1.25018e-16
1497 16 0.001 0.00480945 -0.00367249 -0.0345665 -3.22146e-13 1.61285e-13 -1.37447e-13 0 1.07004e-16
1498 16 0.001 0.00575532 -0.00385246 -0.0348329 -2.97642e-13 9.91147e-14 -1.0937e-13 0 9.12202e-17
1499 16 0.001 0.00671622 -0.0037922 -0.0350995 -3.41271e-13 -9.43096e-15 -5.42537e-14 0 7.91318e-17
1500 16 0.001 0.00763216 -0.00349549 -0.035366 -2.32251e-13 -7.63717e-14 -3.40387e-14 0 7.17223e-17
1892 18 0.001 0.0239377 -0.00326352 -0.0343006 -2.85982e-13 2.46236e-13 -1.6984e-13 0 1.25018e-16
1893 18 0.001 0.0248094 -0.00367249 -0.0345665 -3.16278e-13 1.69696e-13 -1.39072e-13 0 1.07004e-16
1894 18 0.001 0.0257553 -0.00385246 -0.0348329 -3.03759e-13 7.76333e-14 -1.06901e-13 0 9.12202e-17
1895 18 0.001 0.0267162 -0.0037922 -0.0350995 -3.45109e-13 9.84046e-15 -5.49822e-14 0 7.91318e-17
1896 18 0.001 0.0276322 -0.00349549 -0.035366 -2.24243e-13 -7.76038e-14 -3.58188e-14 0 7.17223e-17
327 11 0.001 -0.056806 -0.00265063 -0.0340353 -2.8378e-13 3.14126e-13 -1.92404e-13 0 1.34002e-16
703 12 0.001 -0.0368056 -0.00265105 -0.0340352 -2.22806e-13 3.13113e-13 -1.83885e-13 0 1.43389e-16
1099 14 0.001 -0.0168056 -0.00265105 -0.0340352 -2.44168e-13 3.01148e-13 -1.83929e-13 0 1.43389e-16