ITEM: TIMESTEP
6300000
ITEM: NUMBER OF ATOMS
1970
ITEM: BOX BOUNDS ff ff ff
-6.0000000000000005e-02 6.0000000000000005e-02
-6.0000000000000001e-03 6.0000000000000001e-03
-5.5000000000000000e-02 5.5000000000000000e-02
ITEM: ATOMS id type radius x y z fx fy fz c_bendingE c_stretchingE
384 11 0.001 -0.0508244 -0.00263471 -0.0489916 -5.38453e-13 6.35916e-14 -2.37392e-13 0 2.9997e-17
385 11 0.001 -0.0503235 -0.00183323 -0.0493153 -2.50745e-13 3.83735e-14 -1.67625e-13 0 9.04049e-15
760 12 0.001 -0.0308242 -0.0026347 -0.0489915 -4.56149e-13 5.42153e-14 -2.15333e-13 0 3.10167e-17
761 12 0.001 -0.0303234 -0.0018332 -0.0493152 -2.7854e-13 4.85418e-14 -1.45997e-13 0 8.99039e-15
1156 14 0.001 -0.0108242 -0.0026347 -0.0489915 -4.44202e-13 4.15978e-14 -2.12307e-13 0 3.10167e-17
1157 14 0.001 -0.0103234 -0.0018332 -0.0493152 -3.02288e-13 5.32938e-14 -1.45424e-13 0 8.99039e-15
1552 16 0.001 0.00917576 -0.0026347 -0.0489915 -4.46614e-13 5.96677e-14 -2.19899e-13 0 3.10167e-17
1553 16 0.001 0.00967657 -0.0018332 -0.0493152 -2.99177e-13 3.95599e-14 -1.39831e-13 0 8.99039e-15
1948 18 0.001 0.0291758 -0.0026347 -0.0489915 -4.62671e-13 5.84509e-14 -2.18255e-13 0 3.10167e-17
1949 18 0.001 0.0296766 -0.0018332 -0.0493152 -2.80002e-13 3.96309e-14 -1.41521e-13 0 8.99039e-15
2 2 0.001 -0.05 -4.31175e-17 -0.05 -3.08091e-06 3.39405e-06 2.05264e-06 0 7.78147e-15
386 11 0.001 -0.050043 -0.000935861 -0.0496531 -2.18886e-13 -5.8204e-14 -4.49375e-14 0 1.68019e-14
762 12 0.001 -0.030043 -0.000935843 -0.0496531 -1.79814e-13 -3.61564e-14 -4.34762e-14 0 1.66946e-14
4 4 0.001 -0.03 -4.31175e-17 -0.05 -3.09529e-06 3.43215e-06 2.04179e-06 0 7.72638e-15
6 6 0.001 -0.01 -4.31175e-17 -0.05 -3.09529e-06 3.43215e-06 2.04179e-06 0 7.72638e-15
1158 14 0.001 -0.010043 -0.000935843 -0.0496531 -1.63789e-13 -3.57341e-14 -4.46304e-14 0 1.66946e-14
8 8 0.001 0.01 -4.31175e-17 -0.05 -3.09529e-06 3.43215e-06 2.04179e-06 0 7.72638e-15
1554 16 0.001 0.00995701 -0.000935843 -0.0496531 -1.64848e-13 -3.48864e-14 -4.5277e-14 0 1.66946e-14
10 10 0.001 0.03 -4.31175e-17 -0.05 -3.09529e-06 3.43215e-06 2.04179e-06 0 7.72638e-15
1950 18 0.001 0.029957 -0.000935843 -0.0496531 -1.75459e-13 -3.82806e-14 -4.34208e-14 0 1.66946e-14
379 11 0.001 -0.055195 -0.00377125 -0.0476556 -7.1914e-13 6.30454e-13 -6.2916e-13 0 1.14882e-15
380 11 0.001 -0.0542513 -0.00400355 -0.0478866 -7.70067e-13 4.89428e-13 -5.90523e-13 0 9.85535e-16
381 11 0.001 -0.0532833 -0.0039969 -0.0481336 -6.8986e-13 3.75083e-13 -5.47337e-13 0 6.97235e-16
382 11 0.001 -0.0523517 -0.00375306 -0.0483995 -7.42955e-13 2.47655e-13 -4.36189e-13 0 3.70299e-16
383 11 0.001 -0.0515147 -0.0032888 -0.0486856 -5.43472e-13 1.25653e-13 -3.54084e-13 0 1.15212e-16
755 12 0.001 -0.0351949 -0.00377138 -0.0476555 -7.21901e-13 5.99159e-13 -5.84145e-13 0 1.15234e-15
756 12 0.001 -0.0342511 -0.00400365 -0.0478864 -7.22396e-13 4.73772e-13 -5.58121e-13 0 9.85595e-16
757 12 0.001 -0.0332831 -0.00399696 -0.0481334 -6.80344e-13 3.54983e-13 -4.99379e-13 0 6.9419e-16
758 12 0.001 -0.0323515 -0.00375309 -0.0483993 -6.48823e-13 2.50386e-13 -4.16524e-13 0 3.65689e-16
759 12 0.001 -0.0315145 -0.0032888 -0.0486855 -5.77686e-13 1.2366e-13 -3.08129e-13 0 1.11724e-16
1151 14 0.001 -0.0151949 -0.00377138 -0.0476555 -6.75088e-13 6.0108e-13 -5.94228e-13 0 1.15234e-15
1152 14 0.001 -0.0142511 -0.00400365 -0.0478864 -7.50699e-13 4.75007e-13 -5.5189e-13 0 9.85595e-16
1153 14 0.001 -0.0132831 -0.00399696 -0.0481334 -6.6404e-13 3.56821e-13 -5.04326e-13 0 6.9419e-16
1154 14 0.001 -0.0123515 -0.00375309 -0.0483993 -6.7387e-13 2.39609e-13 -4.07298e-13 0 3.65689e-16
1155 14 0.001 -0.0115145 -0.0032888 -0.0486855 -5.66562e-13 1.37864e-13 -3.1534e-13 0 1.11724e-16
1547 16 0.001 0.00480513 -0.00377138 -0.0476555 -6.8339e-13 6.03481e-13 -5.92208e-13 0 1.15234e-15
1548 16 0.001 0.00574892 -0.00400365 -0.0478864 -7.30024e-13 4.7129e-13 -5.56397e-13 0 9.85595e-16
1549 16 0.001 0.00671689 -0.00399696 -0.0481334 -6.89022e-13 3.59727e-13 -4.98515e-13 0 6.9419e-16
1550 16 0.001 0.00764847 -0.00375309 -0.0483993 -6.54835e-13 2.39105e-13 -4.1264e-13 0 3.65689e-16
1551 16 0.001 0.00848547 -0.0032888 -0.0486855 -5.71574e-13 1.31491e-13 -3.10257e-13 0 1.11724e-16
1943 18 0.001 0.0248051 -0.00377138 -0.0476555 -7.06018e-13 6.05764e-13 -5.8717e-13 0 1.15234e-15
1944 18 0.001 0.0257489 -0.00400365 -0.0478864 -6.88156e-13 4.6512e-13 -5.66426e-13 0 9.85595e-16
1945 18 0.001 0.0267169 -0.00399696 -0.0481334 -7.27172e-13 3.63709e-13 -4.88828e-13 0 6.9419e-16
1946 18 0.001 0.0276485 -0.00375309 -0.0483993 -6.28731e-13 2.36755e-13 -4.1958e-13 0 3.65689e-16
1947 18 0.001 0.0284855 -0.0032888 -0.0486855 -5.75982e-13 1.34956e-13 -3.08615e-13 0 1.11724e-16
378 11 0.001 -0.0560555 -0.00331343 -0.0474366 -6.76492e-13 7.36877e-13 -6.12473e-13 0 1.14912e-15
754 12 0.001 -0.0360554 -0.00331359 -0.0474365 -6.16188e-13 7.01769e-13 -5.923e-13 0 1.1555e-15
1150 14 0.001 -0.0160554 -0.00331359 -0.0474365 -6.27914e-13 6.93008e-13 -5.89782e-13 0 1.1555e-15
1546 16 0.001 0.00394462 -0.00331359 -0.0474365 -6.38507e-13 6.95502e-13 -5.88038e-13 0 1.1555e-15
1942 18 0.001 0.0239446 -0.00331359 -0.0474365 -6.3735e-13 6.95206e-13 -5.88453e-13 0 1.1555e-15
376 11 0.001 -0.0573202 -0.00184494 -0.0470144 -4.79845e-13 8.88304e-13 -4.84477e-13 0 7.61723e-16
377 11 0.001 -0.0567789 -0.00265787 -0.0472246 -5.57095e-13 8.19172e-13 -5.75068e-13 0 1.00178e-15
753 12 0.001 -0.0367788 -0.00265806 -0.0472245 -5.20093e-13 7.92599e-13 -5.45639e-13 0 1.00988e-15
752 12 0.001 -0.0373201 -0.00184515 -0.0470143 -4.79941e-13 8.3141e-13 -4.65183e-13 0 7.70242e-16
1149 14 0.001 -0.0167788 -0.00265806 -0.0472245 -5.56663e-13 7.98821e-13 -5.41338e-13 0 1.00988e-15
1148 14 0.001 -0.0173201 -0.00184515 -0.0470143 -4.18773e-13 8.38556e-13 -4.67568e-13 0 7.70242e-16
1544 16 0.001 0.00267987 -0.00184515 -0.0470143 -4.24133e-13 8.44294e-13 -4.66274e-13 0 7.70242e-16
1545 16 0.001 0.00322119 -0.00265806 -0.0472245 -5.40509e-13 7.89813e-13 -5.44726e-13 0 1.00988e-15
1941 18 0.001 0.0232212 -0.00265806 -0.0472245 -5.31308e-13 7.93152e-13 -5.45283e-13 0 1.00988e-15
1940 18 0.001 0.0226799 -0.00184515 -0.0470143 -4.38693e-13 8.44901e-13 -4.64714e-13 0 7.70242e-16
375 11 0.001 -0.0576459 -0.000924926 -0.0468011 -2.15549e-13 9.13343e-13 -3.70491e-13 0 4.98761e-16
751 12 0.001 -0.0376459 -0.000925141 -0.0468011 -2.35225e-13 8.70662e-13 -3.60063e-13 0 5.06518e-16
1147 14 0.001 -0.0176459 -0.000925141 -0.0468011 -3.07616e-13 8.65229e-13 -3.60703e-13 0 5.06518e-16
1543 16 0.001 0.00235409 -0.000925141 -0.0468011 -3.04639e-13 8.6402e-13 -3.60452e-13 0 5.06518e-16
1939 18 0.001 0.0223541 -0.000925141 -0.0468011 -2.95594e-13 8.61711e-13 -3.61446e-13 0 5.06518e-16
373 11 0.001 -0.0575865 0.00100544 -0.0463491 9.9379e-14 8.13806e-13 -9.0846e-14 0 1.16268e-16
374 11 0.001 -0.0577364 4.52019e-05 -0.0465805 -2.89503e-13 8.87084e-13 -2.53809e-13 0 2.72546e-16
749 12 0.001 -0.0375866 0.00100524 -0.0463491 2.73016e-14 7.84387e-13 -9.77735e-14 0 1.20422e-16
750 12 0.001 -0.0377364 4.49879e-05 -0.0465804 -2.12963e-13 8.54251e-13 -2.29781e-13 0 2.78704e-16
1145 14 0.001 -0.0175866 0.00100524 -0.0463491 -4.93855e-14 7.94148e-13 -1.06484e-13 0 1.20422e-16
1146 14 0.001 -0.0177364 4.49879e-05 -0.0465804 -1.3642e-13 8.47524e-13 -2.26362e-13 0 2.78704e-16
1541 16 0.001 0.00241343 0.00100524 -0.0463491 -1.77971e-14 7.95041e-13 -1.01129e-13 0 1.20422e-16
1542 16 0.001 0.00226363 4.49879e-05 -0.0465804 -1.53654e-13 8.50717e-13 -2.27746e-13 0 2.78704e-16
1937 18 0.001 0.0224134 0.00100524 -0.0463491 -4.92834e-15 7.92612e-13 -1.01567e-13 0 1.20422e-16
1938 18 0.001 0.0222636 4.49879e-05 -0.0465804 -1.63705e-13 8.5011e-13 -2.28303e-13 0 2.78704e-16
372 11 0.001 -0.0572065 0.00189652 -0.0461051 6.7025e-14 7.64516e-13 1.60223e-14 0 3.31639e-17
748 12 0.001 -0.0372065 0.00189634 -0.0461051 3.86046e-14 6.98613e-13 1.90044e-14 0 3.53298e-17
1144 14 0.001 -0.0172065 0.00189634 -0.0461051 1.17077e-13 6.952e-13 3.49741e-14 0 3.53298e-17
1540 16 0.001 0.00279345 0.00189634 -0.0461051 8.78326e-14 6.90572e-13 2.75709e-14 0 3.53298e-17
1936 18 0.001 0.0227935 0.00189634 -0.0461051 9.16329e-14 6.98914e-13 3.22323e-14 0 3.53298e-17
371 11 0.001 -0.0566205 0.00266362 -0.0458478 2.30242e-13 6.01146e-13 1.31639e-13 0 4.36619e-18
747 12 0.001 -0.0366206 0.00266347 -0.0458478 2.7364e-13 5.85788e-13 1.46094e-13 0 4.91143e-18
1143 14 0.001 -0.0166206 0.00266347 -0.0458478 2.01848e-13 5.88453e-13 1.27703e-13 0 4.91143e-18
1539 16 0.001 0.00337936 0.00266347 -0.0458478 2.14096e-13 5.89227e-13 1.31508e-13 0 4.91143e-18
1935 18 0.001 0.0233794 0.00266347 -0.0458478 1.94635e-13 5.81055e-13 1.24683e-13 0 4.91143e-18
370 11 0.001 -0.0558657 0.00325967 -0.0455776 3.21413e-13 4.55936e-13 2.02294e-13 0 2.70709e-18
369 11 0.001 -0.0549894 0.00364822 -0.0452963 3.74723e-13 2.9318e-13 2.35965e-13 0 5.94142e-18
368 11 0.001 -0.0540464 0.00380563 -0.0450065 4.21076e-13 1.27893e-13 2.30339e-13 0 4.42343e-18
367 11 0.001 -0.0530957 0.00372252 -0.0447111 3.95148e-13 -7.56895e-14 1.73349e-13 0 1.36686e-18
745 12 0.001 -0.0349896 0.00364815 -0.0452963 3.48275e-13 2.73751e-13 2.38598e-13 0 5.07162e-18
746 12 0.001 -0.0358658 0.00325956 -0.0455776 2.50934e-13 4.44353e-13 1.94046e-13 0 2.21836e-18
744 12 0.001 -0.0340466 0.00380561 -0.0450064 3.93853e-13 1.1157e-13 2.34739e-13 0 3.74367e-18
743 12 0.001 -0.0330959 0.00372256 -0.0447111 3.49624e-13 -5.58248e-14 1.70679e-13 0 1.25655e-18
1142 14 0.001 -0.0158658 0.00325956 -0.0455776 2.80456e-13 4.37046e-13 2.02086e-13 0 2.21836e-18
1140 14 0.001 -0.0140466 0.00380561 -0.0450064 3.62099e-13 1.169e-13 2.25221e-13 0 3.74367e-18
1141 14 0.001 -0.0149896 0.00364815 -0.0452963 3.63426e-13 2.75093e-13 2.4257e-13 0 5.07162e-18
1139 14 0.001 -0.0130959 0.00372256 -0.0447111 3.73879e-13 -6.05077e-14 1.79036e-13 0 1.25655e-18
1538 16 0.001 0.00413415 0.00325956 -0.0455776 2.78657e-13 4.35646e-13 2.01156e-13 0 2.21836e-18
1537 16 0.001 0.00501044 0.00364815 -0.0452963 3.65857e-13 2.79789e-13 2.43632e-13 0 5.07162e-18
1536 16 0.001 0.00595342 0.00380561 -0.0450064 3.72359e-13 1.13404e-13 2.28173e-13 0 3.74367e-18
1535 16 0.001 0.00690413 0.00372256 -0.0447111 3.57931e-13 -5.65064e-14 1.73986e-13 0 1.25655e-18
1933 18 0.001 0.0250104 0.00364815 -0.0452963 3.47196e-13 2.74342e-13 2.38775e-13 0 5.07162e-18
1934 18 0.001 0.0241342 0.00325956 -0.0455776 3.05036e-13 4.43966e-13 2.08785e-13 0 2.21836e-18
1932 18 0.001 0.0259534 0.00380561 -0.0450064 3.68977e-13 1.11467e-13 2.26539e-13 0 3.74367e-18
1931 18 0.001 0.0269041 0.00372256 -0.0447111 3.6309e-13 -4.79156e-14 1.7498e-13 0 1.25655e-18
361 11 0.001 -0.0501575 -0.000591722 -0.0429812 -1.36463e-13 -6.82645e-13 -3.84382e-13 0 2.19374e-16
737 12 0.001 -0.0301574 -0.000591529 -0.0429812 -1.11846e-13 -6.28544e-13 -3.78357e-13 0 2.20981e-16
1133 14 0.001 -0.0101574 -0.000591529 -0.0429812 -1.2775e-13 -6.25231e-13 -3.78888e-13 0 2.20981e-16
1529 16 0.001 0.00984255 -0.000591529 -0.0429812 -1.88211e-13 -6.2649e-13 -3.79427e-13 0 2.20981e-16
1925 18 0.001 0.0298426 -0.000591529 -0.0429812 -1.2761e-13 -6.32361e-13 -3.78138e-13 0 2.20981e-16
362 11 0.001 -0.0501278 0.000368646 -0.0432548 -1.9022e-14 -6.54462e-13 -3.2353e-13 0 1.83298e-16
363 11 0.001 -0.0503374 0.00130416 -0.0435356 5.60613e-14 -6.10417e-13 -2.36365e-13 0 1.30023e-16
738 12 0.001 -0.0301278 0.00036884 -0.0432547 -8.61314e-14 -6.35778e-13 -3.11825e-13 0 1.85043e-16
739 12 0.001 -0.0303375 0.00130435 -0.0435356 1.08916e-13 -5.66532e-13 -2.24898e-13 0 1.31815e-16
1134 14 0.001 -0.0101278 0.00036884 -0.0432547 -7.37182e-14 -6.36282e-13 -3.10917e-13 0 1.85043e-16
1135 14 0.001 -0.0103375 0.00130435 -0.0435356 9.81525e-14 -5.66542e-13 -2.26791e-13 0 1.31815e-16
1530 16 0.001 0.00987218 0.00036884 -0.0432547 -8.75989e-15 -6.32971e-13 -3.08526e-13 0 1.85043e-16
1531 16 0.001 0.00966251 0.00130435 -0.0435356 6.6412e-14 -5.72439e-13 -2.2775e-13 0 1.31815e-16
1926 18 0.001 0.0298722 0.00036884 -0.0432547 -6.69719e-14 -6.37226e-13 -3.10463e-13 0 1.85043e-16
1927 18 0.001 0.0296625 0.00130435 -0.0435356 1.05097e-13 -5.58016e-13 -2.26807e-13 0 1.31815e-16
365 11 0.001 -0.0514058 0.00287108 -0.0441166 3.03048e-13 -3.92074e-13 -1.60773e-14 0 3.08631e-17
364 11 0.001 -0.0507727 0.00215611 -0.0438233 2.25816e-13 -4.93387e-13 -1.24251e-13 0 7.4431e-17
740 12 0.001 -0.0307728 0.00215627 -0.0438233 1.96657e-13 -4.8189e-13 -1.14245e-13 0 7.60699e-17
741 12 0.001 -0.0314059 0.00287121 -0.0441166 2.65367e-13 -3.68051e-13 -8.01588e-15 0 3.20919e-17
1136 14 0.001 -0.0107728 0.00215627 -0.0438233 2.03055e-13 -4.80599e-13 -1.12698e-13 0 7.60699e-17
1137 14 0.001 -0.0114059 0.00287121 -0.0441166 2.60057e-13 -3.67973e-13 -9.41428e-15 0 3.20919e-17
1533 16 0.001 0.00859408 0.00287121 -0.0441166 2.8004e-13 -3.58279e-13 -6.49173e-15 0 3.20919e-17
1532 16 0.001 0.00922722 0.00215627 -0.0438233 1.96747e-13 -4.80669e-13 -1.14982e-13 0 7.60699e-17
1928 18 0.001 0.0292272 0.00215627 -0.0438233 1.74199e-13 -4.97117e-13 -1.15815e-13 0 7.60699e-17
1929 18 0.001 0.0285941 0.00287121 -0.0441166 2.92053e-13 -3.4361e-13 -6.03478e-15 0 3.20919e-17
366 11 0.001 -0.0521967 0.00340434 -0.0444134 4.0002e-13 -2.27502e-13 1.07539e-13 0 7.09033e-18
742 12 0.001 -0.0321969 0.00340442 -0.0444134 3.62523e-13 -2.15899e-13 1.07422e-13 0 7.68906e-18
1138 14 0.001 -0.0121969 0.00340442 -0.0444134 3.60766e-13 -2.15949e-13 1.06285e-13 0 7.68906e-18
1534 16 0.001 0.00780314 0.00340442 -0.0444134 3.55291e-13 -2.24379e-13 1.06392e-13 0 7.68906e-18
1930 18 0.001 0.0278031 0.00340442 -0.0444134 3.53667e-13 -2.38943e-13 1.07813e-13 0 7.68906e-18
355 11 0.001 -0.054317 -0.003843 -0.0414418 -5.67518e-13 -6.21824e-14 -1.35177e-13 0 5.13059e-17
356 11 0.001 -0.053351 -0.00380465 -0.0416938 -5.41924e-13 -1.91651e-13 -2.32572e-13 0 8.44614e-17
357 11 0.001 -0.0524244 -0.00352884 -0.0419454 -5.71589e-13 -3.56613e-13 -2.95906e-13 0 1.27509e-16
358 11 0.001 -0.0515949 -0.00303281 -0.0421983 -4.82692e-13 -4.56131e-13 -3.74156e-13 0 1.73412e-16
731 12 0.001 -0.0343168 -0.00384303 -0.0414417 -4.88555e-13 -4.15416e-14 -1.39792e-13 0 5.2742e-17
732 12 0.001 -0.0333508 -0.00380463 -0.0416937 -5.47809e-13 -2.10214e-13 -2.06849e-13 0 8.59584e-17
733 12 0.001 -0.0324242 -0.00352877 -0.0419454 -5.6381e-13 -3.3078e-13 -2.8331e-13 0 1.29e-16
734 12 0.001 -0.0315948 -0.0030327 -0.0421983 -4.20275e-13 -4.43315e-13 -3.67695e-13 0 1.74861e-16
1127 14 0.001 -0.0143168 -0.00384303 -0.0414417 -5.32675e-13 -5.20893e-14 -1.27915e-13 0 5.2742e-17
1128 14 0.001 -0.0133508 -0.00380463 -0.0416937 -5.27107e-13 -1.97411e-13 -2.13142e-13 0 8.59584e-17
1129 14 0.001 -0.0124242 -0.00352877 -0.0419454 -5.18914e-13 -3.32728e-13 -2.93622e-13 0 1.29e-16
1130 14 0.001 -0.0115948 -0.0030327 -0.0421983 -4.57606e-13 -4.42805e-13 -3.59118e-13 0 1.74861e-16
1523 16 0.001 0.00568323 -0.00384303 -0.0414417 -5.39587e-13 -4.47188e-14 -1.26353e-13 0 5.2742e-17
1524 16 0.001 0.00664918 -0.00380463 -0.0416937 -5.23041e-13 -2.04482e-13 -2.14124e-13 0 8.59584e-17
1525 16 0.001 0.00757578 -0.00352877 -0.0419454 -5.13415e-13 -3.31798e-13 -2.94607e-13 0 1.29e-16
1526 16 0.001 0.00840521 -0.0030327 -0.0421983 -4.74464e-13 -4.42124e-13 -3.55988e-13 0 1.74861e-16
1919 18 0.001 0.0256832 -0.00384303 -0.0414417 -5.37906e-13 -5.48802e-14 -1.27269e-13 0 5.2742e-17
1920 18 0.001 0.0266492 -0.00380463 -0.0416937 -5.08216e-13 -1.9587e-13 -2.17909e-13 0 8.59584e-17
1921 18 0.001 0.0275758 -0.00352877 -0.0419454 -5.28328e-13 -3.43552e-13 -2.8948e-13 0 1.29e-16
1922 18 0.001 0.0284052 -0.0030327 -0.0421983 -4.91816e-13 -4.33029e-13 -3.54641e-13 0 1.74861e-16
359 11 0.001 -0.0509144 -0.0023477 -0.0424542 -3.86099e-13 -5.89904e-13 -4.05364e-13 0 2.11072e-16
360 11 0.001 -0.0504251 -0.00151657 -0.0427147 -3.35157e-13 -6.1646e-13 -4.18769e-13 0 2.28854e-16
735 12 0.001 -0.0309143 -0.00234754 -0.0424541 -3.96393e-13 -5.47971e-13 -3.91978e-13 0 2.12501e-16
736 12 0.001 -0.030425 -0.00151639 -0.0427146 -3.09972e-13 -6.0063e-13 -4.05973e-13 0 2.30335e-16
1131 14 0.001 -0.0109143 -0.00234754 -0.0424541 -3.96289e-13 -5.51115e-13 -3.93257e-13 0 2.12501e-16
1132 14 0.001 -0.010425 -0.00151639 -0.0427146 -2.93652e-13 -6.02704e-13 -4.06098e-13 0 2.30335e-16
1527 16 0.001 0.00908574 -0.00234754 -0.0424541 -3.83197e-13 -5.49195e-13 -3.96633e-13 0 2.12501e-16
1528 16 0.001 0.00957496 -0.00151639 -0.0427146 -2.73123e-13 -6.04846e-13 -4.04718e-13 0 2.30335e-16
1923 18 0.001 0.0290857 -0.00234754 -0.0424541 -3.45502e-13 -5.53794e-13 -4.00612e-13 0 2.12501e-16
1924 18 0.001 0.029575 -0.00151639 -0.0427146 -3.21509e-13 -5.96977e-13 -4.03548e-13 0 2.30335e-16
353 11 0.001 -0.0561274 -0.00321302 -0.0409322 -3.77989e-13 2.1863e-13 -2.23547e-14 0 1.9019e-17
354 11 0.001 -0.055262 -0.00364156 -0.0411882 -5.0639e-13 7.02679e-14 -6.97954e-14 0 3.00323e-17
729 12 0.001 -0.0361272 -0.00321316 -0.0409321 -3.72308e-13 1.77001e-13 -4.65655e-15 0 2.02803e-17
730 12 0.001 -0.0352618 -0.00364164 -0.0411882 -4.68556e-13 5.34525e-14 -6.06563e-14 0 3.13651e-17
1125 14 0.001 -0.0161272 -0.00321316 -0.0409321 -3.61049e-13 1.88803e-13 -4.35648e-15 0 2.02803e-17
1126 14 0.001 -0.0152618 -0.00364164 -0.0411882 -4.66014e-13 5.62156e-14 -6.18916e-14 0 3.13651e-17
1521 16 0.001 0.0038728 -0.00321316 -0.0409321 -3.84841e-13 1.75999e-13 -1.74824e-15 0 2.02803e-17
1522 16 0.001 0.00473816 -0.00364164 -0.0411882 -4.53267e-13 5.84812e-14 -6.40593e-14 0 3.13651e-17
1917 18 0.001 0.0238728 -0.00321316 -0.0409321 -3.87316e-13 1.83699e-13 5.81339e-16 0 2.02803e-17
1918 18 0.001 0.0247382 -0.00364164 -0.0411882 -4.45945e-13 6.32479e-14 -6.55903e-14 0 3.13651e-17
351 11 0.001 -0.0574121 -0.00179449 -0.0404111 -1.09066e-13 4.10429e-13 2.78401e-15 0 1.87026e-17
352 11 0.001 -0.0568592 -0.00258424 -0.0406731 -3.62099e-13 3.0854e-13 2.687e-14 0 1.56694e-17
727 12 0.001 -0.037412 -0.0017947 -0.0404111 -1.4646e-13 3.70828e-13 2.71159e-14 0 2.02978e-17
728 12 0.001 -0.036859 -0.00258441 -0.0406731 -3.09725e-13 3.09296e-13 2.60291e-14 0 1.69899e-17
1123 14 0.001 -0.017412 -0.0017947 -0.0404111 -1.30175e-13 3.77307e-13 2.46541e-14 0 2.02978e-17
1124 14 0.001 -0.016859 -0.00258441 -0.0406731 -3.25915e-13 2.89771e-13 2.52485e-14 0 1.69899e-17
1519 16 0.001 0.00258803 -0.0017947 -0.0404111 -1.56451e-13 3.78323e-13 3.01386e-14 0 2.02978e-17
1520 16 0.001 0.00314095 -0.00258441 -0.0406731 -2.97811e-13 3.04047e-13 2.25263e-14 0 1.69899e-17
1915 18 0.001 0.022588 -0.0017947 -0.0404111 -1.23184e-13 3.79702e-13 2.57815e-14 0 2.02978e-17
1916 18 0.001 0.023141 -0.00258441 -0.0406731 -3.21351e-13 2.94408e-13 2.44366e-14 0 1.69899e-17
350 11 0.001 -0.0577517 -0.000893055 -0.0401465 -1.19502e-13 4.75053e-13 1.21713e-15 0 2.89894e-17
726 12 0.001 -0.0377517 -0.000893282 -0.0401464 -5.40903e-14 4.33185e-13 1.46475e-15 0 3.11114e-17
1122 14 0.001 -0.0177517 -0.000893282 -0.0401464 -6.60045e-14 4.37051e-13 5.23022e-15 0 3.11114e-17
1518 16 0.001 0.0022483 -0.000893282 -0.0401464 -3.95291e-14 4.19938e-13 -3.16601e-15 0 3.11114e-17
1914 18 0.001 0.0222483 -0.000893282 -0.0401464 -7.04404e-14 4.28764e-13 1.75322e-15 0 3.11114e-17
348 11 0.001 -0.057722 0.00101669 -0.0396116 2.46858e-13 5.02932e-13 -1.16767e-13 0 7.94422e-17
349 11 0.001 -0.0578572 6.3881e-05 -0.0398797 1.44382e-13 4.79261e-13 -6.26696e-14 0 4.87076e-17
724 12 0.001 -0.0377221 0.00101646 -0.0396115 2.82999e-13 4.58953e-13 -9.88214e-14 0 8.32008e-17
725 12 0.001 -0.0378572 6.36468e-05 -0.0398796 1.01601e-13 4.42019e-13 -5.40357e-14 0 5.158e-17
1120 14 0.001 -0.0177221 0.00101646 -0.0396115 2.39246e-13 4.62191e-13 -1.01191e-13 0 8.32008e-17
1121 14 0.001 -0.0178572 6.36468e-05 -0.0398796 1.24436e-13 4.38159e-13 -5.58454e-14 0 5.158e-17
1516 16 0.001 0.0022779 0.00101646 -0.0396115 2.52812e-13 4.57954e-13 -1.02504e-13 0 8.32008e-17
1517 16 0.001 0.00214277 6.36468e-05 -0.0398796 1.01016e-13 4.51154e-13 -5.04531e-14 0 5.158e-17
1912 18 0.001 0.0222779 0.00101646 -0.0396115 2.43584e-13 4.59079e-13 -1.01877e-13 0 8.32008e-17
1913 18 0.001 0.0221428 6.36468e-05 -0.0398796 1.26638e-13 4.43252e-13 -5.3233e-14 0 5.158e-17
347 11 0.001 -0.0573547 0.00190599 -0.0393428 4.05801e-13 4.34673e-13 -1.84997e-13 0 1.20316e-16
346 11 0.001 -0.0567781 0.00267632 -0.0390742 4.6822e-13 3.96968e-13 -2.46548e-13 0 1.67142e-16
722 12 0.001 -0.0367783 0.00267615 -0.0390741 5.35791e-13 3.6189e-13 -2.19531e-13 0 1.72594e-16
723 12 0.001 -0.0373548 0.00190578 -0.0393428 3.0762e-13 4.21202e-13 -1.84009e-13 0 1.24975e-16
1118 14 0.001 -0.0167783 0.00267615 -0.0390741 4.86412e-13 3.63564e-13 -2.27447e-13 0 1.72594e-16
1119 14 0.001 -0.0173548 0.00190578 -0.0393428 3.65541e-13 4.17072e-13 -1.77453e-13 0 1.24975e-16
1515 16 0.001 0.00264519 0.00190578 -0.0393428 3.57331e-13 4.14847e-13 -1.7875e-13 0 1.24975e-16
1514 16 0.001 0.00322173 0.00267615 -0.0390741 4.89758e-13 3.71021e-13 -2.25598e-13 0 1.72594e-16
1910 18 0.001 0.0232217 0.00267615 -0.0390741 5.1495e-13 3.72836e-13 -2.20504e-13 0 1.72594e-16
1911 18 0.001 0.0226452 0.00190578 -0.0393428 3.43949e-13 4.1245e-13 -1.81589e-13 0 1.24975e-16
345 11 0.001 -0.0560282 0.00327958 -0.0388062 6.23954e-13 2.76778e-13 -2.86514e-13 0 2.1305e-16
344 11 0.001 -0.0551519 0.00367807 -0.0385393 6.64749e-13 1.81161e-13 -3.07343e-13 0 2.50336e-16
721 12 0.001 -0.0360285 0.00327946 -0.0388062 5.25519e-13 2.60826e-13 -2.88932e-13 0 2.19096e-16
720 12 0.001 -0.0351521 0.003678 -0.0385392 6.26796e-13 1.60188e-13 -2.98825e-13 0 2.56733e-16
1117 14 0.001 -0.0160285 0.00327946 -0.0388062 5.37244e-13 2.59009e-13 -2.87582e-13 0 2.19096e-16
1116 14 0.001 -0.0151521 0.003678 -0.0385392 6.48099e-13 1.615e-13 -2.92731e-13 0 2.56733e-16
1513 16 0.001 0.00397154 0.00327946 -0.0388062 5.53625e-13 2.53887e-13 -2.84284e-13 0 2.19096e-16
1512 16 0.001 0.00484786 0.003678 -0.0385392 6.23292e-13 1.66115e-13 -2.98714e-13 0 2.56733e-16
1909 18 0.001 0.0239715 0.00327946 -0.0388062 5.28921e-13 2.57618e-13 -2.89321e-13 0 2.19096e-16
1908 18 0.001 0.0248479 0.003678 -0.0385392 6.33707e-13 1.61273e-13 -2.96813e-13 0 2.56733e-16
338 11 0.001 -0.0504103 0.00138666 -0.0369561 2.19993e-13 -4.29793e-13 -7.62484e-14 0 1.74512e-16
714 12 0.001 -0.0304104 0.0013869 -0.0369561 2.45618e-13 -3.59589e-13 -7.42618e-14 0 1.79665e-16
1110 14 0.001 -0.0104104 0.0013869 -0.0369561 2.62993e-13 -3.59842e-13 -7.31301e-14 0 1.79665e-16
1506 16 0.001 0.00958962 0.0013869 -0.0369561 2.72689e-13 -3.5787e-13 -7.23824e-14 0 1.79665e-16
1902 18 0.001 0.0295896 0.0013869 -0.0369561 2.27408e-13 -3.63437e-13 -7.59779e-14 0 1.79665e-16
340 11 0.001 -0.0515214 0.00294328 -0.0374821 5.31153e-13 -2.93227e-13 -1.87141e-13 0 2.39722e-16
339 11 0.001 -0.0508679 0.00223487 -0.0372192 4.47269e-13 -3.62183e-13 -1.27555e-13 0 2.07615e-16
716 12 0.001 -0.0315216 0.00294344 -0.037482 4.80945e-13 -2.54247e-13 -1.86468e-13 0 2.45582e-16
715 12 0.001 -0.030868 0.00223508 -0.0372191 4.11874e-13 -3.58526e-13 -1.13326e-13 0 2.13118e-16
1111 14 0.001 -0.010868 0.00223508 -0.0372191 3.9401e-13 -3.53868e-13 -1.16887e-13 0 2.13118e-16
1112 14 0.001 -0.0115216 0.00294344 -0.037482 5.00387e-13 -2.65768e-13 -1.80222e-13 0 2.45582e-16
1508 16 0.001 0.00847844 0.00294344 -0.037482 5.09298e-13 -2.696e-13 -1.79901e-13 0 2.45582e-16
1507 16 0.001 0.00913199 0.00223508 -0.0372191 3.78046e-13 -3.51756e-13 -1.19402e-13 0 2.13118e-16
1904 18 0.001 0.0284784 0.00294344 -0.037482 4.66319e-13 -2.78584e-13 -1.87039e-13 0 2.45582e-16
1903 18 0.001 0.029132 0.00223508 -0.0372191 4.30151e-13 -3.47706e-13 -1.11427e-13 0 2.13118e-16
343 11 0.001 -0.0542038 0.00384682 -0.0382735 6.42122e-13 5.02567e-14 -3.22832e-13 0 2.72757e-16
342 11 0.001 -0.0532431 0.00377521 -0.0380089 6.69159e-13 -6.61798e-14 -2.86879e-13 0 2.77319e-16
341 11 0.001 -0.05233 0.00346764 -0.0377452 5.82178e-13 -1.93093e-13 -2.53017e-13 0 2.64922e-16
719 12 0.001 -0.034204 0.00384681 -0.0382735 6.31124e-13 5.16984e-14 -3.05012e-13 0 2.79264e-16
718 12 0.001 -0.0332434 0.00377526 -0.0380088 6.35794e-13 -6.25846e-14 -2.7577e-13 0 2.83735e-16
717 12 0.001 -0.0323302 0.00346775 -0.0377451 5.60739e-13 -1.83309e-13 -2.40309e-13 0 2.71103e-16
1115 14 0.001 -0.014204 0.00384681 -0.0382735 6.16556e-13 5.40807e-14 -3.09356e-13 0 2.79264e-16
1113 14 0.001 -0.0123302 0.00346775 -0.0377451 5.55588e-13 -1.75421e-13 -2.43155e-13 0 2.71103e-16
1114 14 0.001 -0.0132434 0.00377526 -0.0380088 6.32949e-13 -6.64095e-14 -2.75526e-13 0 2.83735e-16
1511 16 0.001 0.00579596 0.00384681 -0.0382735 6.25667e-13 5.41923e-14 -3.06799e-13 0 2.79264e-16
1510 16 0.001 0.00675662 0.00377526 -0.0380088 6.27874e-13 -7.55405e-14 -2.77585e-13 0 2.83735e-16
1509 16 0.001 0.00766981 0.00346775 -0.0377451 5.61972e-13 -1.67467e-13 -2.40054e-13 0 2.71103e-16
1907 18 0.001 0.025796 0.00384681 -0.0382735 6.34735e-13 5.35235e-14 -3.04203e-13 0 2.79264e-16
1906 18 0.001 0.0267566 0.00377526 -0.0380088 6.1298e-13 -7.49995e-14 -2.81079e-13 0 2.83735e-16
1905 18 0.001 0.0276698 0.00346775 -0.0377451 5.84094e-13 -1.59303e-13 -2.36239e-13 0 2.71103e-16
333 11 0.001 -0.0515572 -0.00298477 -0.035632 -3.50138e-13 -2.17516e-13 -5.15459e-14 0 9.83361e-17
334 11 0.001 -0.0508954 -0.00228534 -0.0358981 -2.10509e-13 -3.17863e-13 -7.84066e-15 0 9.88624e-17
709 12 0.001 -0.031557 -0.00298461 -0.035632 -3.70378e-13 -2.41614e-13 -1.56123e-14 0 1.03007e-16
710 12 0.001 -0.0308952 -0.00228514 -0.0358981 -2.25761e-13 -2.85506e-13 -6.81529e-16 0 1.03374e-16
1105 14 0.001 -0.011557 -0.00298461 -0.035632 -3.81659e-13 -2.42223e-13 -1.29256e-14 0 1.03007e-16
1106 14 0.001 -0.0108952 -0.00228514 -0.0358981 -2.01797e-13 -2.9294e-13 -1.87479e-15 0 1.03374e-16
1501 16 0.001 0.00844298 -0.00298461 -0.035632 -3.78513e-13 -2.41156e-13 -1.3849e-14 0 1.03007e-16
1502 16 0.001 0.00910475 -0.00228514 -0.0358981 -2.0285e-13 -2.92854e-13 -2.02117e-15 0 1.03374e-16
1897 18 0.001 0.028443 -0.00298461 -0.035632 -3.35161e-13 -2.47155e-13 -2.17164e-14 0 1.03007e-16
1898 18 0.001 0.0291048 -0.00228514 -0.0358981 -2.45242e-13 -2.81949e-13 1.56234e-15 0 1.03374e-16
335 11 0.001 -0.0504276 -0.00144351 -0.0361637 -1.21802e-13 -4.13354e-13 8.81637e-15 0 1.06612e-16
336 11 0.001 -0.0501831 -0.000511798 -0.0364285 -5.81974e-14 -4.19895e-13 -2.54777e-15 0 1.22029e-16
711 12 0.001 -0.0304275 -0.00144327 -0.0361636 -6.3916e-14 -3.3427e-13 -2.5097e-15 0 1.11111e-16
712 12 0.001 -0.0301831 -0.000511545 -0.0364285 -2.61097e-14 -3.96057e-13 1.54009e-14 0 1.26647e-16
1107 14 0.001 -0.0104275 -0.00144327 -0.0361636 -1.10773e-13 -3.32003e-13 9.21326e-16 0 1.11111e-16
1108 14 0.001 -0.0101831 -0.000511545 -0.0364285 1.71428e-14 -3.93672e-13 1.31836e-14 0 1.26647e-16
1503 16 0.001 0.00957247 -0.00144327 -0.0361636 -1.09213e-13 -3.3142e-13 3.80468e-16 0 1.11111e-16
1504 16 0.001 0.00981691 -0.000511545 -0.0364285 2.52196e-14 -3.92834e-13 1.30269e-14 0 1.26647e-16
1899 18 0.001 0.0295725 -0.00144327 -0.0361636 -5.18107e-14 -3.37913e-13 -2.37098e-15 0 1.11111e-16
1900 18 0.001 0.0298169 -0.000511545 -0.0364285 -4.21612e-14 -3.96306e-13 1.59355e-14 0 1.26647e-16
337 11 0.001 -0.0501772 0.000451643 -0.0366927 2.32753e-13 -4.15543e-13 -3.08113e-14 0 1.45047e-16
713 12 0.001 -0.0301772 0.000451896 -0.0366926 1.7423e-13 -4.17034e-13 -1.86206e-14 0 1.49894e-16
1109 14 0.001 -0.0101772 0.000451896 -0.0366926 1.45934e-13 -4.17513e-13 -1.88023e-14 0 1.49894e-16
1505 16 0.001 0.00982277 0.000451896 -0.0366926 1.35896e-13 -4.2057e-13 -1.83092e-14 0 1.49894e-16
1901 18 0.001 0.0298228 0.000451896 -0.0366926 1.89344e-13 -4.12946e-13 -1.90423e-14 0 1.49894e-16
328 11 0.001 -0.0560661 -0.00326059 -0.0343009 -4.57486e-13 3.31215e-13 -2.4413e-13 0 1.73868e-16
329 11 0.001 -0.0551949 -0.00367088 -0.0345665 -4.39294e-13 2.23115e-13 -2.35918e-13 0 1.52856e-16
330 11 0.001 -0.0542492 -0.00385227 -0.0348326 -5.4346e-13 1.06846e-13 -1.71752e-13 0 1.33005e-16
331 11 0.001 -0.0532881 -0.00379347 -0.035099 -4.75286e-13 -1.30222e-14 -1.35664e-13 0 1.16337e-16
332 11 0.001 -0.0523718 -0.00349816 -0.0353656 -4.33855e-13 -1.35316e-13 -8.03776e-14 0 1.04417e-16
704 12 0.001 -0.0360659 -0.00326076 -0.0343008 -4.13432e-13 3.26184e-13 -2.33351e-13 0 1.80816e-16
705 12 0.001 -0.0351946 -0.00367098 -0.0345664 -4.64782e-13 2.12747e-13 -2.09942e-13 0 1.59278e-16
706 12 0.001 -0.0342489 -0.00385231 -0.0348325 -4.40831e-13 1.08342e-13 -1.78804e-13 0 1.38893e-16
707 12 0.001 -0.0332879 -0.00379343 -0.0350989 -4.37564e-13 -6.1747e-15 -1.27126e-13 0 1.21726e-16
708 12 0.001 -0.0323715 -0.00349806 -0.0353655 -3.84436e-13 -1.15717e-13 -7.8561e-14 0 1.09388e-16
1100 14 0.001 -0.0160659 -0.00326076 -0.0343008 -4.07153e-13 3.2429e-13 -2.3525e-13 0 1.80816e-16
1101 14 0.001 -0.0151946 -0.00367098 -0.0345664 -4.55077e-13 2.13294e-13 -2.12699e-13 0 1.59278e-16
1102 14 0.001 -0.0142489 -0.00385231 -0.0348325 -4.59838e-13 1.00633e-13 -1.73506e-13 0 1.38893e-16
1104 14 0.001 -0.0123715 -0.00349806 -0.0353655 -3.57004e-13 -1.10974e-13 -8.69022e-14 0 1.09388e-16
1103 14 0.001 -0.0132879 -0.00379343 -0.0350989 -4.50951e-13 1.32116e-15 -1.23592e-13 0 1.21725e-16
1496 16 0.001 0.0039341 -0.00326076 -0.0343008 -4.24413e-13 3.18535e-13 -2.32552e-13 0 1.80816e-16
1497 16 0.001 0.00480542 -0.00367098 -0.0345664 -4.52654e-13 2.16064e-13 -2.12569e-13 0 1.59278e-16
1498 16 0.001 0.00575111 -0.00385231 -0.0348325 -4.63484e-13 1.0603e-13 -1.72639e-13 0 1.38893e-16
1499 16 0.001 0.00671213 -0.00379343 -0.0350989 -4.34293e-13 -4.33867e-15 -1.27683e-13 0 1.21725e-16
1500 16 0.001 0.00762849 -0.00349806 -0.0353655 -3.7322e-13 -1.11037e-13 -8.26848e-14 0 1.09388e-16
1892 18 0.001 0.0239341 -0.00326076 -0.0343008 -4.04599e-13 3.23122e-13 -2.37286e-13 0 1.80816e-16
1893 18 0.001 0.0248054 -0.00367098 -0.0345664 -4.53546e-13 2.10663e-13 -2.12718e-13 0 1.59278e-16
1894 18 0.001 0.0257511 -0.00385231 -0.0348325 -4.56696e-13 1.03847e-13 -1.74352e-13 0 1.38893e-16
1895 18 0.001 0.0267121 -0.00379343 -0.0350989 -4.36166e-13 -5.72922e-15 -1.26796e-13 0 1.21726e-16
1896 18 0.001 0.0276285 -0.00349806 -0.0353655 -4.02018e-13 -1.05992e-13 -7.65101e-14 0 1.09388e-16
327 11 0.001 -0.0568086 -0.00264698 -0.0340359 -3.7208e-13 4.25359e-13 -2.59177e-13 0 1.93814e-16
703 12 0.001 -0.0368084 -0.00264721 -0.0340358 -3.55273e-13 3.82874e-13 -2.49571e-13 0 2.01241e-16
1099 14 0.001 -0.0168084 -0.00264721 -0.0340358 -3.56457e-13 3.87884e-13 -2.48242e-13 0 2.01241e-16