ITEM: TIMESTEP
2000000
ITEM: NUMBER OF ATOMS
1970
ITEM: BOX BOUNDS ff ff ff
-6.0000000000000005e-02 6.0000000000000005e-02
-6.0000000000000001e-03 6.0000000000000001e-03
-5.5000000000000000e-02 5.5000000000000000e-02
ITEM: ATOMS id type radius x y z fx fy fz c_bendingE c_stretchingE
384 11 0.001 -0.0509008 -0.00261916 -0.0490168 -3.20092e-12 2.52659e-13 -2.72967e-12 0 1.94976e-15
385 11 0.001 -0.0503765 -0.00182806 -0.0493288 -2.30112e-12 -7.56206e-14 -1.75915e-12 0 3.80992e-15
760 12 0.001 -0.0309008 -0.00261916 -0.0490168 -3.2492e-12 2.4565e-13 -2.7207e-12 0 1.94976e-15
761 12 0.001 -0.0303765 -0.00182806 -0.0493288 -2.28509e-12 -7.68004e-14 -1.76096e-12 0 3.80992e-15
1156 14 0.001 -0.0109008 -0.00261916 -0.0490168 -3.25768e-12 2.47871e-13 -2.72053e-12 0 1.94976e-15
1157 14 0.001 -0.0103765 -0.00182806 -0.0493288 -2.26738e-12 -7.15123e-14 -1.76384e-12 0 3.80992e-15
1552 16 0.001 0.00909924 -0.00261916 -0.0490168 -3.25726e-12 2.43655e-13 -2.71957e-12 0 1.94976e-15
1553 16 0.001 0.0096235 -0.00182806 -0.0493288 -2.26437e-12 -7.24085e-14 -1.76366e-12 0 3.80992e-15
1948 18 0.001 0.0290992 -0.00261916 -0.0490168 -3.24054e-12 2.60963e-13 -2.72618e-12 0 1.94976e-15
1949 18 0.001 0.0296235 -0.00182806 -0.0493288 -2.28255e-12 -8.09314e-14 -1.75979e-12 0 3.80992e-15
2 2 0.001 -0.05 -4.31175e-17 -0.05 -7.35474e-06 1.12215e-05 1.20695e-06 0 8.85896e-16
386 11 0.001 -0.0500701 -0.000935997 -0.0496579 -1.159e-12 -1.67931e-13 -8.35452e-13 0 3.11272e-15
762 12 0.001 -0.0300701 -0.000935997 -0.0496579 -1.15791e-12 -1.70812e-13 -8.34231e-13 0 3.11272e-15
4 4 0.001 -0.03 -4.31175e-17 -0.05 -7.35474e-06 1.12215e-05 1.20695e-06 0 8.85896e-16
6 6 0.001 -0.01 -4.31175e-17 -0.05 -7.35474e-06 1.12215e-05 1.20695e-06 0 8.85896e-16
1158 14 0.001 -0.0100701 -0.000935997 -0.0496579 -1.17013e-12 -1.69568e-13 -8.34422e-13 0 3.11272e-15
8 8 0.001 0.01 -4.31175e-17 -0.05 -7.35474e-06 1.12215e-05 1.20695e-06 0 8.85896e-16
1554 16 0.001 0.00992991 -0.000935997 -0.0496579 -1.17276e-12 -1.68493e-13 -8.34566e-13 0 3.11272e-15
10 10 0.001 0.03 -4.31175e-17 -0.05 -7.35474e-06 1.12215e-05 1.20695e-06 0 8.85896e-16
1950 18 0.001 0.0299299 -0.000935997 -0.0496579 -1.1618e-12 -1.67252e-13 -8.35269e-13 0 3.11272e-15
378 11 0.001 -0.0561638 -0.00318124 -0.0475224 -4.20044e-12 4.70976e-12 -4.65617e-12 0 4.25773e-15
379 11 0.001 -0.0553134 -0.00365822 -0.0477402 -4.6655e-12 4.02064e-12 -5.1116e-12 0 3.63659e-15
380 11 0.001 -0.0543736 -0.00391191 -0.0479645 -4.9341e-12 3.18096e-12 -5.20552e-12 0 2.52415e-15
381 11 0.001 -0.053403 -0.00392719 -0.0482006 -4.95457e-12 2.31022e-12 -4.94163e-12 0 1.22981e-15
382 11 0.001 -0.0524624 -0.00370423 -0.048453 -4.63299e-12 1.51627e-12 -4.40008e-12 0 2.96445e-16
383 11 0.001 -0.0516107 -0.0032584 -0.0487246 -4.08133e-12 7.86692e-13 -3.62184e-12 0 3.66772e-16
754 12 0.001 -0.0361638 -0.00318124 -0.0475224 -4.13734e-12 4.71757e-12 -4.66488e-12 0 4.25773e-15
755 12 0.001 -0.0353134 -0.00365822 -0.0477402 -4.69263e-12 4.00921e-12 -5.10722e-12 0 3.63659e-15
756 12 0.001 -0.0343736 -0.00391191 -0.0479645 -4.94757e-12 3.18747e-12 -5.20173e-12 0 2.52415e-15
757 12 0.001 -0.033403 -0.00392719 -0.0482006 -4.96405e-12 2.31657e-12 -4.94062e-12 0 1.22981e-15
758 12 0.001 -0.0324624 -0.00370423 -0.048453 -4.60564e-12 1.50917e-12 -4.40584e-12 0 2.96445e-16
759 12 0.001 -0.0316107 -0.0032584 -0.0487246 -4.05218e-12 7.95969e-13 -3.62801e-12 0 3.66772e-16
1151 14 0.001 -0.0153134 -0.00365822 -0.0477402 -4.68122e-12 4.01597e-12 -5.10921e-12 0 3.63659e-15
1150 14 0.001 -0.0161638 -0.00318124 -0.0475224 -4.14668e-12 4.70693e-12 -4.66471e-12 0 4.25773e-15
1152 14 0.001 -0.0143736 -0.00391191 -0.0479645 -4.95268e-12 3.18277e-12 -5.20045e-12 0 2.52415e-15
1153 14 0.001 -0.013403 -0.00392719 -0.0482006 -4.96777e-12 2.3224e-12 -4.94026e-12 0 1.22981e-15
1154 14 0.001 -0.0124624 -0.00370423 -0.048453 -4.59921e-12 1.51018e-12 -4.4077e-12 0 2.96445e-16
1155 14 0.001 -0.0116107 -0.0032584 -0.0487246 -4.05901e-12 7.86867e-13 -3.62419e-12 0 3.66772e-16
1546 16 0.001 0.00383621 -0.00318124 -0.0475224 -4.14464e-12 4.72081e-12 -4.66309e-12 0 4.25773e-15
1547 16 0.001 0.00468655 -0.00365822 -0.0477402 -4.68189e-12 4.01805e-12 -5.10977e-12 0 3.63659e-15
1548 16 0.001 0.00562642 -0.00391191 -0.0479645 -4.95254e-12 3.16778e-12 -5.20006e-12 0 2.52415e-15
1549 16 0.001 0.00659701 -0.00392719 -0.0482006 -4.96008e-12 2.33213e-12 -4.9425e-12 0 1.22981e-15
1550 16 0.001 0.00753755 -0.00370423 -0.048453 -4.61077e-12 1.50564e-12 -4.40418e-12 0 2.96445e-16
1551 16 0.001 0.0083893 -0.0032584 -0.0487246 -4.05532e-12 7.93607e-13 -3.62687e-12 0 3.66772e-16
1942 18 0.001 0.0238362 -0.00318124 -0.0475224 -4.14312e-12 4.72378e-12 -4.66303e-12 0 4.25773e-15
1943 18 0.001 0.0246866 -0.00365822 -0.0477402 -4.68802e-12 4.00789e-12 -5.10862e-12 0 3.63659e-15
1944 18 0.001 0.0256264 -0.00391191 -0.0479645 -4.94807e-12 3.18474e-12 -5.20159e-12 0 2.52415e-15
1945 18 0.001 0.026597 -0.00392719 -0.0482006 -4.95019e-12 2.31868e-12 -4.94374e-12 0 1.22981e-15
1946 18 0.001 0.0275376 -0.00370423 -0.048453 -4.62404e-12 1.51444e-12 -4.40295e-12 0 2.96445e-16
1947 18 0.001 0.0283893 -0.0032584 -0.0487246 -4.0574e-12 7.78136e-13 -3.62299e-12 0 3.66772e-16
376 11 0.001 -0.057393 -0.00168731 -0.0470849 -2.49193e-12 5.50103e-12 -2.90669e-12 0 3.96368e-15
377 11 0.001 -0.0568716 -0.00251036 -0.0473057 -3.33656e-12 5.25055e-12 -3.90883e-12 0 4.32734e-15
753 12 0.001 -0.0368716 -0.00251036 -0.0473057 -3.39312e-12 5.24029e-12 -3.90461e-12 0 4.32734e-15
752 12 0.001 -0.037393 -0.00168731 -0.0470849 -2.47329e-12 5.50981e-12 -2.90556e-12 0 3.96368e-15
1149 14 0.001 -0.0168716 -0.00251036 -0.0473057 -3.38394e-12 5.24571e-12 -3.90526e-12 0 4.32734e-15
1148 14 0.001 -0.017393 -0.00168731 -0.0470849 -2.47427e-12 5.50821e-12 -2.9057e-12 0 3.96368e-15
1544 16 0.001 0.00260703 -0.00168731 -0.0470849 -2.45593e-12 5.51355e-12 -2.90588e-12 0 3.96368e-15
1545 16 0.001 0.00312843 -0.00251036 -0.0473057 -3.39384e-12 5.23356e-12 -3.90585e-12 0 4.32734e-15
1941 18 0.001 0.0231284 -0.00251036 -0.0473057 -3.39452e-12 5.23403e-12 -3.90579e-12 0 4.32734e-15
1940 18 0.001 0.022607 -0.00168731 -0.0470849 -2.46933e-12 5.51222e-12 -2.90596e-12 0 3.96368e-15
375 11 0.001 -0.0576961 -0.000763335 -0.0468559 -1.40152e-12 5.5229e-12 -1.80054e-12 0 3.36099e-15
751 12 0.001 -0.0376961 -0.000763335 -0.0468559 -1.37978e-12 5.52509e-12 -1.7997e-12 0 3.36099e-15
1147 14 0.001 -0.0176961 -0.000763335 -0.0468559 -1.3895e-12 5.52769e-12 -1.79884e-12 0 3.36099e-15
1543 16 0.001 0.00230394 -0.000763335 -0.0468559 -1.41321e-12 5.52388e-12 -1.80021e-12 0 3.36099e-15
1939 18 0.001 0.0223039 -0.000763335 -0.0468559 -1.37586e-12 5.52626e-12 -1.79911e-12 0 3.36099e-15
373 11 0.001 -0.0575896 0.00115517 -0.0463638 6.96686e-13 4.76821e-12 2.44294e-13 0 2.11486e-15
374 11 0.001 -0.0577627 0.000204142 -0.046616 -3.45523e-13 5.28571e-12 -6.92664e-13 0 2.7028e-15
749 12 0.001 -0.0375896 0.00115517 -0.0463638 7.52091e-13 4.7655e-12 2.49439e-13 0 2.11486e-15
750 12 0.001 -0.0377627 0.000204142 -0.046616 -3.9865e-13 5.28033e-12 -6.97596e-13 0 2.7028e-15
1145 14 0.001 -0.0175896 0.00115517 -0.0463638 6.83781e-13 4.77068e-12 2.44426e-13 0 2.11486e-15
1146 14 0.001 -0.0177627 0.000204142 -0.046616 -3.56642e-13 5.27509e-12 -6.96112e-13 0 2.7028e-15
1541 16 0.001 0.0024104 0.00115517 -0.0463638 7.03216e-13 4.7662e-12 2.44236e-13 0 2.11486e-15
1542 16 0.001 0.00223729 0.000204142 -0.046616 -3.47553e-13 5.28136e-12 -6.93578e-13 0 2.7028e-15
1937 18 0.001 0.0224104 0.00115517 -0.0463638 6.80834e-13 4.76902e-12 2.40215e-13 0 2.11486e-15
1938 18 0.001 0.0222373 0.000204142 -0.046616 -3.72634e-13 5.27526e-12 -6.94798e-13 0 2.7028e-15
372 11 0.001 -0.0571882 0.00203098 -0.0460995 1.69923e-12 4.04842e-12 9.27479e-13 0 1.657e-15
748 12 0.001 -0.0371882 0.00203098 -0.0460995 1.65651e-12 4.05613e-12 9.21902e-13 0 1.657e-15
1144 14 0.001 -0.0171882 0.00203098 -0.0460995 1.69179e-12 4.05074e-12 9.23214e-13 0 1.657e-15
1540 16 0.001 0.00281179 0.00203098 -0.0460995 1.68129e-12 4.05508e-12 9.25263e-13 0 1.657e-15
1936 18 0.001 0.0228118 0.00203098 -0.0460995 1.70359e-12 4.05102e-12 9.27834e-13 0 1.657e-15
371 11 0.001 -0.0565841 0.00277761 -0.0458246 2.53381e-12 3.16828e-12 1.25954e-12 0 1.33885e-15
747 12 0.001 -0.0365841 0.00277761 -0.0458246 2.58516e-12 3.17294e-12 1.27262e-12 0 1.33885e-15
1143 14 0.001 -0.0165841 0.00277761 -0.0458246 2.58191e-12 3.17127e-12 1.27381e-12 0 1.33885e-15
1539 16 0.001 0.00341592 0.00277761 -0.0458246 2.56873e-12 3.16562e-12 1.26812e-12 0 1.33885e-15
1935 18 0.001 0.0234159 0.00277761 -0.0458246 2.57323e-12 3.16834e-12 1.26945e-12 0 1.33885e-15
370 11 0.001 -0.0558151 0.00334909 -0.0455414 3.30456e-12 2.13936e-12 1.2429e-12 0 1.14214e-15
369 11 0.001 -0.0549294 0.00371021 -0.0452531 3.79004e-12 9.97861e-13 8.65735e-13 0 1.03816e-15
367 11 0.001 -0.0530327 0.00372656 -0.0446732 4.10031e-12 -1.31224e-12 -5.18402e-13 0 9.87881e-16
368 11 0.001 -0.0539822 0.0038387 -0.0449627 4.12526e-12 -1.57199e-13 2.55686e-13 0 9.96513e-16
745 12 0.001 -0.0349294 0.00371021 -0.0452531 3.79835e-12 1.00657e-12 8.6969e-13 0 1.03816e-15
746 12 0.001 -0.0358151 0.00334909 -0.0455414 3.25902e-12 2.12458e-12 1.22816e-12 0 1.14214e-15
744 12 0.001 -0.0339822 0.0038387 -0.0449627 4.12072e-12 -1.5919e-13 2.53668e-13 0 9.96513e-16
743 12 0.001 -0.0330327 0.00372656 -0.0446732 4.13824e-12 -1.31783e-12 -5.07337e-13 0 9.87881e-16
1142 14 0.001 -0.0158151 0.00334909 -0.0455414 3.26777e-12 2.13237e-12 1.23063e-12 0 1.14214e-15
1140 14 0.001 -0.0139822 0.0038387 -0.0449627 4.10833e-12 -1.69638e-13 2.50031e-13 0 9.96513e-16
1141 14 0.001 -0.0149294 0.00371021 -0.0452531 3.79538e-12 1.00962e-12 8.6936e-13 0 1.03816e-15
1139 14 0.001 -0.0130327 0.00372656 -0.0446732 4.15006e-12 -1.3119e-12 -5.04027e-13 0 9.87881e-16
1538 16 0.001 0.00418486 0.00334909 -0.0455414 3.2685e-12 2.13371e-12 1.23124e-12 0 1.14214e-15
1537 16 0.001 0.00507056 0.00371021 -0.0452531 3.7938e-12 1.00328e-12 8.68407e-13 0 1.03816e-15
1535 16 0.001 0.00696728 0.00372656 -0.0446732 4.14044e-12 -1.32083e-12 -5.06426e-13 0 9.87881e-16
1536 16 0.001 0.00601775 0.0038387 -0.0449627 4.12447e-12 -1.58424e-13 2.54934e-13 0 9.96513e-16
1933 18 0.001 0.0250706 0.00371021 -0.0452531 3.77384e-12 1.00331e-12 8.61639e-13 0 1.03816e-15
1934 18 0.001 0.0241849 0.00334909 -0.0455414 3.28466e-12 2.14108e-12 1.23811e-12 0 1.14214e-15
1932 18 0.001 0.0260178 0.0038387 -0.0449627 4.11442e-12 -1.64733e-13 2.51994e-13 0 9.96513e-16
1931 18 0.001 0.0269673 0.00372656 -0.0446732 4.16656e-12 -1.31919e-12 -4.9907e-13 0 9.87881e-16
361 11 0.001 -0.050193 -0.000687778 -0.0430317 -2.16236e-13 -4.36399e-12 -1.8454e-12 0 6.60026e-16
737 12 0.001 -0.030193 -0.000687778 -0.0430317 -2.09359e-13 -4.35824e-12 -1.84668e-12 0 6.60026e-16
1133 14 0.001 -0.010193 -0.000687778 -0.0430317 -1.65527e-13 -4.36505e-12 -1.84615e-12 0 6.60026e-16
1529 16 0.001 0.009807 -0.000687778 -0.0430317 -1.63733e-13 -4.36456e-12 -1.8466e-12 0 6.60026e-16
1925 18 0.001 0.029807 -0.000687778 -0.0430317 -1.73577e-13 -4.36205e-12 -1.8462e-12 0 6.60026e-16
362 11 0.001 -0.0501408 0.000274908 -0.0432935 8.62269e-13 -4.55179e-12 -2.24039e-12 0 7.5291e-16
363 11 0.001 -0.0503286 0.00121951 -0.043559 1.77012e-12 -4.42882e-12 -2.41479e-12 0 8.45477e-16
738 12 0.001 -0.0301408 0.000274908 -0.0432935 8.55364e-13 -4.55821e-12 -2.24035e-12 0 7.5291e-16
739 12 0.001 -0.0303286 0.00121951 -0.043559 1.79102e-12 -4.42362e-12 -2.41194e-12 0 8.45477e-16
1134 14 0.001 -0.0101408 0.000274908 -0.0432935 8.0469e-13 -4.55417e-12 -2.24275e-12 0 7.5291e-16
1135 14 0.001 -0.0103286 0.00121951 -0.043559 1.8262e-12 -4.42837e-12 -2.40891e-12 0 8.45477e-16
1530 16 0.001 0.00985917 0.000274908 -0.0432935 8.09581e-13 -4.55716e-12 -2.24201e-12 0 7.5291e-16
1531 16 0.001 0.00967142 0.00121951 -0.043559 1.82057e-12 -4.42428e-12 -2.40961e-12 0 8.45477e-16
1926 18 0.001 0.0298592 0.000274908 -0.0432935 8.14257e-13 -4.55482e-12 -2.24177e-12 0 7.5291e-16
1927 18 0.001 0.0296714 0.00121951 -0.043559 1.80432e-12 -4.42741e-12 -2.41169e-12 0 8.45477e-16
365 11 0.001 -0.0513611 0.00282253 -0.0441053 3.40414e-12 -3.32115e-12 -1.89326e-12 0 9.66962e-16
364 11 0.001 -0.0507441 0.00208682 -0.0438294 2.74373e-12 -4.01389e-12 -2.28161e-12 0 9.20453e-16
740 12 0.001 -0.0307441 0.00208682 -0.0438294 2.70444e-12 -4.01947e-12 -2.28841e-12 0 9.20453e-16
741 12 0.001 -0.0313611 0.00282253 -0.0441053 3.45752e-12 -3.32011e-12 -1.88141e-12 0 9.66962e-16
1136 14 0.001 -0.0107441 0.00208682 -0.0438294 2.7097e-12 -4.01744e-12 -2.28578e-12 0 9.20453e-16
1137 14 0.001 -0.0113611 0.00282253 -0.0441053 3.42183e-12 -3.31819e-12 -1.89035e-12 0 9.66962e-16
1533 16 0.001 0.00863894 0.00282253 -0.0441053 3.42241e-12 -3.31741e-12 -1.88991e-12 0 9.66962e-16
1532 16 0.001 0.00925587 0.00208682 -0.0438294 2.71022e-12 -4.02086e-12 -2.28608e-12 0 9.20453e-16
1928 18 0.001 0.0292559 0.00208682 -0.0438294 2.72452e-12 -4.01724e-12 -2.28387e-12 0 9.20453e-16
1929 18 0.001 0.0286389 0.00282253 -0.0441053 3.42994e-12 -3.31981e-12 -1.88803e-12 0 9.66962e-16
366 11 0.001 -0.0521403 0.0033807 -0.0443868 3.97765e-12 -2.39382e-12 -1.24686e-12 0 9.85292e-16
742 12 0.001 -0.0321403 0.0033807 -0.0443868 3.92013e-12 -2.38649e-12 -1.26228e-12 0 9.85292e-16
1138 14 0.001 -0.0121403 0.0033807 -0.0443868 3.9377e-12 -2.38795e-12 -1.25802e-12 0 9.85292e-16
1534 16 0.001 0.00785969 0.0033807 -0.0443868 3.94102e-12 -2.38389e-12 -1.25755e-12 0 9.85292e-16
1930 18 0.001 0.0278597 0.0033807 -0.0443868 3.91476e-12 -2.38323e-12 -1.26422e-12 0 9.85292e-16
355 11 0.001 -0.054418 -0.0038439 -0.0414722 -3.30738e-12 9.2772e-13 -1.66734e-13 0 8.61597e-16
356 11 0.001 -0.0534542 -0.00382831 -0.0417347 -3.19531e-12 -1.83178e-13 1.25963e-14 0 6.92385e-16
357 11 0.001 -0.0525239 -0.00357445 -0.0419957 -3.09148e-12 -1.29808e-12 1.00466e-14 0 5.86711e-16
358 11 0.001 -0.051685 -0.00309805 -0.0422553 -2.53723e-12 -2.2934e-12 -2.99958e-13 0 5.38656e-16
731 12 0.001 -0.034418 -0.0038439 -0.0414722 -3.27724e-12 9.33194e-13 -1.75552e-13 0 8.61597e-16
732 12 0.001 -0.0334542 -0.00382831 -0.0417347 -3.20035e-12 -1.94801e-13 1.81304e-14 0 6.92385e-16
733 12 0.001 -0.0325239 -0.00357445 -0.0419957 -3.09256e-12 -1.2822e-12 4.63376e-15 0 5.86711e-16
734 12 0.001 -0.031685 -0.00309805 -0.0422553 -2.53651e-12 -2.30083e-12 -2.96971e-13 0 5.38656e-16
1127 14 0.001 -0.014418 -0.0038439 -0.0414722 -3.31603e-12 9.23875e-13 -1.64276e-13 0 8.61597e-16
1128 14 0.001 -0.0134542 -0.00382831 -0.0417347 -3.24597e-12 -1.78779e-13 2.71853e-14 0 6.92385e-16
1129 14 0.001 -0.0125239 -0.00357445 -0.0419957 -3.02966e-12 -1.30038e-12 -7.11317e-15 0 5.86711e-16
1130 14 0.001 -0.011685 -0.00309805 -0.0422553 -2.5605e-12 -2.27669e-12 -2.96466e-13 0 5.38656e-16
1523 16 0.001 0.00558203 -0.0038439 -0.0414722 -3.33348e-12 9.30939e-13 -1.58597e-13 0 8.61597e-16
1524 16 0.001 0.0065458 -0.00382831 -0.0417347 -3.20731e-12 -1.86002e-13 1.61269e-14 0 6.92385e-16
1525 16 0.001 0.0074761 -0.00357445 -0.0419957 -3.05868e-12 -1.29298e-12 2.64929e-16 0 5.86711e-16
1526 16 0.001 0.00831497 -0.00309805 -0.0422553 -2.55144e-12 -2.28475e-12 -2.97846e-13 0 5.38656e-16
1919 18 0.001 0.025582 -0.0038439 -0.0414722 -3.30911e-12 9.32044e-13 -1.64379e-13 0 8.61597e-16
1920 18 0.001 0.0265458 -0.00382831 -0.0417347 -3.20412e-12 -1.86579e-13 1.42271e-14 0 6.92385e-16
1921 18 0.001 0.0274761 -0.00357445 -0.0419957 -3.07954e-12 -1.2924e-12 6.2589e-15 0 5.86711e-16
1922 18 0.001 0.028315 -0.00309805 -0.0422553 -2.52682e-12 -2.29479e-12 -3.01909e-13 0 5.38656e-16
359 11 0.001 -0.0509899 -0.00242872 -0.0425139 -1.92374e-12 -3.1682e-12 -7.58953e-13 0 5.40656e-16
360 11 0.001 -0.050482 -0.0016082 -0.0427723 -1.07759e-12 -3.90034e-12 -1.31646e-12 0 5.84535e-16
735 12 0.001 -0.0309899 -0.00242872 -0.0425139 -1.91394e-12 -3.16848e-12 -7.60962e-13 0 5.40656e-16
736 12 0.001 -0.030482 -0.0016082 -0.0427723 -1.09172e-12 -3.90309e-12 -1.31418e-12 0 5.84535e-16
1131 14 0.001 -0.0109899 -0.00242872 -0.0425139 -1.90017e-12 -3.18687e-12 -7.58965e-13 0 5.40656e-16
1132 14 0.001 -0.010482 -0.0016082 -0.0427723 -1.12048e-12 -3.89307e-12 -1.31417e-12 0 5.84535e-16
1527 16 0.001 0.00901006 -0.00242872 -0.0425139 -1.89596e-12 -3.1829e-12 -7.59968e-13 0 5.40656e-16
1528 16 0.001 0.00951798 -0.0016082 -0.0427723 -1.12848e-12 -3.89283e-12 -1.31334e-12 0 5.84535e-16
1923 18 0.001 0.0290101 -0.00242872 -0.0425139 -1.9305e-12 -3.17405e-12 -7.56126e-13 0 5.40656e-16
1924 18 0.001 0.029518 -0.0016082 -0.0427723 -1.0958e-12 -3.89637e-12 -1.31655e-12 0 5.84535e-16
353 11 0.001 -0.0562077 -0.00317168 -0.0409438 -2.72538e-12 2.98805e-12 -1.0945e-12 0 1.38345e-15
354 11 0.001 -0.0553552 -0.00362036 -0.0412084 -3.14413e-12 1.98296e-12 -5.65111e-13 0 1.09496e-15
729 12 0.001 -0.0362077 -0.00317168 -0.0409438 -2.68708e-12 2.97939e-12 -1.10319e-12 0 1.38345e-15
730 12 0.001 -0.0353552 -0.00362036 -0.0412084 -3.19561e-12 1.98546e-12 -5.52907e-13 0 1.09496e-15
1125 14 0.001 -0.0162077 -0.00317168 -0.0409438 -2.78003e-12 2.9788e-12 -1.08337e-12 0 1.38345e-15
1126 14 0.001 -0.0153552 -0.00362036 -0.0412084 -3.10462e-12 1.98651e-12 -5.75303e-13 0 1.09496e-15
1521 16 0.001 0.00379233 -0.00317168 -0.0409438 -2.73885e-12 2.98078e-12 -1.09078e-12 0 1.38345e-15
1522 16 0.001 0.00464476 -0.00362036 -0.0412084 -3.11494e-12 1.98137e-12 -5.7399e-13 0 1.09496e-15
1917 18 0.001 0.0237923 -0.00317168 -0.0409438 -2.77092e-12 2.97546e-12 -1.08595e-12 0 1.38345e-15
1918 18 0.001 0.0246448 -0.00362036 -0.0412084 -3.13705e-12 1.98849e-12 -5.67137e-13 0 1.09496e-15
351 11 0.001 -0.0574545 -0.00172301 -0.0404137 -1.42709e-12 4.42803e-12 -2.08907e-12 0 2.03263e-15
352 11 0.001 -0.0569222 -0.00252582 -0.0406787 -2.12167e-12 3.78788e-12 -1.64196e-12 0 1.70625e-15
727 12 0.001 -0.0374545 -0.00172301 -0.0404137 -1.42585e-12 4.43149e-12 -2.08883e-12 0 2.03263e-15
728 12 0.001 -0.0369222 -0.00252582 -0.0406787 -2.13831e-12 3.7923e-12 -1.6386e-12 0 1.70625e-15
1123 14 0.001 -0.0174545 -0.00172301 -0.0404137 -1.44921e-12 4.42142e-12 -2.08802e-12 0 2.03263e-15
1124 14 0.001 -0.0169222 -0.00252582 -0.0406787 -2.07616e-12 3.79651e-12 -1.64913e-12 0 1.70625e-15
1519 16 0.001 0.00254551 -0.00172301 -0.0404137 -1.38925e-12 4.41235e-12 -2.09777e-12 0 2.03263e-15
1520 16 0.001 0.00307775 -0.00252582 -0.0406787 -2.14892e-12 3.80391e-12 -1.636e-12 0 1.70625e-15
1915 18 0.001 0.0225455 -0.00172301 -0.0404137 -1.45009e-12 4.42126e-12 -2.08812e-12 0 2.03263e-15
1916 18 0.001 0.0230778 -0.00252582 -0.0406787 -2.07533e-12 3.79787e-12 -1.64927e-12 0 1.70625e-15
350 11 0.001 -0.0577712 -0.000813241 -0.0401491 -5.2758e-13 4.76393e-12 -2.39051e-12 0 2.328e-15
726 12 0.001 -0.0377712 -0.000813241 -0.0401491 -5.30201e-13 4.76026e-12 -2.3916e-12 0 2.328e-15
1122 14 0.001 -0.0177712 -0.000813241 -0.0401491 -5.0587e-13 4.76777e-12 -2.39001e-12 0 2.328e-15
1518 16 0.001 0.00222878 -0.000813241 -0.0401491 -5.24294e-13 4.77129e-12 -2.38743e-12 0 2.328e-15
1914 18 0.001 0.0222288 -0.000813241 -0.0401491 -4.97002e-13 4.76319e-12 -2.39169e-12 0 2.328e-15
348 11 0.001 -0.0576938 0.00109723 -0.0396215 1.29248e-12 4.62368e-12 -2.28673e-12 0 2.71593e-15
349 11 0.001 -0.0578527 0.000146793 -0.039885 4.22425e-13 4.84356e-12 -2.45308e-12 0 2.56205e-15
724 12 0.001 -0.0376938 0.00109723 -0.0396215 1.24213e-12 4.62691e-12 -2.28865e-12 0 2.71593e-15
725 12 0.001 -0.0378527 0.000146793 -0.039885 4.51311e-13 4.84171e-12 -2.45244e-12 0 2.56205e-15
1120 14 0.001 -0.0176938 0.00109723 -0.0396215 1.28889e-12 4.61762e-12 -2.28873e-12 0 2.71593e-15
1121 14 0.001 -0.0178527 0.000146793 -0.039885 4.04614e-13 4.84409e-12 -2.45295e-12 0 2.56205e-15
1516 16 0.001 0.00230624 0.00109723 -0.0396215 1.30173e-12 4.62182e-12 -2.28665e-12 0 2.71593e-15
1517 16 0.001 0.00214732 0.000146793 -0.039885 3.98836e-13 4.84044e-12 -2.45383e-12 0 2.56205e-15
1912 18 0.001 0.0223062 0.00109723 -0.0396215 1.28296e-12 4.61341e-12 -2.2899e-12 0 2.71593e-15
1913 18 0.001 0.0221473 0.000146793 -0.039885 4.01112e-13 4.84693e-12 -2.45167e-12 0 2.56205e-15
347 11 0.001 -0.0573043 0.00197879 -0.0393585 2.11528e-12 4.12632e-12 -1.92824e-12 0 2.78595e-15
346 11 0.001 -0.0567087 0.00273647 -0.0390955 2.72803e-12 3.3897e-12 -1.44449e-12 0 2.78289e-15
722 12 0.001 -0.0367087 0.00273647 -0.0390955 2.73071e-12 3.40227e-12 -1.43674e-12 0 2.78289e-15
723 12 0.001 -0.0373043 0.00197879 -0.0393585 2.14482e-12 4.11394e-12 -1.93111e-12 0 2.78595e-15
1118 14 0.001 -0.0167087 0.00273647 -0.0390955 2.74279e-12 3.3926e-12 -1.4406e-12 0 2.78289e-15
1119 14 0.001 -0.0173043 0.00197879 -0.0393585 2.11904e-12 4.12866e-12 -1.92808e-12 0 2.78595e-15
1515 16 0.001 0.00269566 0.00197879 -0.0393585 2.10457e-12 4.12444e-12 -1.93186e-12 0 2.78595e-15
1514 16 0.001 0.00329131 0.00273647 -0.0390955 2.75155e-12 3.39355e-12 -1.43726e-12 0 2.78289e-15
1910 18 0.001 0.0232913 0.00273647 -0.0390955 2.75774e-12 3.40026e-12 -1.4344e-12 0 2.78289e-15
1911 18 0.001 0.0226957 0.00197879 -0.0393585 2.1156e-12 4.12656e-12 -1.93065e-12 0 2.78595e-15
345 11 0.001 -0.055944 0.00332299 -0.0388323 3.22435e-12 2.52798e-12 -9.16992e-13 0 2.7276e-15
344 11 0.001 -0.055058 0.00370177 -0.0385687 3.49319e-12 1.52013e-12 -4.51834e-13 0 2.64507e-15
720 12 0.001 -0.035058 0.00370177 -0.0385687 3.46637e-12 1.52623e-12 -4.57461e-13 0 2.64507e-15
721 12 0.001 -0.035944 0.00332299 -0.0388323 3.2402e-12 2.53105e-12 -9.15626e-13 0 2.7276e-15
1117 14 0.001 -0.015944 0.00332299 -0.0388323 3.22518e-12 2.52747e-12 -9.16329e-13 0 2.7276e-15
1116 14 0.001 -0.015058 0.00370177 -0.0385687 3.48079e-12 1.5298e-12 -4.54801e-13 0 2.64507e-15
1513 16 0.001 0.00405601 0.00332299 -0.0388323 3.23075e-12 2.52969e-12 -9.15573e-13 0 2.7276e-15
1512 16 0.001 0.00494203 0.00370177 -0.0385687 3.47193e-12 1.52919e-12 -4.5696e-13 0 2.64507e-15
1908 18 0.001 0.024942 0.00370177 -0.0385687 3.46764e-12 1.52621e-12 -4.58445e-13 0 2.64507e-15
1909 18 0.001 0.024056 0.00332299 -0.0388323 3.22296e-12 2.53008e-12 -9.1763e-13 0 2.7276e-15
338 11 0.001 -0.050371 0.00130739 -0.0369739 9.28866e-13 -3.63979e-12 -1.05214e-12 0 2.50739e-15
714 12 0.001 -0.030371 0.00130739 -0.0369739 9.09824e-13 -3.64399e-12 -1.0506e-12 0 2.50739e-15
1110 14 0.001 -0.010371 0.00130739 -0.0369739 9.25798e-13 -3.64023e-12 -1.05067e-12 0 2.50739e-15
1506 16 0.001 0.00962904 0.00130739 -0.0369739 9.30554e-13 -3.63698e-12 -1.05089e-12 0 2.50739e-15
1902 18 0.001 0.029629 0.00130739 -0.0369739 9.20269e-13 -3.63678e-12 -1.05128e-12 0 2.50739e-15
340 11 0.001 -0.0514456 0.00288687 -0.0375074 2.48869e-12 -2.38802e-12 -2.89946e-13 0 2.4336e-15
339 11 0.001 -0.0508088 0.00216478 -0.0372407 1.76922e-12 -3.12024e-12 -6.47912e-13 0 2.45596e-15
715 12 0.001 -0.0308088 0.00216478 -0.0372407 1.74558e-12 -3.11995e-12 -6.52328e-13 0 2.45596e-15
716 12 0.001 -0.0314456 0.00288687 -0.0375074 2.48452e-12 -2.37919e-12 -2.94087e-13 0 2.4336e-15
1111 14 0.001 -0.0108088 0.00216478 -0.0372407 1.75647e-12 -3.11314e-12 -6.51252e-13 0 2.45596e-15
1112 14 0.001 -0.0114456 0.00288687 -0.0375074 2.43858e-12 -2.39253e-12 -3.01048e-13 0 2.4336e-15
1508 16 0.001 0.00855438 0.00288687 -0.0375074 2.45426e-12 -2.39188e-12 -2.98665e-13 0 2.4336e-15
1507 16 0.001 0.00919116 0.00216478 -0.0372407 1.74357e-12 -3.11848e-12 -6.52272e-13 0 2.45596e-15
1903 18 0.001 0.0291912 0.00216478 -0.0372407 1.74584e-12 -3.12239e-12 -6.51263e-13 0 2.45596e-15
1904 18 0.001 0.0285544 0.00288687 -0.0375074 2.44375e-12 -2.37977e-12 -3.02485e-13 0 2.4336e-15
343 11 0.001 -0.0541059 0.00384924 -0.0383044 3.52808e-12 4.9344e-13 -1.20419e-13 0 2.55898e-15
342 11 0.001 -0.0531472 0.00375624 -0.0380394 3.41847e-12 -5.33436e-13 1.58741e-14 0 2.48801e-15
341 11 0.001 -0.0522416 0.00342863 -0.0377737 2.87022e-12 -1.51892e-12 -8.42472e-14 0 2.44433e-15
719 12 0.001 -0.0341059 0.00384924 -0.0383044 3.51346e-12 4.8187e-13 -1.24976e-13 0 2.55898e-15
718 12 0.001 -0.0331472 0.00375624 -0.0380394 3.41549e-12 -5.37143e-13 1.55044e-14 0 2.48801e-15
717 12 0.001 -0.0322416 0.00342863 -0.0377737 2.91378e-12 -1.51961e-12 -7.23074e-14 0 2.44433e-15
1115 14 0.001 -0.0141059 0.00384924 -0.0383044 3.52329e-12 4.84841e-13 -1.22087e-13 0 2.55898e-15
1113 14 0.001 -0.0122416 0.00342863 -0.0377737 2.98863e-12 -1.51805e-12 -5.52407e-14 0 2.44433e-15
1114 14 0.001 -0.0131472 0.00375624 -0.0380394 3.35964e-12 -5.38087e-13 1.30895e-15 0 2.48801e-15
1511 16 0.001 0.0058941 0.00384924 -0.0383044 3.52738e-12 4.90807e-13 -1.20851e-13 0 2.55898e-15
1510 16 0.001 0.00685281 0.00375624 -0.0380394 3.35667e-12 -5.51653e-13 7.91248e-16 0 2.48801e-15
1509 16 0.001 0.00775839 0.00342863 -0.0377737 2.98281e-12 -1.50811e-12 -5.68936e-14 0 2.44433e-15
1907 18 0.001 0.0258941 0.00384924 -0.0383044 3.5486e-12 4.83275e-13 -1.15463e-13 0 2.55898e-15
1906 18 0.001 0.0268528 0.00375624 -0.0380394 3.32851e-12 -5.36662e-13 -6.50243e-15 0 2.48801e-15
1905 18 0.001 0.0277584 0.00342863 -0.0377737 3.00379e-12 -1.52357e-12 -5.08556e-14 0 2.44433e-15
333 11 0.001 -0.0516166 -0.00303577 -0.0356447 -3.13638e-12 -2.51333e-12 -1.58008e-12 0 2.95618e-15
709 12 0.001 -0.0316166 -0.00303577 -0.0356447 -3.1061e-12 -2.53336e-12 -1.58374e-12 0 2.95618e-15
1105 14 0.001 -0.0116166 -0.00303577 -0.0356447 -3.07467e-12 -2.53459e-12 -1.59059e-12 0 2.95618e-15
1501 16 0.001 0.00838338 -0.00303577 -0.0356447 -3.0783e-12 -2.51862e-12 -1.59268e-12 0 2.95618e-15
1897 18 0.001 0.0283834 -0.00303577 -0.0356447 -3.04456e-12 -2.5284e-12 -1.5978e-12 0 2.95618e-15
334 11 0.001 -0.0509391 -0.00235105 -0.0359096 -2.43576e-12 -3.2308e-12 -1.76664e-12 0 2.86167e-15
335 11 0.001 -0.0504525 -0.00151993 -0.036175 -1.79903e-12 -3.68069e-12 -1.7923e-12 0 2.765e-15
710 12 0.001 -0.0309391 -0.00235105 -0.0359096 -2.44832e-12 -3.20677e-12 -1.7692e-12 0 2.86167e-15
711 12 0.001 -0.0304525 -0.00151993 -0.036175 -1.77169e-12 -3.6976e-12 -1.78974e-12 0 2.765e-15
1106 14 0.001 -0.0109391 -0.00235105 -0.0359096 -2.48501e-12 -3.20654e-12 -1.7629e-12 0 2.86167e-15
1107 14 0.001 -0.0104525 -0.00151993 -0.036175 -1.75365e-12 -3.69509e-12 -1.79315e-12 0 2.765e-15
1502 16 0.001 0.00906087 -0.00235105 -0.0359096 -2.47631e-12 -3.21532e-12 -1.76277e-12 0 2.86167e-15
1503 16 0.001 0.00954751 -0.00151993 -0.036175 -1.76035e-12 -3.69628e-12 -1.79201e-12 0 2.765e-15
1898 18 0.001 0.0290609 -0.00235105 -0.0359096 -2.48794e-12 -3.20488e-12 -1.76231e-12 0 2.86167e-15
1899 18 0.001 0.0295475 -0.00151993 -0.036175 -1.76622e-12 -3.70215e-12 -1.78994e-12 0 2.765e-15
336 11 0.001 -0.050187 -0.000594265 -0.0364409 -8.32939e-13 -3.93181e-12 -1.68155e-12 0 2.66957e-15
712 12 0.001 -0.030187 -0.000594265 -0.0364409 -8.99169e-13 -3.92681e-12 -1.68129e-12 0 2.66957e-15
1108 14 0.001 -0.010187 -0.000594265 -0.0364409 -8.86733e-13 -3.93071e-12 -1.67972e-12 0 2.66957e-15
1504 16 0.001 0.00981297 -0.000594265 -0.0364409 -8.81717e-13 -3.92831e-12 -1.68048e-12 0 2.66957e-15
1900 18 0.001 0.029813 -0.000594265 -0.0364409 -8.8903e-13 -3.92574e-12 -1.68212e-12 0 2.66957e-15
337 11 0.001 -0.0501593 0.000368188 -0.0367073 -2.12773e-14 -3.87449e-12 -1.4252e-12 0 2.58121e-15
713 12 0.001 -0.0301593 0.000368188 -0.0367073 4.68055e-14 -3.87355e-12 -1.42468e-12 0 2.58121e-15
1109 14 0.001 -0.0101593 0.000368188 -0.0367073 1.84037e-14 -3.87199e-12 -1.42606e-12 0 2.58121e-15
1505 16 0.001 0.00984071 0.000368188 -0.0367073 1.46307e-14 -3.87375e-12 -1.42562e-12 0 2.58121e-15
1901 18 0.001 0.0298407 0.000368188 -0.0367073 3.64652e-14 -3.87519e-12 -1.42446e-12 0 2.58121e-15
328 11 0.001 -0.0561336 -0.00321518 -0.0343232 -2.81611e-12 1.7847e-12 -4.99787e-13 0 3.42853e-15
329 11 0.001 -0.0552707 -0.00364368 -0.0345875 -3.26873e-12 1.00403e-12 -5.81877e-13 0 3.3256e-15
330 11 0.001 -0.0543286 -0.00384509 -0.0348517 -3.571e-12 7.589e-14 -7.65757e-13 0 3.22953e-15
331 11 0.001 -0.0533659 -0.00380685 -0.0351158 -3.59737e-12 -8.16291e-13 -1.03602e-12 0 3.13796e-15
332 11 0.001 -0.0524427 -0.00353134 -0.0353802 -3.41301e-12 -1.73243e-12 -1.33595e-12 0 3.04779e-15
704 12 0.001 -0.0361336 -0.00321518 -0.0343232 -2.88047e-12 1.77059e-12 -4.91275e-13 0 3.42853e-15
705 12 0.001 -0.0352707 -0.00364368 -0.0345875 -3.26896e-12 1.00731e-12 -5.78446e-13 0 3.3256e-15
706 12 0.001 -0.0343286 -0.00384509 -0.0348517 -3.56156e-12 8.49044e-14 -7.68348e-13 0 3.22953e-15
707 12 0.001 -0.0333659 -0.00380685 -0.0351158 -3.58683e-12 -8.24937e-13 -1.03975e-12 0 3.13796e-15
708 12 0.001 -0.0324427 -0.00353134 -0.0353802 -3.43984e-12 -1.72194e-12 -1.33006e-12 0 3.04779e-15
1100 14 0.001 -0.0161336 -0.00321518 -0.0343232 -2.76596e-12 1.80769e-12 -5.10467e-13 0 3.42853e-15
1101 14 0.001 -0.0152707 -0.00364368 -0.0345875 -3.32265e-12 9.70658e-13 -5.69774e-13 0 3.3256e-15
1102 14 0.001 -0.0143286 -0.00384509 -0.0348517 -3.52271e-12 1.03021e-13 -7.76362e-13 0 3.22953e-15
1104 14 0.001 -0.0124427 -0.00353134 -0.0353802 -3.42878e-12 -1.71877e-12 -1.33247e-12 0 3.04779e-15
1103 14 0.001 -0.0133659 -0.00380685 -0.0351158 -3.63961e-12 -8.29184e-13 -1.02686e-12 0 3.13796e-15
1496 16 0.001 0.00386638 -0.00321518 -0.0343232 -2.83594e-12 1.79673e-12 -4.96355e-13 0 3.42853e-15
1497 16 0.001 0.00472926 -0.00364368 -0.0345875 -3.28158e-12 9.83362e-13 -5.78138e-13 0 3.3256e-15
1498 16 0.001 0.00567142 -0.00384509 -0.0348517 -3.54958e-12 9.95468e-14 -7.70052e-13 0 3.22953e-15
1499 16 0.001 0.0066341 -0.00380685 -0.0351158 -3.6149e-12 -8.29278e-13 -1.03333e-12 0 3.13796e-15
1500 16 0.001 0.00755728 -0.00353134 -0.0353802 -3.43929e-12 -1.72753e-12 -1.32839e-12 0 3.04779e-15
1892 18 0.001 0.0238664 -0.00321518 -0.0343232 -2.82102e-12 1.79594e-12 -5.00435e-13 0 3.42853e-15
1893 18 0.001 0.0247293 -0.00364368 -0.0345875 -3.27002e-12 9.77716e-13 -5.81135e-13 0 3.3256e-15
1894 18 0.001 0.0256714 -0.00384509 -0.0348517 -3.54343e-12 1.01452e-13 -7.72372e-13 0 3.22953e-15
1895 18 0.001 0.0266341 -0.00380685 -0.0351158 -3.64624e-12 -8.35289e-13 -1.02338e-12 0 3.13796e-15
1896 18 0.001 0.0275573 -0.00353134 -0.0353802 -3.44416e-12 -1.71793e-12 -1.32978e-12 0 3.04779e-15
327 11 0.001 -0.0568634 -0.00258632 -0.0340588 -2.2615e-12 2.49584e-12 -5.14894e-13 0 3.53922e-15
703 12 0.001 -0.0368634 -0.00258632 -0.0340588 -2.14471e-12 2.50573e-12 -5.31979e-13 0 3.53922e-15
1099 14 0.001 -0.0168634 -0.00258632 -0.0340588 -2.29364e-12 2.4813e-12 -5.09632e-13 0 3.53922e-15