ITEM: TIMESTEP
4100000
ITEM: NUMBER OF ATOMS
1970
ITEM: BOX BOUNDS ff ff ff
-6.0000000000000005e-02 6.0000000000000005e-02
-6.0000000000000001e-03 6.0000000000000001e-03
-5.5000000000000000e-02 5.5000000000000000e-02
ITEM: ATOMS id type radius x y z fx fy fz c_bendingE c_stretchingE
384 11 0.001 -0.0508483 -0.00262736 -0.0489923 -1.27762e-12 5.07536e-14 -1.03291e-12 0 1.88241e-16
385 11 0.001 -0.05034 -0.00182977 -0.0493141 -9.1093e-13 -7.94192e-14 -6.77632e-13 0 6.89533e-15
760 12 0.001 -0.0308483 -0.00262736 -0.0489923 -1.30878e-12 3.69369e-14 -1.01855e-12 0 1.88315e-16
761 12 0.001 -0.03034 -0.00182977 -0.0493141 -9.03366e-13 -7.39305e-14 -6.8e-13 0 6.89493e-15
1156 14 0.001 -0.0108483 -0.00262736 -0.0489923 -1.28233e-12 3.63498e-14 -1.0237e-12 0 1.88315e-16
1157 14 0.001 -0.01034 -0.00182977 -0.0493141 -9.10333e-13 -7.28018e-14 -6.79085e-13 0 6.89493e-15
1552 16 0.001 0.00915174 -0.00262736 -0.0489923 -1.27245e-12 4.59949e-14 -1.02767e-12 0 1.88315e-16
1553 16 0.001 0.00965995 -0.00182977 -0.0493141 -9.08567e-13 -7.78599e-14 -6.77794e-13 0 6.89493e-15
1948 18 0.001 0.0291517 -0.00262736 -0.0489923 -1.28546e-12 4.2217e-14 -1.02471e-12 0 1.88315e-16
1949 18 0.001 0.02966 -0.00182977 -0.0493141 -9.07063e-13 -7.68425e-14 -6.78322e-13 0 6.89493e-15
2 2 0.001 -0.05 -4.31175e-17 -0.05 -4.54662e-06 5.66952e-06 1.98293e-06 0 5.14372e-15
386 11 0.001 -0.0500515 -0.000934886 -0.0496516 -4.53942e-13 -8.66791e-14 -3.33691e-13 0 1.18544e-14
762 12 0.001 -0.0300515 -0.000934886 -0.0496516 -4.59506e-13 -9.41199e-14 -3.29771e-13 0 1.18535e-14
4 4 0.001 -0.03 -4.31175e-17 -0.05 -4.54672e-06 5.66989e-06 1.9828e-06 0 5.14327e-15
6 6 0.001 -0.01 -4.31175e-17 -0.05 -4.54672e-06 5.66989e-06 1.9828e-06 0 5.14327e-15
1158 14 0.001 -0.0100515 -0.000934886 -0.0496516 -4.58502e-13 -8.77891e-14 -3.3209e-13 0 1.18535e-14
8 8 0.001 0.01 -4.31175e-17 -0.05 -4.54672e-06 5.66989e-06 1.9828e-06 0 5.14327e-15
1554 16 0.001 0.00994854 -0.000934886 -0.0496516 -4.61892e-13 -8.81813e-14 -3.31491e-13 0 1.18535e-14
10 10 0.001 0.03 -4.31175e-17 -0.05 -4.54672e-06 5.66989e-06 1.9828e-06 0 5.14327e-15
1950 18 0.001 0.0299485 -0.000934886 -0.0496516 -4.58302e-13 -8.46354e-14 -3.3301e-13 0 1.18535e-14
379 11 0.001 -0.0552334 -0.00373184 -0.0476768 -1.87536e-12 1.56642e-12 -1.8751e-12 0 1.91422e-15
380 11 0.001 -0.0542905 -0.00397107 -0.0479041 -2.00968e-12 1.20549e-12 -1.87788e-12 0 1.54316e-15
381 11 0.001 -0.0533214 -0.00397152 -0.0481466 -1.98749e-12 8.81123e-13 -1.79074e-12 0 9.81724e-16
382 11 0.001 -0.0523867 -0.00373448 -0.0484077 -1.83404e-12 5.29522e-13 -1.60746e-12 0 4.17155e-16
383 11 0.001 -0.0515448 -0.00327633 -0.0486896 -1.63517e-12 2.5851e-13 -1.33919e-12 0 8.49442e-17
755 12 0.001 -0.0352334 -0.00373184 -0.0476768 -1.89565e-12 1.56982e-12 -1.8652e-12 0 1.91422e-15
756 12 0.001 -0.0342905 -0.00397107 -0.0479041 -1.96024e-12 1.21871e-12 -1.88952e-12 0 1.54312e-15
757 12 0.001 -0.0333214 -0.00397152 -0.0481466 -2.00964e-12 8.57913e-13 -1.77874e-12 0 9.8166e-16
758 12 0.001 -0.0323867 -0.00373448 -0.0484077 -1.845e-12 5.38828e-13 -1.60266e-12 0 4.17092e-16
759 12 0.001 -0.0315448 -0.00327633 -0.0486896 -1.58264e-12 2.72658e-13 -1.35331e-12 0 8.49251e-17
1151 14 0.001 -0.0152334 -0.00373184 -0.0476768 -1.89857e-12 1.55428e-12 -1.86637e-12 0 1.91422e-15
1152 14 0.001 -0.0142905 -0.00397107 -0.0479041 -1.99364e-12 1.22715e-12 -1.88128e-12 0 1.54312e-15
1153 14 0.001 -0.0133214 -0.00397152 -0.0481466 -1.98374e-12 8.63184e-13 -1.78515e-12 0 9.8166e-16
1154 14 0.001 -0.0123867 -0.00373448 -0.0484077 -1.84282e-12 5.34196e-13 -1.60303e-12 0 4.17092e-16
1155 14 0.001 -0.0115448 -0.00327633 -0.0486896 -1.61742e-12 2.69861e-13 -1.3447e-12 0 8.49251e-17
1547 16 0.001 0.00476658 -0.00373184 -0.0476768 -1.90216e-12 1.56298e-12 -1.86538e-12 0 1.91422e-15
1548 16 0.001 0.0057095 -0.00397107 -0.0479041 -1.98904e-12 1.21926e-12 -1.88122e-12 0 1.54312e-15
1549 16 0.001 0.00667864 -0.00397152 -0.0481466 -1.96843e-12 8.71372e-13 -1.79109e-12 0 9.8166e-16
1550 16 0.001 0.00761332 -0.00373448 -0.0484077 -1.85601e-12 5.27515e-13 -1.59769e-12 0 4.17092e-16
1551 16 0.001 0.00845515 -0.00327633 -0.0486896 -1.62602e-12 2.65828e-13 -1.34285e-12 0 8.49251e-17
1943 18 0.001 0.0247666 -0.00373184 -0.0476768 -1.89583e-12 1.56075e-12 -1.86757e-12 0 1.91422e-15
1944 18 0.001 0.0257095 -0.00397107 -0.0479041 -1.99258e-12 1.22211e-12 -1.87992e-12 0 1.54312e-15
1945 18 0.001 0.0266786 -0.00397152 -0.0481466 -1.98993e-12 8.62807e-13 -1.7854e-12 0 9.8166e-16
1946 18 0.001 0.0276133 -0.00373448 -0.0484077 -1.83356e-12 5.43294e-13 -1.60554e-12 0 4.17092e-16
1947 18 0.001 0.0284552 -0.00327633 -0.0486896 -1.62298e-12 2.58234e-13 -1.34144e-12 0 8.49251e-17
378 11 0.001 -0.0560911 -0.00326777 -0.0474599 -1.6721e-12 1.88275e-12 -1.75143e-12 0 2.00512e-15
754 12 0.001 -0.0360911 -0.00326777 -0.0474599 -1.74166e-12 1.86801e-12 -1.73937e-12 0 2.00516e-15
1150 14 0.001 -0.0160911 -0.00326777 -0.0474599 -1.68791e-12 1.87742e-12 -1.74736e-12 0 2.00516e-15
1546 16 0.001 0.0039089 -0.00326777 -0.0474599 -1.69846e-12 1.86954e-12 -1.74666e-12 0 2.00516e-15
1942 18 0.001 0.0239089 -0.00326777 -0.0474599 -1.68976e-12 1.87146e-12 -1.74745e-12 0 2.00516e-15
376 11 0.001 -0.0573453 -0.00179076 -0.0470361 -9.41178e-13 2.25701e-12 -1.25011e-12 0 1.47632e-15
377 11 0.001 -0.0568099 -0.00260714 -0.0472481 -1.51868e-12 2.11178e-12 -1.51801e-12 0 1.82984e-15
753 12 0.001 -0.0368099 -0.00260714 -0.0472481 -1.35256e-12 2.10768e-12 -1.53791e-12 0 1.82991e-15
752 12 0.001 -0.0373453 -0.00179076 -0.0470361 -1.10808e-12 2.25494e-12 -1.23395e-12 0 1.47641e-15
1149 14 0.001 -0.0168099 -0.00260714 -0.0472481 -1.42476e-12 2.09874e-12 -1.53123e-12 0 1.82991e-15
1148 14 0.001 -0.0173453 -0.00179076 -0.0470361 -1.0204e-12 2.27254e-12 -1.23501e-12 0 1.47641e-15
1544 16 0.001 0.00265471 -0.00179076 -0.0470361 -1.05171e-12 2.26183e-12 -1.2369e-12 0 1.47641e-15
1545 16 0.001 0.00319006 -0.00260714 -0.0472481 -1.40507e-12 2.10594e-12 -1.53178e-12 0 1.82991e-15
1941 18 0.001 0.0231901 -0.00260714 -0.0472481 -1.41396e-12 2.10625e-12 -1.53086e-12 0 1.82991e-15
1940 18 0.001 0.0226547 -0.00179076 -0.0470361 -1.04753e-12 2.26343e-12 -1.23536e-12 0 1.47641e-15
375 11 0.001 -0.0576642 -0.000869255 -0.0468189 -6.91634e-13 2.31032e-12 -8.91661e-13 0 1.05928e-15
751 12 0.001 -0.0376642 -0.000869255 -0.0468189 -6.0719e-13 2.31873e-12 -8.93007e-13 0 1.05937e-15
1147 14 0.001 -0.0176642 -0.000869255 -0.0468189 -6.91474e-13 2.29583e-12 -8.98044e-13 0 1.05937e-15
1543 16 0.001 0.00233582 -0.000869255 -0.0468189 -6.47097e-13 2.3094e-12 -8.9316e-13 0 1.05937e-15
1939 18 0.001 0.0223358 -0.000869255 -0.0468189 -6.52452e-13 2.30229e-12 -8.9661e-13 0 1.05937e-15
373 11 0.001 -0.0575905 0.00105772 -0.0463548 1.8924e-13 2.09483e-12 -1.91921e-13 0 3.85904e-16
374 11 0.001 -0.0577474 0.000100243 -0.0465927 -2.2597e-13 2.25545e-12 -5.35785e-13 0 6.76902e-16
749 12 0.001 -0.0375905 0.00105772 -0.0463548 1.88853e-13 2.08578e-12 -1.93217e-13 0 3.85969e-16
750 12 0.001 -0.0377474 0.000100242 -0.0465927 -2.38182e-13 2.24962e-12 -5.33836e-13 0 6.76982e-16
1145 14 0.001 -0.0175905 0.00105772 -0.0463548 1.49965e-13 2.09564e-12 -1.95807e-13 0 3.85969e-16
1146 14 0.001 -0.0177474 0.000100242 -0.0465927 -1.79089e-13 2.26106e-12 -5.27937e-13 0 6.76982e-16
1541 16 0.001 0.0024095 0.00105772 -0.0463548 1.89481e-13 2.09564e-12 -1.91572e-13 0 3.85969e-16
1542 16 0.001 0.00225261 0.000100242 -0.0465927 -2.29219e-13 2.25591e-12 -5.33201e-13 0 6.76982e-16
1937 18 0.001 0.0224095 0.00105772 -0.0463548 2.01936e-13 2.09232e-12 -1.90942e-13 0 3.85969e-16
1938 18 0.001 0.0222526 0.000100242 -0.0465927 -2.28855e-13 2.26215e-12 -5.3085e-13 0 6.76982e-16
372 11 0.001 -0.057204 0.00194408 -0.0461037 5.61988e-13 1.84299e-12 9.24982e-14 0 1.98737e-16
748 12 0.001 -0.037204 0.00194408 -0.0461037 5.2639e-13 1.84259e-12 8.69654e-14 0 1.98786e-16
1144 14 0.001 -0.017204 0.00194408 -0.0461037 5.75327e-13 1.82943e-12 9.33348e-14 0 1.98786e-16
1540 16 0.001 0.00279597 0.00194408 -0.0461037 5.65914e-13 1.8292e-12 9.34671e-14 0 1.98786e-16
1936 18 0.001 0.022796 0.00194408 -0.0461037 5.45942e-13 1.83134e-12 9.03908e-14 0 1.98786e-16
371 11 0.001 -0.0566127 0.00270477 -0.0458397 9.24741e-13 1.48695e-12 3.07978e-13 0 9.71592e-17
747 12 0.001 -0.0366127 0.00270477 -0.0458397 9.77802e-13 1.4843e-12 3.19257e-13 0 9.71931e-17
1143 14 0.001 -0.0166127 0.00270477 -0.0458397 9.07918e-13 1.48628e-12 3.04347e-13 0 9.71931e-17
1539 16 0.001 0.00338729 0.00270477 -0.0458397 8.92835e-13 1.48768e-12 2.99689e-13 0 9.71931e-17
1935 18 0.001 0.0233873 0.00270477 -0.0458397 9.06553e-13 1.48303e-12 3.01834e-13 0 9.71931e-17
370 11 0.001 -0.0558538 0.00329306 -0.045564 1.14448e-12 1.08466e-12 4.02222e-13 0 5.19693e-17
369 11 0.001 -0.0549749 0.00367293 -0.0452789 1.35354e-12 6.23333e-13 4.13914e-13 0 3.92085e-17
368 11 0.001 -0.0540309 0.00382116 -0.0449875 1.44656e-12 1.5297e-13 3.1596e-13 0 4.73281e-17
367 11 0.001 -0.0530808 0.00372881 -0.0446928 1.42141e-12 -3.52704e-13 1.38337e-13 0 7.50747e-17
745 12 0.001 -0.0349749 0.00367293 -0.0452789 1.40557e-12 6.19395e-13 4.28381e-13 0 3.9228e-17
746 12 0.001 -0.0358538 0.00329306 -0.045564 1.11106e-12 1.09162e-12 3.97587e-13 0 5.19934e-17
744 12 0.001 -0.0340309 0.00382116 -0.0449875 1.36633e-12 1.41923e-13 2.94805e-13 0 4.73469e-17
743 12 0.001 -0.0330809 0.00372881 -0.0446928 1.47241e-12 -3.2841e-13 1.51528e-13 0 7.50945e-17
1142 14 0.001 -0.0158538 0.00329306 -0.045564 1.15165e-12 1.08532e-12 4.06081e-13 0 5.19934e-17
1140 14 0.001 -0.0140309 0.00382116 -0.0449875 1.43226e-12 1.49675e-13 3.14398e-13 0 4.73469e-17
1141 14 0.001 -0.0149749 0.00367293 -0.0452789 1.36813e-12 6.19876e-13 4.18406e-13 0 3.9228e-17
1139 14 0.001 -0.0130809 0.00372881 -0.0446928 1.45209e-12 -3.37789e-13 1.46671e-13 0 7.50945e-17
1538 16 0.001 0.00414618 0.00329306 -0.045564 1.16242e-12 1.07823e-12 4.08972e-13 0 5.19934e-17
1537 16 0.001 0.00502507 0.00367293 -0.0452789 1.36386e-12 6.29783e-13 4.17119e-13 0 3.9228e-17
1536 16 0.001 0.00596905 0.00382116 -0.0449875 1.44104e-12 1.43221e-13 3.17314e-13 0 4.73469e-17
1535 16 0.001 0.00691915 0.00372881 -0.0446928 1.44629e-12 -3.37612e-13 1.4467e-13 0 7.50945e-17
1933 18 0.001 0.0250251 0.00367293 -0.0452789 1.37728e-12 6.25399e-13 4.21095e-13 0 3.9228e-17
1934 18 0.001 0.0241462 0.00329306 -0.045564 1.15637e-12 1.0837e-12 4.08052e-13 0 5.19934e-17
1932 18 0.001 0.0259691 0.00382116 -0.0449875 1.42451e-12 1.48582e-13 3.12115e-13 0 4.73469e-17
1931 18 0.001 0.0269191 0.00372881 -0.0446928 1.4556e-12 -3.35955e-13 1.47127e-13 0 7.50945e-17
361 11 0.001 -0.0501731 -0.000619455 -0.0429965 -2.79889e-13 -1.82626e-12 -9.32022e-13 0 3.71893e-16
737 12 0.001 -0.0301731 -0.000619455 -0.0429965 -2.56431e-13 -1.8288e-12 -9.27966e-13 0 3.71894e-16
1133 14 0.001 -0.0101731 -0.000619455 -0.0429965 -2.30241e-13 -1.83187e-12 -9.26447e-13 0 3.71894e-16
1529 16 0.001 0.00982692 -0.000619455 -0.0429965 -2.40686e-13 -1.83272e-12 -9.25829e-13 0 3.71894e-16
1925 18 0.001 0.0298269 -0.000619455 -0.0429965 -2.43596e-13 -1.83098e-12 -9.26652e-13 0 3.71894e-16
362 11 0.001 -0.0501365 0.000342305 -0.0432642 2.0907e-13 -1.85956e-12 -8.73089e-13 0 3.66753e-16
363 11 0.001 -0.0503395 0.00128127 -0.0435384 4.93805e-13 -1.70916e-12 -7.7039e-13 0 3.28097e-16
738 12 0.001 -0.0301365 0.000342306 -0.0432642 1.67325e-13 -1.83713e-12 -8.811e-13 0 3.66757e-16
739 12 0.001 -0.0303395 0.00128127 -0.0435384 5.19562e-13 -1.73815e-12 -7.58114e-13 0 3.28106e-16
1134 14 0.001 -0.0101365 0.000342306 -0.0432642 1.46207e-13 -1.83833e-12 -8.82059e-13 0 3.66757e-16
1135 14 0.001 -0.0103395 0.00128127 -0.0435384 5.37735e-13 -1.72876e-12 -7.58062e-13 0 3.28106e-16
1530 16 0.001 0.00986348 0.000342306 -0.0432642 1.52481e-13 -1.83851e-12 -8.81627e-13 0 3.66757e-16
1531 16 0.001 0.00966054 0.00128127 -0.0435384 5.35914e-13 -1.73413e-12 -7.57045e-13 0 3.28106e-16
1926 18 0.001 0.0298635 0.000342306 -0.0432642 1.57269e-13 -1.83893e-12 -8.81713e-13 0 3.66757e-16
1927 18 0.001 0.0296605 0.00128127 -0.0435384 5.29993e-13 -1.73012e-12 -7.58685e-13 0 3.28106e-16
365 11 0.001 -0.0513968 0.00286039 -0.0441063 1.12051e-12 -1.18968e-12 -3.43335e-13 0 1.90713e-16
364 11 0.001 -0.0507687 0.00213853 -0.0438193 8.85428e-13 -1.5165e-12 -5.6273e-13 0 2.64246e-16
740 12 0.001 -0.0307687 0.00213853 -0.0438193 8.93287e-13 -1.50992e-12 -5.62212e-13 0 2.64261e-16
741 12 0.001 -0.0313968 0.00286039 -0.0441063 1.14414e-12 -1.17738e-12 -3.35905e-13 0 1.90731e-16
1136 14 0.001 -0.0107687 0.00213853 -0.0438193 8.73175e-13 -1.50877e-12 -5.65638e-13 0 2.64261e-16
1137 14 0.001 -0.0113968 0.00286039 -0.0441063 1.15544e-12 -1.18783e-12 -3.31715e-13 0 1.90731e-16
1533 16 0.001 0.00860319 0.00286039 -0.0441063 1.15875e-12 -1.18607e-12 -3.32053e-13 0 1.90731e-16
1532 16 0.001 0.00923131 0.00213853 -0.0438193 8.68085e-13 -1.50418e-12 -5.67391e-13 0 2.64261e-16
1928 18 0.001 0.0292313 0.00213853 -0.0438193 8.79809e-13 -1.50977e-12 -5.6448e-13 0 2.64261e-16
1929 18 0.001 0.0286032 0.00286039 -0.0441063 1.16167e-12 -1.18372e-12 -3.30466e-13 0 1.90731e-16
366 11 0.001 -0.0521841 0.00340174 -0.0443982 1.4329e-12 -7.82987e-13 -6.0802e-14 0 1.2395e-16
742 12 0.001 -0.0321841 0.00340174 -0.0443982 1.36339e-12 -7.97175e-13 -7.68979e-14 0 1.2397e-16
1138 14 0.001 -0.0121841 0.00340174 -0.0443982 1.35102e-12 -7.84033e-13 -8.24292e-14 0 1.2397e-16
1534 16 0.001 0.00781594 0.00340174 -0.0443982 1.3521e-12 -7.84274e-13 -8.14009e-14 0 1.2397e-16
1930 18 0.001 0.0278159 0.00340174 -0.0443982 1.33988e-12 -7.89828e-13 -8.44696e-14 0 1.2397e-16
355 11 0.001 -0.0543524 -0.00384451 -0.0414553 -1.42454e-12 5.0341e-14 -1.88368e-13 0 1.31709e-16
356 11 0.001 -0.0533873 -0.00381279 -0.0417115 -1.40235e-12 -3.8826e-13 -3.22866e-13 0 1.52914e-16
357 11 0.001 -0.0524597 -0.00354333 -0.0419663 -1.34399e-12 -7.81646e-13 -4.80653e-13 0 1.90685e-16
358 11 0.001 -0.0516274 -0.00305288 -0.0422207 -1.18457e-12 -1.17248e-12 -6.43118e-13 0 2.41459e-16
731 12 0.001 -0.0343524 -0.00384451 -0.0414553 -1.48212e-12 4.1772e-14 -1.70375e-13 0 1.31725e-16
732 12 0.001 -0.0333873 -0.00381279 -0.0417115 -1.34937e-12 -3.67826e-13 -3.37192e-13 0 1.52925e-16
733 12 0.001 -0.0324597 -0.00354333 -0.0419663 -1.36719e-12 -8.00232e-13 -4.69915e-13 0 1.90693e-16
734 12 0.001 -0.0316274 -0.00305288 -0.0422207 -1.18661e-12 -1.15931e-12 -6.44271e-13 0 2.41463e-16
1127 14 0.001 -0.0143524 -0.00384451 -0.0414553 -1.3826e-12 4.95401e-14 -1.97149e-13 0 1.31725e-16
1128 14 0.001 -0.0133873 -0.00381279 -0.0417115 -1.41712e-12 -3.84864e-13 -3.17363e-13 0 1.52925e-16
1129 14 0.001 -0.0124597 -0.00354333 -0.0419663 -1.3545e-12 -7.89653e-13 -4.74972e-13 0 1.90693e-16
1130 14 0.001 -0.0116274 -0.00305288 -0.0422207 -1.17138e-12 -1.16148e-12 -6.47523e-13 0 2.41463e-16
1523 16 0.001 0.00564762 -0.00384451 -0.0414553 -1.38257e-12 3.99503e-14 -1.97734e-13 0 1.31725e-16
1524 16 0.001 0.0066127 -0.00381279 -0.0417115 -1.42944e-12 -3.81447e-13 -3.14092e-13 0 1.52925e-16
1525 16 0.001 0.00754033 -0.00354333 -0.0419663 -1.3449e-12 -7.86999e-13 -4.77688e-13 0 1.90693e-16
1526 16 0.001 0.00837265 -0.00305288 -0.0422207 -1.16894e-12 -1.1647e-12 -6.47405e-13 0 2.41463e-16
1919 18 0.001 0.0256476 -0.00384451 -0.0414553 -1.37938e-12 4.8253e-14 -1.98226e-13 0 1.31725e-16
1920 18 0.001 0.0266127 -0.00381279 -0.0417115 -1.43994e-12 -3.85911e-13 -3.11641e-13 0 1.52925e-16
1921 18 0.001 0.0275403 -0.00354333 -0.0419663 -1.32781e-12 -7.87055e-13 -4.81251e-13 0 1.90693e-16
1922 18 0.001 0.0283726 -0.00305288 -0.0422207 -1.18993e-12 -1.15791e-12 -6.44743e-13 0 2.41463e-16
359 11 0.001 -0.0509423 -0.00237208 -0.0424762 -9.39765e-13 -1.47693e-12 -7.93707e-13 0 2.97164e-16
360 11 0.001 -0.0504473 -0.0015436 -0.0427342 -5.94039e-13 -1.71972e-12 -8.90064e-13 0 3.45287e-16
735 12 0.001 -0.0309423 -0.00237208 -0.0424762 -9.26682e-13 -1.49027e-12 -7.90406e-13 0 2.97165e-16
736 12 0.001 -0.0304473 -0.0015436 -0.0427342 -5.98455e-13 -1.70047e-12 -8.93428e-13 0 3.45286e-16
1131 14 0.001 -0.0109423 -0.00237208 -0.0424762 -9.37104e-13 -1.48234e-12 -7.88524e-13 0 2.97165e-16
1132 14 0.001 -0.0104473 -0.0015436 -0.0427342 -6.12395e-13 -1.70929e-12 -8.92687e-13 0 3.45286e-16
1527 16 0.001 0.00905768 -0.00237208 -0.0424762 -9.4418e-13 -1.48016e-12 -7.88e-13 0 2.97165e-16
1528 16 0.001 0.0095527 -0.0015436 -0.0427342 -6.01001e-13 -1.70799e-12 -8.93877e-13 0 3.45286e-16
1923 18 0.001 0.0290577 -0.00237208 -0.0424762 -9.21875e-13 -1.48587e-12 -7.9012e-13 0 2.97165e-16
1924 18 0.001 0.0295527 -0.0015436 -0.0427342 -6.15171e-13 -1.70921e-12 -8.91651e-13 0 3.45286e-16
353 11 0.001 -0.0561558 -0.00320228 -0.0409363 -1.07476e-12 8.06733e-13 -1.2058e-13 0 1.43125e-16
354 11 0.001 -0.0552948 -0.00363664 -0.041197 -1.27789e-12 4.64982e-13 -1.22007e-13 0 1.28152e-16
729 12 0.001 -0.0361558 -0.00320228 -0.0409363 -1.07903e-12 8.31468e-13 -1.13831e-13 0 1.43152e-16
730 12 0.001 -0.0352948 -0.00363664 -0.041197 -1.22226e-12 4.50528e-13 -1.35483e-13 0 1.28173e-16
1125 14 0.001 -0.0161558 -0.00320228 -0.0409363 -1.09893e-12 8.3327e-13 -1.08596e-13 0 1.43152e-16
1126 14 0.001 -0.0152948 -0.00363664 -0.041197 -1.26796e-12 4.52488e-13 -1.23735e-13 0 1.28173e-16
1521 16 0.001 0.00384421 -0.00320228 -0.0409363 -1.0696e-12 8.28713e-13 -1.15591e-13 0 1.43152e-16
1522 16 0.001 0.00470525 -0.00363664 -0.041197 -1.27494e-12 4.58675e-13 -1.21591e-13 0 1.28173e-16
1917 18 0.001 0.0238442 -0.00320228 -0.0409363 -1.09681e-12 8.3459e-13 -1.09215e-13 0 1.43152e-16
1918 18 0.001 0.0247052 -0.00363664 -0.041197 -1.25883e-12 4.49811e-13 -1.25868e-13 0 1.28173e-16
351 11 0.001 -0.0574281 -0.00177517 -0.0404084 -5.40747e-13 1.4025e-12 -2.63098e-13 0 2.35167e-16
352 11 0.001 -0.0568819 -0.0025686 -0.0406733 -7.59511e-13 1.18994e-12 -1.66981e-13 0 1.78284e-16
727 12 0.001 -0.0374281 -0.00177517 -0.0404084 -5.12146e-13 1.40069e-12 -2.67484e-13 0 2.35211e-16
728 12 0.001 -0.0368819 -0.0025686 -0.0406733 -7.8911e-13 1.17015e-12 -1.6174e-13 0 1.78318e-16
1123 14 0.001 -0.0174281 -0.00177517 -0.0404084 -4.54352e-13 1.4101e-12 -2.69801e-13 0 2.35211e-16
1124 14 0.001 -0.0168819 -0.0025686 -0.0406733 -7.81428e-13 1.15807e-12 -1.67749e-13 0 1.78318e-16
1519 16 0.001 0.00257188 -0.00177517 -0.0404084 -4.66431e-13 1.40437e-12 -2.7057e-13 0 2.35211e-16
1520 16 0.001 0.00311806 -0.0025686 -0.0406733 -8.02942e-13 1.16488e-12 -1.61851e-13 0 1.78318e-16
1915 18 0.001 0.0225719 -0.00177517 -0.0404084 -4.56617e-13 1.40722e-12 -2.7057e-13 0 2.35211e-16
1916 18 0.001 0.0231181 -0.0025686 -0.0406733 -7.90411e-13 1.16102e-12 -1.65226e-13 0 1.78318e-16
350 11 0.001 -0.0577604 -0.000871434 -0.0401422 -2.69358e-14 1.59706e-12 -4.06253e-13 0 3.13103e-16
726 12 0.001 -0.0377604 -0.000871435 -0.0401422 -3.64251e-14 1.5915e-12 -4.02343e-13 0 3.13157e-16
1122 14 0.001 -0.0177604 -0.000871435 -0.0401422 -1.36154e-13 1.59199e-12 -3.96856e-13 0 3.13157e-16
1518 16 0.001 0.00223961 -0.000871435 -0.0401422 -1.01915e-13 1.59483e-12 -3.97801e-13 0 3.13157e-16
1914 18 0.001 0.0222396 -0.000871435 -0.0401422 -1.19691e-13 1.59396e-12 -3.96824e-13 0 3.13157e-16
348 11 0.001 -0.0577153 0.0010383 -0.0396083 6.81164e-13 1.65327e-12 -6.70545e-13 0 5.08086e-16
349 11 0.001 -0.0578581 8.62832e-05 -0.0398752 2.49475e-13 1.65124e-12 -5.46519e-13 0 4.07252e-16
724 12 0.001 -0.0377153 0.0010383 -0.0396083 7.23428e-13 1.61298e-12 -6.73687e-13 0 5.08157e-16
725 12 0.001 -0.0378581 8.62823e-05 -0.0398752 2.43301e-13 1.66174e-12 -5.43323e-13 0 4.07316e-16
1120 14 0.001 -0.0177153 0.0010383 -0.0396083 6.32732e-13 1.62577e-12 -6.76888e-13 0 5.08157e-16
1121 14 0.001 -0.0178581 8.62823e-05 -0.0398752 3.38841e-13 1.65539e-12 -5.4482e-13 0 4.07316e-16
1516 16 0.001 0.00228472 0.0010383 -0.0396083 6.70347e-13 1.62072e-12 -6.75744e-13 0 5.08157e-16
1517 16 0.001 0.00214186 8.62823e-05 -0.0398752 2.9822e-13 1.65658e-12 -5.44746e-13 0 4.07316e-16
1912 18 0.001 0.0222847 0.0010383 -0.0396083 6.52388e-13 1.62229e-12 -6.76606e-13 0 5.08157e-16
1913 18 0.001 0.0221419 8.62823e-05 -0.0398752 3.14473e-13 1.65594e-12 -5.44843e-13 0 4.07316e-16
347 11 0.001 -0.0573407 0.00192525 -0.0393417 1.06473e-12 1.47965e-12 -7.65582e-13 0 6.02852e-16
346 11 0.001 -0.0567578 0.00269178 -0.0390759 1.23898e-12 1.32104e-12 -8.17175e-13 0 6.78595e-16
722 12 0.001 -0.0367578 0.00269178 -0.0390759 1.37766e-12 1.27742e-12 -7.97495e-13 0 6.78675e-16
723 12 0.001 -0.0373407 0.00192525 -0.0393417 9.69178e-13 1.51868e-12 -7.66818e-13 0 6.02929e-16
1118 14 0.001 -0.0167578 0.00269178 -0.0390759 1.30179e-12 1.28908e-12 -8.07827e-13 0 6.78675e-16
1119 14 0.001 -0.0173407 0.00192525 -0.0393417 1.06439e-12 1.50648e-12 -7.57448e-13 0 6.02929e-16
1515 16 0.001 0.00265926 0.00192525 -0.0393417 1.03703e-12 1.51562e-12 -7.58561e-13 0 6.02929e-16
1514 16 0.001 0.00324218 0.00269178 -0.0390759 1.32023e-12 1.28035e-12 -8.06408e-13 0 6.78675e-16
1910 18 0.001 0.0232422 0.00269178 -0.0390759 1.3066e-12 1.28224e-12 -8.08151e-13 0 6.78675e-16
1911 18 0.001 0.0226593 0.00192525 -0.0393417 1.05087e-12 1.51312e-12 -7.57846e-13 0 6.02929e-16
345 11 0.001 -0.0560029 0.00329001 -0.0388109 1.68037e-12 9.70848e-13 -7.62102e-13 0 7.25564e-16
344 11 0.001 -0.055123 0.00368256 -0.0385468 1.59014e-12 6.76854e-13 -7.33633e-13 0 7.39683e-16
721 12 0.001 -0.0360029 0.00329001 -0.0388109 1.52001e-12 1.0021e-12 -7.88644e-13 0 7.25645e-16
720 12 0.001 -0.035123 0.00368256 -0.0385468 1.65722e-12 6.45945e-13 -7.20274e-13 0 7.39763e-16
1117 14 0.001 -0.0160029 0.00329001 -0.0388109 1.54299e-12 9.8937e-13 -7.86663e-13 0 7.25645e-16
1116 14 0.001 -0.015123 0.00368256 -0.0385468 1.66637e-12 6.5477e-13 -7.17036e-13 0 7.39763e-16
1513 16 0.001 0.00399712 0.00329001 -0.0388109 1.53178e-12 9.95471e-13 -7.8806e-13 0 7.25645e-16
1512 16 0.001 0.00487697 0.00368256 -0.0385468 1.6784e-12 6.48688e-13 -7.14483e-13 0 7.39763e-16
1909 18 0.001 0.0239971 0.00329001 -0.0388109 1.54904e-12 9.91487e-13 -7.85276e-13 0 7.25645e-16
1908 18 0.001 0.024877 0.00368256 -0.0385468 1.66402e-12 6.55841e-13 -7.16884e-13 0 7.39763e-16
338 11 0.001 -0.0503963 0.00136015 -0.0369639 5.16503e-13 -1.14396e-12 -7.51503e-14 0 4.88098e-16
714 12 0.001 -0.0303963 0.00136015 -0.0369639 5.54357e-13 -1.11403e-12 -8.10024e-14 0 4.88175e-16
1110 14 0.001 -0.0103963 0.00136015 -0.0369639 5.4023e-13 -1.10821e-12 -8.33977e-14 0 4.88175e-16
1506 16 0.001 0.00960369 0.00136015 -0.0369639 5.39024e-13 -1.11324e-12 -8.24343e-14 0 4.88175e-16
1902 18 0.001 0.0296037 0.00136015 -0.0369639 5.44764e-13 -1.10706e-12 -8.33694e-14 0 4.88175e-16
340 11 0.001 -0.0514965 0.00292343 -0.037493 1.22914e-12 -7.19531e-13 -2.00235e-13 0 5.75548e-16
339 11 0.001 -0.0508479 0.00221096 -0.0372288 9.15105e-13 -9.89193e-13 -1.09556e-13 0 5.25994e-16
715 12 0.001 -0.0308479 0.00221096 -0.0372288 9.07566e-13 -9.7703e-13 -1.08201e-13 0 5.26069e-16
716 12 0.001 -0.0314965 0.00292343 -0.037493 1.1922e-12 -7.41534e-13 -2.00266e-13 0 5.75623e-16
1111 14 0.001 -0.0108479 0.00221096 -0.0372288 9.13464e-13 -9.82747e-13 -1.06743e-13 0 5.26069e-16
1112 14 0.001 -0.0114965 0.00292343 -0.037493 1.21671e-12 -7.35182e-13 -1.95583e-13 0 5.75623e-16
1508 16 0.001 0.00850353 0.00292343 -0.037493 1.21213e-12 -7.4108e-13 -1.95477e-13 0 5.75623e-16
1507 16 0.001 0.00915207 0.00221096 -0.0372288 9.18726e-13 -9.75909e-13 -1.07257e-13 0 5.26069e-16
1903 18 0.001 0.0291521 0.00221096 -0.0372288 9.00154e-13 -9.80447e-13 -1.09407e-13 0 5.26069e-16
1904 18 0.001 0.0285035 0.00292343 -0.037493 1.22486e-12 -7.41956e-13 -1.93334e-13 0 5.75623e-16
343 11 0.001 -0.0541732 0.00384485 -0.0382832 1.6907e-12 2.70236e-13 -6.07078e-13 0 7.23217e-16
342 11 0.001 -0.0532127 0.00376672 -0.0380199 1.65455e-12 -8.21755e-14 -4.574e-13 0 6.83577e-16
341 11 0.001 -0.0523015 0.00345305 -0.0377566 1.4496e-12 -4.45686e-13 -3.22679e-13 0 6.30918e-16
719 12 0.001 -0.0341732 0.00384485 -0.0382832 1.70457e-12 2.91253e-13 -5.9874e-13 0 7.23296e-16
718 12 0.001 -0.0332127 0.00376672 -0.0380199 1.59405e-12 -9.72389e-14 -4.67969e-13 0 6.83654e-16
717 12 0.001 -0.0323015 0.00345305 -0.0377566 1.50958e-12 -4.21825e-13 -3.10854e-13 0 6.30993e-16
1115 14 0.001 -0.0141732 0.00384485 -0.0382832 1.70186e-12 2.81794e-13 -5.989e-13 0 7.23296e-16
1113 14 0.001 -0.0123015 0.00345305 -0.0377566 1.45856e-12 -4.30825e-13 -3.21735e-13 0 6.30993e-16
1114 14 0.001 -0.0132127 0.00376672 -0.0380199 1.61938e-12 -8.44067e-14 -4.62971e-13 0 6.83654e-16
1511 16 0.001 0.00582682 0.00384485 -0.0382832 1.68695e-12 2.91606e-13 -6.02805e-13 0 7.23296e-16
1510 16 0.001 0.00678734 0.00376672 -0.0380199 1.62632e-12 -9.43203e-14 -4.61033e-13 0 6.83654e-16
1509 16 0.001 0.00769854 0.00345305 -0.0377566 1.45832e-12 -4.24978e-13 -3.22315e-13 0 6.30993e-16
1907 18 0.001 0.0258268 0.00384485 -0.0382832 1.69306e-12 2.86195e-13 -6.01855e-13 0 7.23296e-16
1906 18 0.001 0.0267873 0.00376672 -0.0380199 1.60461e-12 -9.04277e-14 -4.66009e-13 0 6.83654e-16
1905 18 0.001 0.0276985 0.00345305 -0.0377566 1.48343e-12 -4.27693e-13 -3.15869e-13 0 6.30993e-16
333 11 0.001 -0.0515735 -0.00300113 -0.0356325 -1.21742e-12 -7.61964e-13 -4.68864e-13 0 5.20483e-16
709 12 0.001 -0.0315735 -0.00300113 -0.0356325 -1.21143e-12 -7.82657e-13 -4.60122e-13 0 5.20583e-16
1105 14 0.001 -0.0115735 -0.00300113 -0.0356325 -1.17696e-12 -7.78317e-13 -4.69137e-13 0 5.20583e-16
1501 16 0.001 0.00842654 -0.00300113 -0.0356325 -1.18342e-12 -7.78009e-13 -4.68585e-13 0 5.20583e-16
1897 18 0.001 0.0284265 -0.00300113 -0.0356325 -1.17167e-12 -7.69169e-13 -4.74023e-13 0 5.20583e-16
334 11 0.001 -0.0509068 -0.0023065 -0.0358991 -9.13613e-13 -1.03798e-12 -3.48757e-13 0 4.87806e-16
710 12 0.001 -0.0309068 -0.00230649 -0.0358991 -9.40605e-13 -1.01651e-12 -3.45854e-13 0 4.879e-16
1106 14 0.001 -0.0109068 -0.00230649 -0.0358991 -9.21407e-13 -1.01657e-12 -3.4882e-13 0 4.879e-16
1502 16 0.001 0.00909321 -0.00230649 -0.0358991 -9.15598e-13 -1.01652e-12 -3.49624e-13 0 4.879e-16
1898 18 0.001 0.0290932 -0.00230649 -0.0358991 -9.16467e-13 -1.02228e-12 -3.47133e-13 0 4.879e-16
335 11 0.001 -0.0504332 -0.00146826 -0.0361657 -5.61884e-13 -1.15353e-12 -2.46389e-13 0 4.66029e-16
336 11 0.001 -0.0501823 -0.000538719 -0.0364322 -2.49657e-13 -1.2528e-12 -1.40764e-13 0 4.57866e-16
711 12 0.001 -0.0304332 -0.00146825 -0.0361657 -5.60521e-13 -1.16588e-12 -2.4105e-13 0 4.66116e-16
712 12 0.001 -0.0301823 -0.000538717 -0.0364322 -2.07618e-13 -1.22284e-12 -1.46915e-13 0 4.57949e-16
1107 14 0.001 -0.0104332 -0.00146825 -0.0361657 -5.80193e-13 -1.15583e-12 -2.40679e-13 0 4.66116e-16
1108 14 0.001 -0.0101823 -0.000538717 -0.0364322 -2.02375e-13 -1.2324e-12 -1.45538e-13 0 4.57949e-16
1503 16 0.001 0.00956678 -0.00146825 -0.0361657 -5.78391e-13 -1.15503e-12 -2.40923e-13 0 4.66116e-16
1504 16 0.001 0.00981769 -0.000538717 -0.0364322 -2.06206e-13 -1.23129e-12 -1.45642e-13 0 4.57949e-16
1899 18 0.001 0.0295668 -0.00146825 -0.0361657 -5.90088e-13 -1.15491e-12 -2.40516e-13 0 4.66116e-16
1900 18 0.001 0.0298177 -0.000538717 -0.0364322 -1.8843e-13 -1.23284e-12 -1.45741e-13 0 4.57949e-16
337 11 0.001 -0.0501697 0.00042411 -0.0366983 2.25873e-13 -1.2427e-12 -8.38759e-14 0 4.65044e-16
713 12 0.001 -0.0301697 0.000424111 -0.0366983 1.63163e-13 -1.27229e-12 -7.15096e-14 0 4.65123e-16
1109 14 0.001 -0.0101697 0.000424111 -0.0366983 1.72441e-13 -1.27221e-12 -7.10401e-14 0 4.65123e-16
1505 16 0.001 0.00983027 0.000424111 -0.0366983 1.73749e-13 -1.2716e-12 -7.12577e-14 0 4.65123e-16
1901 18 0.001 0.0298303 0.000424111 -0.0366983 1.61617e-13 -1.26975e-12 -7.16804e-14 0 4.65123e-16
328 11 0.001 -0.0560857 -0.00324606 -0.0343063 -1.35828e-12 7.45646e-13 -5.73658e-13 0 7.16408e-16
329 11 0.001 -0.0552168 -0.00366222 -0.0345705 -1.43571e-12 4.78804e-13 -6.43042e-13 0 6.84716e-16
330 11 0.001 -0.054272 -0.00385003 -0.0348352 -1.53356e-12 1.37166e-13 -6.569e-13 0 6.46415e-16
331 11 0.001 -0.0533103 -0.00379778 -0.0351005 -1.48962e-12 -1.74852e-13 -6.37279e-13 0 6.03854e-16
332 11 0.001 -0.0523916 -0.0035088 -0.0353663 -1.39868e-12 -5.2449e-13 -5.61131e-13 0 5.60518e-16
704 12 0.001 -0.0360857 -0.00324606 -0.0343063 -1.26489e-12 7.61162e-13 -5.8698e-13 0 7.16543e-16
705 12 0.001 -0.0352168 -0.00366222 -0.0345705 -1.44548e-12 4.48217e-13 -6.41134e-13 0 6.84844e-16
706 12 0.001 -0.034272 -0.00385003 -0.0348352 -1.50916e-12 1.47271e-13 -6.57462e-13 0 6.46536e-16
707 12 0.001 -0.0333102 -0.00379778 -0.0351005 -1.58091e-12 -1.85861e-13 -6.08871e-13 0 6.03968e-16
708 12 0.001 -0.0323916 -0.0035088 -0.0353663 -1.29814e-12 -4.90108e-13 -5.8851e-13 0 5.60625e-16
1100 14 0.001 -0.0160857 -0.00324606 -0.0343063 -1.33773e-12 7.44767e-13 -5.74548e-13 0 7.16543e-16
1101 14 0.001 -0.0152168 -0.00366222 -0.0345705 -1.42754e-12 4.63736e-13 -6.42764e-13 0 6.84844e-16
1102 14 0.001 -0.014272 -0.00385003 -0.0348352 -1.53676e-12 1.51464e-13 -6.50105e-13 0 6.46536e-16
1104 14 0.001 -0.0123916 -0.0035088 -0.0353663 -1.39523e-12 -5.01163e-13 -5.62748e-13 0 5.60625e-16
1103 14 0.001 -0.0133102 -0.00379778 -0.0351005 -1.49491e-12 -1.89058e-13 -6.32121e-13 0 6.03968e-16
1496 16 0.001 0.00391428 -0.00324606 -0.0343063 -1.3038e-12 7.54084e-13 -5.80199e-13 0 7.16543e-16
1497 16 0.001 0.0047832 -0.00366222 -0.0345705 -1.44043e-12 4.59494e-13 -6.40846e-13 0 6.84844e-16
1498 16 0.001 0.00572802 -0.00385003 -0.0348352 -1.52874e-12 1.45448e-13 -6.51829e-13 0 6.46536e-16
1499 16 0.001 0.00668975 -0.00379778 -0.0351005 -1.4958e-12 -1.84785e-13 -6.32486e-13 0 6.03968e-16
1500 16 0.001 0.00760837 -0.0035088 -0.0353663 -1.39816e-12 -5.03149e-13 -5.60662e-13 0 5.60625e-16
1892 18 0.001 0.0239143 -0.00324606 -0.0343063 -1.27835e-12 7.48936e-13 -5.86289e-13 0 7.16543e-16
1893 18 0.001 0.0247832 -0.00366222 -0.0345705 -1.44363e-12 4.58575e-13 -6.40466e-13 0 6.84844e-16
1894 18 0.001 0.025728 -0.00385003 -0.0348352 -1.53308e-12 1.47093e-13 -6.50575e-13 0 6.46536e-16
1895 18 0.001 0.0266898 -0.00379778 -0.0351005 -1.49352e-12 -1.86143e-13 -6.33403e-13 0 6.03968e-16
1896 18 0.001 0.0276084 -0.0035088 -0.0353663 -1.40753e-12 -5.05997e-13 -5.57118e-13 0 5.60625e-16
327 11 0.001 -0.0568245 -0.00262749 -0.0340424 -1.02175e-12 9.93689e-13 -5.11644e-13 0 7.40577e-16
703 12 0.001 -0.0368245 -0.0026275 -0.0340424 -1.10015e-12 9.73401e-13 -4.96571e-13 0 7.40719e-16