ITEM: TIMESTEP
2700000
ITEM: NUMBER OF ATOMS
1970
ITEM: BOX BOUNDS ff ff ff
-6.0000000000000005e-02 6.0000000000000005e-02
-6.0000000000000001e-03 6.0000000000000001e-03
-5.5000000000000000e-02 5.5000000000000000e-02
ITEM: ATOMS id type radius x y z fx fy fz c_bendingE c_stretchingE
384 11 0.001 -0.050878 -0.00262208 -0.0490041 -2.43814e-12 6.94338e-14 -2.13865e-12 0 9.26269e-16
385 11 0.001 -0.0503607 -0.00182833 -0.0493208 -1.69714e-12 -1.43479e-13 -1.4337e-12 0 4.69626e-15
760 12 0.001 -0.030878 -0.00262208 -0.0490041 -2.42223e-12 7.40348e-14 -2.14212e-12 0 9.26269e-16
761 12 0.001 -0.0303607 -0.00182833 -0.0493208 -1.69843e-12 -1.4047e-13 -1.43405e-12 0 4.69626e-15
1156 14 0.001 -0.010878 -0.00262208 -0.0490041 -2.43279e-12 7.87036e-14 -2.14126e-12 0 9.26269e-16
1157 14 0.001 -0.0103607 -0.00182833 -0.0493208 -1.70053e-12 -1.44913e-13 -1.43296e-12 0 4.69626e-15
1552 16 0.001 0.00912197 -0.00262208 -0.0490041 -2.42461e-12 7.7373e-14 -2.14218e-12 0 9.26269e-16
1553 16 0.001 0.00963929 -0.00182833 -0.0493208 -1.70601e-12 -1.42655e-13 -1.43324e-12 0 4.69626e-15
1948 18 0.001 0.029122 -0.00262208 -0.0490041 -2.43267e-12 8.92668e-14 -2.14385e-12 0 9.26269e-16
1949 18 0.001 0.0296393 -0.00182833 -0.0493208 -1.69794e-12 -1.49997e-13 -1.43156e-12 0 4.69626e-15
2 2 0.001 -0.05 -4.31175e-17 -0.05 -6.17572e-06 8.78945e-06 1.56323e-06 0 2.31796e-15
386 11 0.001 -0.050062 -0.000935252 -0.0496543 -8.68001e-13 -1.68183e-13 -7.04663e-13 0 6.21867e-15
762 12 0.001 -0.030062 -0.000935252 -0.0496543 -8.79796e-13 -1.76869e-13 -7.014e-13 0 6.21867e-15
4 4 0.001 -0.03 -4.31175e-17 -0.05 -6.17572e-06 8.78945e-06 1.56323e-06 0 2.31796e-15
6 6 0.001 -0.01 -4.31175e-17 -0.05 -6.17572e-06 8.78945e-06 1.56323e-06 0 2.31796e-15
1158 14 0.001 -0.010062 -0.000935252 -0.0496543 -8.72593e-13 -1.74023e-13 -7.02566e-13 0 6.21867e-15
8 8 0.001 0.01 -4.31175e-17 -0.05 -6.17572e-06 8.78945e-06 1.56323e-06 0 2.31796e-15
1554 16 0.001 0.00993799 -0.000935252 -0.0496543 -8.70656e-13 -1.73564e-13 -7.02808e-13 0 6.21867e-15
10 10 0.001 0.03 -4.31175e-17 -0.05 -6.17572e-06 8.78945e-06 1.56323e-06 0 2.31796e-15
1950 18 0.001 0.029938 -0.000935252 -0.0496543 -8.83309e-13 -1.72402e-13 -7.02516e-13 0 6.21867e-15
378 11 0.001 -0.0561329 -0.00321758 -0.0474944 -3.124e-12 3.49556e-12 -3.3737e-12 0 3.19937e-15
379 11 0.001 -0.0552792 -0.00368906 -0.0477112 -3.51164e-12 2.93801e-12 -3.67494e-12 0 2.85096e-15
380 11 0.001 -0.0543379 -0.00393656 -0.0479364 -3.6708e-12 2.29583e-12 -3.77738e-12 0 2.09733e-15
381 11 0.001 -0.0533679 -0.00394548 -0.0481749 -3.69144e-12 1.63304e-12 -3.63129e-12 0 1.13799e-15
382 11 0.001 -0.0524298 -0.00371649 -0.0484309 -3.46567e-12 1.01361e-12 -3.29014e-12 0 3.40807e-16
383 11 0.001 -0.0515822 -0.00326541 -0.048707 -3.0442e-12 4.9024e-13 -2.77897e-12 0 1.49553e-16
754 12 0.001 -0.0361329 -0.00321758 -0.0474944 -3.19487e-12 3.48168e-12 -3.36125e-12 0 3.19937e-15
755 12 0.001 -0.0352792 -0.00368906 -0.0477112 -3.44858e-12 2.95313e-12 -3.68736e-12 0 2.85096e-15
756 12 0.001 -0.0343379 -0.00393656 -0.0479364 -3.70877e-12 2.29162e-12 -3.76814e-12 0 2.09733e-15
757 12 0.001 -0.0333679 -0.00394548 -0.0481749 -3.69075e-12 1.63064e-12 -3.63263e-12 0 1.13799e-15
758 12 0.001 -0.0324298 -0.00371649 -0.0484309 -3.43185e-12 1.02083e-12 -3.298e-12 0 3.40807e-16
759 12 0.001 -0.0315822 -0.00326541 -0.048707 -3.07088e-12 4.82914e-13 -2.77273e-12 0 1.49553e-16
1151 14 0.001 -0.0152792 -0.00368906 -0.0477112 -3.51114e-12 2.93723e-12 -3.67652e-12 0 2.85096e-15
1150 14 0.001 -0.0161329 -0.00321758 -0.0474944 -3.08761e-12 3.49779e-12 -3.37919e-12 0 3.19937e-15
1152 14 0.001 -0.0143379 -0.00393656 -0.0479364 -3.70232e-12 2.29323e-12 -3.76771e-12 0 2.09733e-15
1153 14 0.001 -0.0133679 -0.00394548 -0.0481749 -3.68506e-12 1.63508e-12 -3.63543e-12 0 1.13799e-15
1154 14 0.001 -0.0124298 -0.00371649 -0.0484309 -3.45416e-12 1.02139e-12 -3.29225e-12 0 3.40807e-16
1155 14 0.001 -0.0115822 -0.00326541 -0.048707 -3.0456e-12 4.80222e-13 -2.77775e-12 0 1.49553e-16
1546 16 0.001 0.00386711 -0.00321758 -0.0474944 -3.08719e-12 3.49142e-12 -3.37957e-12 0 3.19937e-15
1547 16 0.001 0.00472075 -0.00368906 -0.0477112 -3.51012e-12 2.94412e-12 -3.67621e-12 0 2.85096e-15
1548 16 0.001 0.00566207 -0.00393656 -0.0479364 -3.69879e-12 2.28585e-12 -3.76891e-12 0 2.09733e-15
1549 16 0.001 0.00663214 -0.00394548 -0.0481749 -3.6763e-12 1.64326e-12 -3.63718e-12 0 1.13799e-15
1550 16 0.001 0.00757024 -0.00371649 -0.0484309 -3.46346e-12 1.01546e-12 -3.29053e-12 0 3.40807e-16
1551 16 0.001 0.00841776 -0.00326541 -0.048707 -3.05036e-12 4.81194e-13 -2.77631e-12 0 1.49553e-16
1942 18 0.001 0.0238671 -0.00321758 -0.0474944 -3.09489e-12 3.49076e-12 -3.37908e-12 0 3.19937e-15
1943 18 0.001 0.0247208 -0.00368906 -0.0477112 -3.50976e-12 2.93499e-12 -3.67596e-12 0 2.85096e-15
1944 18 0.001 0.0256621 -0.00393656 -0.0479364 -3.6943e-12 2.30126e-12 -3.77132e-12 0 2.09733e-15
1945 18 0.001 0.0266321 -0.00394548 -0.0481749 -3.68067e-12 1.62596e-12 -3.63326e-12 0 1.13799e-15
1946 18 0.001 0.0275702 -0.00371649 -0.0484309 -3.48771e-12 1.02786e-12 -3.28775e-12 0 3.40807e-16
1947 18 0.001 0.0284178 -0.00326541 -0.048707 -3.02026e-12 4.72458e-13 -2.78046e-12 0 1.49553e-16
376 11 0.001 -0.0573731 -0.00173076 -0.0470638 -1.85059e-12 4.16979e-12 -2.22674e-12 0 2.73059e-15
377 11 0.001 -0.0568456 -0.00255103 -0.0472803 -2.48414e-12 3.91107e-12 -2.86981e-12 0 3.12286e-15
753 12 0.001 -0.0368456 -0.00255103 -0.0472803 -2.45057e-12 3.92627e-12 -2.87311e-12 0 3.12286e-15
752 12 0.001 -0.0373731 -0.00173076 -0.0470638 -1.87147e-12 4.15476e-12 -2.22882e-12 0 2.73059e-15
1149 14 0.001 -0.0168456 -0.00255103 -0.0472803 -2.51567e-12 3.90792e-12 -2.86569e-12 0 3.12286e-15
1148 14 0.001 -0.0173731 -0.00173076 -0.0470638 -1.85156e-12 4.1689e-12 -2.22817e-12 0 2.73059e-15
1544 16 0.001 0.00262689 -0.00173076 -0.0470638 -1.83224e-12 4.16659e-12 -2.23004e-12 0 2.73059e-15
1545 16 0.001 0.00315442 -0.00255103 -0.0472803 -2.53134e-12 3.91373e-12 -2.86327e-12 0 3.12286e-15
1941 18 0.001 0.0231544 -0.00255103 -0.0472803 -2.51075e-12 3.91443e-12 -2.86568e-12 0 3.12286e-15
1940 18 0.001 0.0226269 -0.00173076 -0.0470638 -1.8531e-12 4.16847e-12 -2.22814e-12 0 2.73059e-15
375 11 0.001 -0.0576831 -0.000807738 -0.0468403 -1.06548e-12 4.24724e-12 -1.49193e-12 0 2.18384e-15
751 12 0.001 -0.0376831 -0.000807738 -0.0468403 -1.02646e-12 4.25333e-12 -1.49031e-12 0 2.18384e-15
1147 14 0.001 -0.0176831 -0.000807738 -0.0468403 -1.04211e-12 4.24872e-12 -1.49137e-12 0 2.18384e-15
1543 16 0.001 0.00231688 -0.000807738 -0.0468403 -1.05311e-12 4.24912e-12 -1.49096e-12 0 2.18384e-15
1939 18 0.001 0.0223169 -0.000807738 -0.0468403 -1.03426e-12 4.24977e-12 -1.49086e-12 0 2.18384e-15
373 11 0.001 -0.057591 0.0011146 -0.0463605 5.72048e-13 3.75865e-12 -1.23472e-13 0 1.16158e-15
374 11 0.001 -0.057757 0.00016071 -0.0466065 -2.45408e-13 4.07309e-12 -7.83155e-13 0 1.62921e-15
749 12 0.001 -0.037591 0.0011146 -0.0463605 5.6877e-13 3.75404e-12 -1.25506e-13 0 1.16158e-15
750 12 0.001 -0.037757 0.00016071 -0.0466065 -2.71624e-13 4.07184e-12 -7.83992e-13 0 1.62921e-15
1145 14 0.001 -0.017591 0.0011146 -0.0463605 5.50632e-13 3.75481e-12 -1.27287e-13 0 1.16158e-15
1146 14 0.001 -0.017757 0.00016071 -0.0466065 -2.53254e-13 4.07644e-12 -7.82118e-13 0 1.62921e-15
1541 16 0.001 0.00240899 0.0011146 -0.0463605 5.48574e-13 3.7522e-12 -1.28068e-13 0 1.16158e-15
1542 16 0.001 0.00224298 0.00016071 -0.0466065 -2.4867e-13 4.07654e-12 -7.81888e-13 0 1.62921e-15
1937 18 0.001 0.022409 0.0011146 -0.0463605 5.50988e-13 3.75817e-12 -1.27122e-13 0 1.16158e-15
1938 18 0.001 0.022243 0.00016071 -0.0466065 -2.62667e-13 4.07189e-12 -7.83275e-13 0 1.62921e-15
372 11 0.001 -0.0571962 0.00199502 -0.0461017 1.23987e-12 3.24001e-12 3.57748e-13 0 8.18934e-16
748 12 0.001 -0.0371962 0.00199502 -0.0461017 1.24264e-12 3.23743e-12 3.57552e-13 0 8.18934e-16
1144 14 0.001 -0.0171962 0.00199502 -0.0461017 1.26697e-12 3.23004e-12 3.60308e-13 0 8.18934e-16
1540 16 0.001 0.00280382 0.00199502 -0.0461017 1.26898e-12 3.23369e-12 3.61407e-13 0 8.18934e-16
1936 18 0.001 0.0228038 0.00199502 -0.0461017 1.2656e-12 3.22933e-12 3.59789e-13 0 8.18934e-16
371 11 0.001 -0.0565977 0.00274775 -0.045831 1.94779e-12 2.56666e-12 6.72433e-13 0 5.97917e-16
747 12 0.001 -0.0365977 0.00274775 -0.045831 1.96115e-12 2.5797e-12 6.77364e-13 0 5.97917e-16
1143 14 0.001 -0.0165977 0.00274775 -0.045831 1.92951e-12 2.583e-12 6.7155e-13 0 5.97917e-16
1539 16 0.001 0.00340231 0.00274775 -0.045831 1.92501e-12 2.58235e-12 6.70321e-13 0 5.97917e-16
1935 18 0.001 0.0234023 0.00274775 -0.045831 1.93528e-12 2.58438e-12 6.72984e-13 0 5.97917e-16
370 11 0.001 -0.0558332 0.00332649 -0.0455506 2.44718e-12 1.8275e-12 7.55035e-13 0 4.75689e-16
369 11 0.001 -0.0549506 0.0036957 -0.0452631 2.80166e-12 9.29904e-13 6.16663e-13 0 4.26749e-16
368 11 0.001 -0.0540049 0.00383269 -0.0449717 3.06801e-12 6.91275e-14 3.28933e-13 0 4.30142e-16
367 11 0.001 -0.0530552 0.00372906 -0.0446796 2.99601e-12 -8.43741e-13 -1.23314e-13 0 4.68697e-16
745 12 0.001 -0.0349506 0.0036957 -0.0452631 2.87832e-12 9.45397e-13 6.39892e-13 0 4.26749e-16
746 12 0.001 -0.0358332 0.00332649 -0.0455506 2.42102e-12 1.81479e-12 7.46833e-13 0 4.75689e-16
744 12 0.001 -0.0340049 0.00383269 -0.0449717 2.92169e-12 5.48927e-14 2.85265e-13 0 4.30142e-16
743 12 0.001 -0.0330552 0.00372906 -0.0446796 3.14772e-12 -8.40208e-13 -7.91047e-14 0 4.68697e-16
1142 14 0.001 -0.0158332 0.00332649 -0.0455506 2.45701e-12 1.81937e-12 7.55846e-13 0 4.75689e-16
1140 14 0.001 -0.0140049 0.00383269 -0.0449717 3.00968e-12 5.8827e-14 3.11401e-13 0 4.30142e-16
1141 14 0.001 -0.0149506 0.0036957 -0.0452631 2.82171e-12 9.37436e-13 6.23638e-13 0 4.26749e-16
1139 14 0.001 -0.0130552 0.00372906 -0.0446796 3.04599e-12 -8.3358e-13 -1.09309e-13 0 4.68697e-16
1538 16 0.001 0.00416678 0.00332649 -0.0455506 2.46432e-12 1.81545e-12 7.57386e-13 0 4.75689e-16
1537 16 0.001 0.00504941 0.0036957 -0.0452631 2.81513e-12 9.44158e-13 6.22195e-13 0 4.26749e-16
1536 16 0.001 0.00599511 0.00383269 -0.0449717 3.01638e-12 5.30895e-14 3.13182e-13 0 4.30142e-16
1535 16 0.001 0.00694481 0.00372906 -0.0446796 3.04007e-12 -8.31129e-13 -1.11017e-13 0 4.68697e-16
1933 18 0.001 0.0250494 0.0036957 -0.0452631 2.81015e-12 9.48892e-13 6.20631e-13 0 4.26749e-16
1934 18 0.001 0.0241668 0.00332649 -0.0455506 2.46566e-12 1.81388e-12 7.58131e-13 0 4.75689e-16
1932 18 0.001 0.0259951 0.00383269 -0.0449717 3.00387e-12 4.97245e-14 3.09851e-13 0 4.30142e-16
1931 18 0.001 0.0269448 0.00372906 -0.0446796 3.05263e-12 -8.30132e-13 -1.07796e-13 0 4.68697e-16
361 11 0.001 -0.0501858 -0.00065772 -0.0430166 -2.52518e-13 -3.38255e-12 -1.56294e-12 0 5.45384e-16
737 12 0.001 -0.0301858 -0.00065772 -0.0430166 -2.52066e-13 -3.37914e-12 -1.56488e-12 0 5.45384e-16
1133 14 0.001 -0.0101858 -0.00065772 -0.0430166 -2.65169e-13 -3.38398e-12 -1.56277e-12 0 5.45384e-16
1529 16 0.001 0.00981423 -0.00065772 -0.0430166 -2.66027e-13 -3.38174e-12 -1.56305e-12 0 5.45384e-16
1925 18 0.001 0.0298142 -0.00065772 -0.0430166 -2.50003e-13 -3.37574e-12 -1.56432e-12 0 5.45384e-16
362 11 0.001 -0.0501404 0.000304823 -0.0432802 4.87894e-13 -3.48474e-12 -1.66241e-12 0 5.98253e-16
363 11 0.001 -0.0503348 0.00124722 -0.0435487 1.25327e-12 -3.33897e-12 -1.62068e-12 0 6.25263e-16
738 12 0.001 -0.0301404 0.000304823 -0.0432802 5.20731e-13 -3.48655e-12 -1.65982e-12 0 5.98253e-16
739 12 0.001 -0.0303348 0.00124722 -0.0435487 1.20709e-12 -3.33906e-12 -1.62524e-12 0 6.25263e-16
1134 14 0.001 -0.0101404 0.000304823 -0.0432802 5.13771e-13 -3.48722e-12 -1.66083e-12 0 5.98253e-16
1135 14 0.001 -0.0103348 0.00124722 -0.0435487 1.23667e-12 -3.33494e-12 -1.62236e-12 0 6.25263e-16
1530 16 0.001 0.00985958 0.000304823 -0.0432802 5.07111e-13 -3.4887e-12 -1.66156e-12 0 5.98253e-16
1531 16 0.001 0.00966518 0.00124722 -0.0435487 1.24954e-12 -3.33532e-12 -1.61971e-12 0 6.25263e-16
1926 18 0.001 0.0298596 0.000304823 -0.0432802 4.95854e-13 -3.49525e-12 -1.66074e-12 0 5.98253e-16
1927 18 0.001 0.0296652 0.00124722 -0.0435487 1.25095e-12 -3.33021e-12 -1.62055e-12 0 6.25263e-16
365 11 0.001 -0.0513782 0.00284025 -0.0441035 2.46369e-12 -2.4126e-12 -1.04337e-12 0 5.81351e-16
364 11 0.001 -0.0507564 0.00211037 -0.0438231 1.91979e-12 -2.94118e-12 -1.40289e-12 0 6.18771e-16
740 12 0.001 -0.0307564 0.00211037 -0.0438231 1.94458e-12 -2.93516e-12 -1.40117e-12 0 6.18771e-16
741 12 0.001 -0.0313782 0.00284025 -0.0441035 2.48598e-12 -2.41708e-12 -1.03617e-12 0 5.81351e-16
1136 14 0.001 -0.0107564 0.00211037 -0.0438231 1.90993e-12 -2.93923e-12 -1.40613e-12 0 6.18771e-16
1137 14 0.001 -0.0113782 0.00284025 -0.0441035 2.47988e-12 -2.40941e-12 -1.04002e-12 0 5.81351e-16
1533 16 0.001 0.0086218 0.00284025 -0.0441035 2.48028e-12 -2.40816e-12 -1.03941e-12 0 5.81351e-16
1532 16 0.001 0.00924363 0.00211037 -0.0438231 1.90034e-12 -2.93738e-12 -1.40927e-12 0 6.18771e-16
1928 18 0.001 0.0292436 0.00211037 -0.0438231 1.9045e-12 -2.94012e-12 -1.40812e-12 0 6.18771e-16
1929 18 0.001 0.0286218 0.00284025 -0.0441035 2.47463e-12 -2.40405e-12 -1.04133e-12 0 5.81351e-16
366 11 0.001 -0.0521609 0.00339125 -0.0443894 2.84136e-12 -1.65023e-12 -5.94474e-13 0 5.25333e-16
742 12 0.001 -0.0321609 0.00339125 -0.0443894 2.75148e-12 -1.64886e-12 -6.19408e-13 0 5.25333e-16
1138 14 0.001 -0.0121609 0.00339125 -0.0443894 2.82352e-12 -1.66148e-12 -5.97976e-13 0 5.25333e-16
1534 16 0.001 0.00783909 0.00339125 -0.0443894 2.82723e-12 -1.66358e-12 -5.97005e-13 0 5.25333e-16
1930 18 0.001 0.0278391 0.00339125 -0.0443894 2.82852e-12 -1.667e-12 -5.96127e-13 0 5.25333e-16
355 11 0.001 -0.0543906 -0.00384494 -0.0414662 -2.56036e-12 4.38941e-13 -1.76987e-13 0 4.26966e-16
356 11 0.001 -0.0534264 -0.0038222 -0.0417264 -2.55776e-12 -4.01556e-13 -2.26481e-13 0 3.75323e-16
357 11 0.001 -0.0524973 -0.00356142 -0.0419849 -2.38185e-12 -1.21256e-12 -4.0588e-13 0 3.60531e-16
358 11 0.001 -0.0516613 -0.00307874 -0.0422422 -2.08432e-12 -1.96567e-12 -6.74069e-13 0 3.77683e-16
731 12 0.001 -0.0343906 -0.00384494 -0.0414662 -2.55092e-12 4.34669e-13 -1.81362e-13 0 4.26966e-16
732 12 0.001 -0.0334264 -0.0038222 -0.0417264 -2.55441e-12 -4.08433e-13 -2.25973e-13 0 3.75323e-16
733 12 0.001 -0.0324973 -0.00356142 -0.0419849 -2.38464e-12 -1.20873e-12 -4.06103e-13 0 3.60531e-16
734 12 0.001 -0.0316613 -0.00307874 -0.0422422 -2.08358e-12 -1.96317e-12 -6.74221e-13 0 3.77683e-16
1127 14 0.001 -0.0143906 -0.00384494 -0.0414662 -2.54012e-12 4.30078e-13 -1.83519e-13 0 4.26966e-16
1128 14 0.001 -0.0134264 -0.0038222 -0.0417264 -2.55908e-12 -4.0564e-13 -2.25653e-13 0 3.75323e-16
1129 14 0.001 -0.0124973 -0.00356142 -0.0419849 -2.39287e-12 -1.21154e-12 -4.03709e-13 0 3.60531e-16
1130 14 0.001 -0.0116613 -0.00307874 -0.0422422 -2.07076e-12 -1.96108e-12 -6.77395e-13 0 3.77683e-16
1523 16 0.001 0.00560936 -0.00384494 -0.0414662 -2.53447e-12 4.27517e-13 -1.85709e-13 0 4.26966e-16
1524 16 0.001 0.0065736 -0.0038222 -0.0417264 -2.56574e-12 -4.03128e-13 -2.23095e-13 0 3.75323e-16
1525 16 0.001 0.00750268 -0.00356142 -0.0419849 -2.3875e-12 -1.2111e-12 -4.05324e-13 0 3.60531e-16
1526 16 0.001 0.00833866 -0.00307874 -0.0422422 -2.07397e-12 -1.96072e-12 -6.76768e-13 0 3.77683e-16
1919 18 0.001 0.0256094 -0.00384494 -0.0414662 -2.56287e-12 4.30121e-13 -1.77288e-13 0 4.26966e-16
1920 18 0.001 0.0265736 -0.0038222 -0.0417264 -2.5602e-12 -4.05045e-13 -2.25452e-13 0 3.75323e-16
1921 18 0.001 0.0275027 -0.00356142 -0.0419849 -2.38364e-12 -1.20275e-12 -4.06917e-13 0 3.60531e-16
1922 18 0.001 0.0283387 -0.00307874 -0.0422422 -2.04817e-12 -1.96784e-12 -6.80625e-13 0 3.77683e-16
359 11 0.001 -0.0509706 -0.00240423 -0.042499 -1.57558e-12 -2.60233e-12 -1.00693e-12 0 4.20785e-16
360 11 0.001 -0.0504683 -0.00158002 -0.0427567 -9.62743e-13 -3.08768e-12 -1.31847e-12 0 4.80991e-16
735 12 0.001 -0.0309706 -0.00240423 -0.042499 -1.57413e-12 -2.60672e-12 -1.00594e-12 0 4.20785e-16
736 12 0.001 -0.0304683 -0.00158002 -0.0427567 -9.78006e-13 -3.09096e-12 -1.31634e-12 0 4.80991e-16
1131 14 0.001 -0.0109706 -0.00240423 -0.042499 -1.57902e-12 -2.60646e-12 -1.00527e-12 0 4.20785e-16
1132 14 0.001 -0.0104683 -0.00158002 -0.0427567 -9.65764e-13 -3.08716e-12 -1.318e-12 0 4.80991e-16
1527 16 0.001 0.00902936 -0.00240423 -0.042499 -1.57944e-12 -2.60557e-12 -1.00555e-12 0 4.20785e-16
1528 16 0.001 0.00953166 -0.00158002 -0.0427567 -9.62744e-13 -3.09052e-12 -1.31746e-12 0 4.80991e-16
1923 18 0.001 0.0290294 -0.00240423 -0.042499 -1.61335e-12 -2.60092e-12 -1.00051e-12 0 4.20785e-16
1924 18 0.001 0.0295317 -0.00158002 -0.0427567 -9.59683e-13 -3.09774e-12 -1.31746e-12 0 4.80991e-16
353 11 0.001 -0.056186 -0.00318602 -0.0409403 -2.00346e-12 1.97411e-12 -4.91902e-13 0 6.55084e-16
354 11 0.001 -0.05533 -0.00362835 -0.041204 -2.36777e-12 1.2194e-12 -2.74068e-13 0 5.19646e-16
729 12 0.001 -0.036186 -0.00318602 -0.0409403 -2.05717e-12 1.97583e-12 -4.77463e-13 0 6.55084e-16
730 12 0.001 -0.03533 -0.00362835 -0.041204 -2.34023e-12 1.23079e-12 -2.79931e-13 0 5.19646e-16
1125 14 0.001 -0.016186 -0.00318602 -0.0409403 -2.03382e-12 1.97578e-12 -4.83485e-13 0 6.55084e-16
1126 14 0.001 -0.01533 -0.00362835 -0.041204 -2.36041e-12 1.23653e-12 -2.74228e-13 0 5.19646e-16
1521 16 0.001 0.00381397 -0.00318602 -0.0409403 -2.03364e-12 1.97808e-12 -4.82846e-13 0 6.55084e-16
1522 16 0.001 0.00467 -0.00362835 -0.041204 -2.36451e-12 1.23401e-12 -2.73436e-13 0 5.19646e-16
1917 18 0.001 0.023814 -0.00318602 -0.0409403 -2.03902e-12 1.98062e-12 -4.81898e-13 0 6.55084e-16
1918 18 0.001 0.02467 -0.00362835 -0.041204 -2.34157e-12 1.2302e-12 -2.79461e-13 0 5.19646e-16
351 11 0.001 -0.0574437 -0.00174692 -0.0404097 -9.8131e-13 3.09766e-12 -1.08052e-12 0 1.03174e-15
352 11 0.001 -0.0569055 -0.00254557 -0.0406753 -1.53659e-12 2.61248e-12 -7.69642e-13 0 8.29578e-16
727 12 0.001 -0.0374437 -0.00174692 -0.0404097 -9.74911e-13 3.09394e-12 -1.0821e-12 0 1.03174e-15
728 12 0.001 -0.0369055 -0.00254557 -0.0406753 -1.51709e-12 2.60976e-12 -7.75507e-13 0 8.29578e-16
1123 14 0.001 -0.0174437 -0.00174692 -0.0404097 -9.43878e-13 3.10063e-12 -1.08524e-12 0 1.03174e-15
1124 14 0.001 -0.0169055 -0.00254557 -0.0406753 -1.54711e-12 2.59938e-12 -7.71745e-13 0 8.29578e-16
1519 16 0.001 0.00255632 -0.00174692 -0.0404097 -9.52151e-13 3.09831e-12 -1.08418e-12 0 1.03174e-15
1520 16 0.001 0.00309449 -0.00254557 -0.0406753 -1.5385e-12 2.60159e-12 -7.73121e-13 0 8.29578e-16
1915 18 0.001 0.0225563 -0.00174692 -0.0404097 -9.44444e-13 3.09994e-12 -1.08446e-12 0 1.03174e-15
1916 18 0.001 0.0230945 -0.00254557 -0.0406753 -1.54178e-12 2.59815e-12 -7.72566e-13 0 8.29578e-16
350 11 0.001 -0.0577671 -0.000839826 -0.040144 -2.5885e-13 3.38916e-12 -1.37078e-12 0 1.24261e-15
726 12 0.001 -0.0377671 -0.000839826 -0.040144 -2.63437e-13 3.39104e-12 -1.36883e-12 0 1.24261e-15
1122 14 0.001 -0.0177671 -0.000839826 -0.040144 -2.64259e-13 3.38636e-12 -1.3687e-12 0 1.24261e-15
1518 16 0.001 0.00223295 -0.000839826 -0.040144 -2.7238e-13 3.38988e-12 -1.36819e-12 0 1.24261e-15
1914 18 0.001 0.0222329 -0.000839826 -0.040144 -2.81486e-13 3.38278e-12 -1.37049e-12 0 1.24261e-15
348 11 0.001 -0.0577034 0.00107039 -0.0396137 1.11865e-12 3.39576e-12 -1.64959e-12 0 1.59796e-15
349 11 0.001 -0.0578555 0.000119207 -0.0398785 4.78257e-13 3.50774e-12 -1.5621e-12 0 1.43885e-15
724 12 0.001 -0.0377034 0.00107039 -0.0396137 1.16622e-12 3.38943e-12 -1.6474e-12 0 1.59796e-15
725 12 0.001 -0.0378555 0.000119207 -0.0398785 4.55609e-13 3.51534e-12 -1.56222e-12 0 1.43885e-15
1120 14 0.001 -0.0177034 0.00107039 -0.0396137 1.14319e-12 3.39645e-12 -1.64828e-12 0 1.59796e-15
1121 14 0.001 -0.0178555 0.000119207 -0.0398785 4.43336e-13 3.51313e-12 -1.56229e-12 0 1.43885e-15
1516 16 0.001 0.00229658 0.00107039 -0.0396137 1.14057e-12 3.39675e-12 -1.64835e-12 0 1.59796e-15
1517 16 0.001 0.00214452 0.000119207 -0.0398785 4.60931e-13 3.50795e-12 -1.56306e-12 0 1.43885e-15
1912 18 0.001 0.0222966 0.00107039 -0.0396137 1.14436e-12 3.39019e-12 -1.64981e-12 0 1.59796e-15
1913 18 0.001 0.0221445 0.000119207 -0.0398785 4.66007e-13 3.52199e-12 -1.55843e-12 0 1.43885e-15
347 11 0.001 -0.0573203 0.00195439 -0.0393495 1.77319e-12 3.06978e-12 -1.60206e-12 0 1.70382e-15
346 11 0.001 -0.05673 0.00271604 -0.0390859 2.33435e-12 2.61119e-12 -1.42241e-12 0 1.75035e-15
722 12 0.001 -0.03673 0.00271604 -0.0390859 2.32654e-12 2.62293e-12 -1.42153e-12 0 1.75035e-15
723 12 0.001 -0.0373203 0.00195439 -0.0393495 1.7518e-12 3.07346e-12 -1.60268e-12 0 1.70382e-15
1118 14 0.001 -0.01673 0.00271604 -0.0390859 2.32893e-12 2.61967e-12 -1.42036e-12 0 1.75035e-15
1119 14 0.001 -0.0173203 0.00195439 -0.0393495 1.78595e-12 3.07253e-12 -1.59945e-12 0 1.70382e-15
1515 16 0.001 0.00267968 0.00195439 -0.0393495 1.77494e-12 3.07347e-12 -1.59987e-12 0 1.70382e-15
1514 16 0.001 0.00326995 0.00271604 -0.0390859 2.32087e-12 2.62293e-12 -1.42298e-12 0 1.75035e-15
1910 18 0.001 0.02327 0.00271604 -0.0390859 2.3567e-12 2.6297e-12 -1.41508e-12 0 1.75035e-15
1911 18 0.001 0.0226797 0.00195439 -0.0393495 1.75208e-12 3.0698e-12 -1.60448e-12 0 1.70382e-15
345 11 0.001 -0.0559694 0.00330777 -0.0388226 2.6328e-12 1.99289e-12 -1.17132e-12 0 1.74217e-15
344 11 0.001 -0.0550859 0.00369265 -0.0385595 2.98165e-12 1.26716e-12 -8.3019e-13 0 1.69241e-15
720 12 0.001 -0.0350859 0.00369265 -0.0385595 2.84637e-12 1.27733e-12 -8.62483e-13 0 1.69241e-15
721 12 0.001 -0.0359694 0.00330777 -0.0388226 2.67911e-12 1.97269e-12 -1.16487e-12 0 1.74217e-15
1117 14 0.001 -0.0159694 0.00330777 -0.0388226 2.6384e-12 1.98275e-12 -1.17293e-12 0 1.74217e-15
1116 14 0.001 -0.0150859 0.00369265 -0.0385595 2.91973e-12 1.26774e-12 -8.4496e-13 0 1.69241e-15
1513 16 0.001 0.00403059 0.00330777 -0.0388226 2.6655e-12 1.97316e-12 -1.16704e-12 0 1.74217e-15
1512 16 0.001 0.00491411 0.00369265 -0.0385595 2.89497e-12 1.2788e-12 -8.51077e-13 0 1.69241e-15
1908 18 0.001 0.0249141 0.00369265 -0.0385595 2.87765e-12 1.27681e-12 -8.56098e-13 0 1.69241e-15
1909 18 0.001 0.0240306 0.00330777 -0.0388226 2.65484e-12 1.97218e-12 -1.16869e-12 0 1.74217e-15
338 11 0.001 -0.0503811 0.00133018 -0.0369698 7.31286e-13 -2.45931e-12 -3.66401e-13 0 1.39208e-15
714 12 0.001 -0.0303811 0.00133018 -0.0369698 8.22104e-13 -2.46471e-12 -3.50335e-13 0 1.39208e-15
1110 14 0.001 -0.0103811 0.00133018 -0.0369698 7.68488e-13 -2.44887e-12 -3.6216e-13 0 1.39208e-15
1506 16 0.001 0.00961887 0.00133018 -0.0369698 7.70492e-13 -2.45249e-12 -3.60871e-13 0 1.39208e-15
1902 18 0.001 0.0296189 0.00133018 -0.0369698 7.98499e-13 -2.45401e-12 -3.56912e-13 0 1.39208e-15
340 11 0.001 -0.0514669 0.00290238 -0.0375022 1.9545e-12 -1.58357e-12 -1.19844e-13 0 1.4165e-15
339 11 0.001 -0.050825 0.00218458 -0.0372363 1.50171e-12 -2.07886e-12 -1.77209e-13 0 1.39065e-15
715 12 0.001 -0.030825 0.00218458 -0.0372363 1.40442e-12 -2.08718e-12 -1.92978e-13 0 1.39065e-15
716 12 0.001 -0.0314669 0.00290238 -0.0375022 1.96129e-12 -1.55873e-12 -1.23128e-13 0 1.4165e-15
1111 14 0.001 -0.010825 0.00218458 -0.0372363 1.42116e-12 -2.09085e-12 -1.8847e-13 0 1.39065e-15
1112 14 0.001 -0.0114669 0.00290238 -0.0375022 2.00516e-12 -1.56534e-12 -1.13943e-13 0 1.4165e-15
1508 16 0.001 0.00853308 0.00290238 -0.0375022 2.0076e-12 -1.56872e-12 -1.12992e-13 0 1.4165e-15
1507 16 0.001 0.009175 0.00218458 -0.0372363 1.41677e-12 -2.08717e-12 -1.89822e-13 0 1.39065e-15
1903 18 0.001 0.029175 0.00218458 -0.0372363 1.39585e-12 -2.08995e-12 -1.92941e-13 0 1.39065e-15
1904 18 0.001 0.0285331 0.00290238 -0.0375022 2.01694e-12 -1.56525e-12 -1.11835e-13 0 1.4165e-15
343 11 0.001 -0.0541346 0.00384666 -0.038296 2.83458e-12 5.32916e-13 -5.71179e-13 0 1.61864e-15
342 11 0.001 -0.053175 0.00376022 -0.0380321 2.7627e-12 -2.32754e-13 -3.06301e-13 0 1.53877e-15
341 11 0.001 -0.0522669 0.00343876 -0.0377675 2.44562e-12 -9.34975e-13 -1.53681e-13 0 1.46785e-15
719 12 0.001 -0.0341346 0.00384666 -0.038296 2.95919e-12 5.18247e-13 -5.40522e-13 0 1.61864e-15
718 12 0.001 -0.033175 0.00376022 -0.0380321 2.70217e-12 -2.27538e-13 -3.19562e-13 0 1.53877e-15
717 12 0.001 -0.0322669 0.00343876 -0.0377675 2.50361e-12 -9.45994e-13 -1.39398e-13 0 1.46785e-15
1115 14 0.001 -0.0141346 0.00384666 -0.038296 2.87496e-12 5.24152e-13 -5.61871e-13 0 1.61864e-15
1113 14 0.001 -0.0122669 0.00343876 -0.0377675 2.44004e-12 -9.49347e-13 -1.5302e-13 0 1.46785e-15
1114 14 0.001 -0.013175 0.00376022 -0.0380321 2.77171e-12 -2.24874e-13 -3.02898e-13 0 1.53877e-15
1511 16 0.001 0.00586538 0.00384666 -0.038296 2.89538e-12 5.19711e-13 -5.5614e-13 0 1.61864e-15
1510 16 0.001 0.00682501 0.00376022 -0.0380321 2.76606e-12 -2.29055e-13 -3.04225e-13 0 1.53877e-15
1509 16 0.001 0.00773313 0.00343876 -0.0377675 2.43541e-12 -9.4239e-13 -1.5485e-13 0 1.46785e-15
1907 18 0.001 0.0258654 0.00384666 -0.038296 2.90783e-12 5.19472e-13 -5.5273e-13 0 1.61864e-15
1906 18 0.001 0.026825 0.00376022 -0.0380321 2.75166e-12 -2.25182e-13 -3.08494e-13 0 1.53877e-15
1905 18 0.001 0.0277331 0.00343876 -0.0377675 2.44601e-12 -9.47662e-13 -1.51316e-13 0 1.46785e-15
333 11 0.001 -0.0515971 -0.00302045 -0.035638 -2.41712e-12 -1.8117e-12 -1.27266e-12 0 1.68314e-15
709 12 0.001 -0.0315971 -0.00302045 -0.035638 -2.40842e-12 -1.81066e-12 -1.2743e-12 0 1.68314e-15
1105 14 0.001 -0.0115971 -0.00302045 -0.035638 -2.41106e-12 -1.79821e-12 -1.27657e-12 0 1.68314e-15
1501 16 0.001 0.00840288 -0.00302045 -0.035638 -2.41241e-12 -1.80247e-12 -1.27586e-12 0 1.68314e-15
1897 18 0.001 0.0284029 -0.00302045 -0.035638 -2.39716e-12 -1.79974e-12 -1.27833e-12 0 1.68314e-15
334 11 0.001 -0.0509243 -0.00233145 -0.0359037 -1.93889e-12 -2.24359e-12 -1.21005e-12 0 1.60645e-15
710 12 0.001 -0.0309243 -0.00233145 -0.0359037 -1.94774e-12 -2.24657e-12 -1.20833e-12 0 1.60645e-15
1106 14 0.001 -0.0109243 -0.00233145 -0.0359037 -1.92589e-12 -2.25751e-12 -1.2088e-12 0 1.60645e-15
1502 16 0.001 0.00907573 -0.00233145 -0.0359037 -1.92514e-12 -2.25721e-12 -1.20901e-12 0 1.60645e-15
1898 18 0.001 0.0290757 -0.00233145 -0.0359037 -1.94002e-12 -2.25622e-12 -1.20734e-12 0 1.60645e-15
335 11 0.001 -0.0504433 -0.00149729 -0.0361698 -1.32267e-12 -2.57534e-12 -1.0526e-12 0 1.53259e-15
336 11 0.001 -0.0501841 -0.000570025 -0.0364364 -6.48877e-13 -2.71329e-12 -8.32843e-13 0 1.46798e-15
711 12 0.001 -0.0304433 -0.00149729 -0.0361698 -1.30166e-12 -2.57345e-12 -1.05512e-12 0 1.53259e-15
712 12 0.001 -0.0301841 -0.000570025 -0.0364364 -6.706e-13 -2.71826e-12 -8.28189e-13 0 1.46798e-15
1107 14 0.001 -0.0104433 -0.00149729 -0.0361698 -1.3369e-12 -2.56942e-12 -1.05258e-12 0 1.53259e-15
1108 14 0.001 -0.0101841 -0.000570025 -0.0364364 -6.47947e-13 -2.7195e-12 -8.30627e-13 0 1.46798e-15
1503 16 0.001 0.00955672 -0.00149729 -0.0361698 -1.33156e-12 -2.56752e-12 -1.05333e-12 0 1.53259e-15
1504 16 0.001 0.00981587 -0.000570025 -0.0364364 -6.58679e-13 -2.72117e-12 -8.29923e-13 0 1.46798e-15
1899 18 0.001 0.0295567 -0.00149729 -0.0361698 -1.32656e-12 -2.5677e-12 -1.05378e-12 0 1.53259e-15
1900 18 0.001 0.0298159 -0.000570025 -0.0364364 -6.48732e-13 -2.7183e-12 -8.3029e-13 0 1.46798e-15
337 11 0.001 -0.050163 0.00039248 -0.0367031 6.37794e-14 -2.68015e-12 -5.85879e-13 0 1.41921e-15
713 12 0.001 -0.030163 0.00039248 -0.0367031 4.01379e-14 -2.67226e-12 -5.94676e-13 0 1.41921e-15
1109 14 0.001 -0.010163 0.00039248 -0.0367031 6.38785e-14 -2.67552e-12 -5.89357e-13 0 1.41921e-15
1505 16 0.001 0.00983702 0.00039248 -0.0367031 7.13093e-14 -2.67388e-12 -5.8988e-13 0 1.41921e-15
1901 18 0.001 0.029837 0.00039248 -0.0367031 4.63854e-14 -2.6751e-12 -5.91387e-13 0 1.41921e-15
328 11 0.001 -0.0561127 -0.00322828 -0.0343161 -2.34464e-12 1.28781e-12 -6.15388e-13 0 1.99223e-15
329 11 0.001 -0.055247 -0.00365143 -0.03458 -2.61129e-12 7.18048e-13 -8.16187e-13 0 1.94161e-15
330 11 0.001 -0.0543036 -0.00384695 -0.034844 -2.8822e-12 5.83503e-14 -9.83506e-13 0 1.88683e-15
331 11 0.001 -0.0533412 -0.00380263 -0.0351083 -2.87711e-12 -5.86219e-13 -1.15221e-12 0 1.82567e-15
332 11 0.001 -0.0524199 -0.00352127 -0.0353729 -2.73511e-12 -1.2197e-12 -1.25609e-12 0 1.75736e-15
704 12 0.001 -0.0361127 -0.00322828 -0.0343161 -2.32692e-12 1.28605e-12 -6.1983e-13 0 1.99223e-15
705 12 0.001 -0.035247 -0.00365143 -0.03458 -2.59751e-12 6.97914e-13 -8.21055e-13 0 1.94161e-15
706 12 0.001 -0.0343036 -0.00384695 -0.034844 -2.92648e-12 7.48372e-14 -9.71573e-13 0 1.88683e-15
707 12 0.001 -0.0333412 -0.00380263 -0.0351083 -2.85066e-12 -5.8739e-13 -1.15809e-12 0 1.82567e-15
708 12 0.001 -0.0324199 -0.00352127 -0.0353729 -2.74603e-12 -1.21955e-12 -1.25455e-12 0 1.75736e-15
1100 14 0.001 -0.0161127 -0.00322828 -0.0343161 -2.29924e-12 1.28627e-12 -6.27591e-13 0 1.99223e-15
1101 14 0.001 -0.015247 -0.00365143 -0.03458 -2.67288e-12 7.11713e-13 -7.99871e-13 0 1.94161e-15
1102 14 0.001 -0.0143036 -0.00384695 -0.034844 -2.85842e-12 7.28756e-14 -9.89145e-13 0 1.88683e-15
1104 14 0.001 -0.0124199 -0.00352127 -0.0353729 -2.73249e-12 -1.22645e-12 -1.25625e-12 0 1.75736e-15
1103 14 0.001 -0.0133412 -0.00380263 -0.0351083 -2.89744e-12 -5.8907e-13 -1.14688e-12 0 1.82567e-15
1496 16 0.001 0.00388734 -0.00322828 -0.0343161 -2.31633e-12 1.28796e-12 -6.23508e-13 0 1.99223e-15
1497 16 0.001 0.00475297 -0.00365143 -0.03458 -2.669e-12 7.14509e-13 -8.00504e-13 0 1.94161e-15
1498 16 0.001 0.00569642 -0.00384695 -0.034844 -2.85027e-12 7.22763e-14 -9.91309e-13 0 1.88683e-15
1499 16 0.001 0.00665882 -0.00380263 -0.0351083 -2.89894e-12 -5.93282e-13 -1.14641e-12 0 1.82567e-15
1500 16 0.001 0.00758014 -0.00352127 -0.0353729 -2.73555e-12 -1.2206e-12 -1.25579e-12 0 1.75736e-15
1892 18 0.001 0.0238873 -0.00322828 -0.0343161 -2.31024e-12 1.28643e-12 -6.25841e-13 0 1.99223e-15
1893 18 0.001 0.024753 -0.00365143 -0.03458 -2.67292e-12 7.10698e-13 -7.9945e-13 0 1.94161e-15
1894 18 0.001 0.0256964 -0.00384695 -0.034844 -2.8529e-12 7.50573e-14 -9.90922e-13 0 1.88683e-15
1895 18 0.001 0.0266588 -0.00380263 -0.0351083 -2.91394e-12 -5.8988e-13 -1.14195e-12 0 1.82567e-15
1896 18 0.001 0.0275801 -0.00352127 -0.0353729 -2.72987e-12 -1.22551e-12 -1.25787e-12 0 1.75736e-15
327 11 0.001 -0.0568465 -0.00260388 -0.0340522 -1.84924e-12 1.79337e-12 -4.79934e-13 0 2.04158e-15
703 12 0.001 -0.0368465 -0.00260388 -0.0340522 -1.83941e-12 1.79336e-12 -4.82535e-13 0 2.04158e-15
1099 14 0.001 -0.0168465 -0.00260388 -0.0340522 -1.85249e-12 1.78181e-12 -4.81918e-13 0 2.04158e-15