ITEM: TIMESTEP
8600000
ITEM: NUMBER OF ATOMS
1970
ITEM: BOX BOUNDS ff ff ff
-6.0000000000000005e-02 6.0000000000000005e-02
-6.0000000000000001e-03 6.0000000000000001e-03
-5.5000000000000000e-02 5.5000000000000000e-02
ITEM: ATOMS id type radius x y z fx fy fz c_bendingE c_stretchingE
384 11 0.001 -0.050812 -0.00264098 -0.048998 -2.83203e-13 9.89321e-14 -2.03234e-14 0 1.80477e-17
385 11 0.001 -0.050315 -0.00183681 -0.049321 2.22006e-14 -7.22085e-15 -2.19015e-15 0 9.93775e-15
760 12 0.001 -0.0308112 -0.0026409 -0.0489972 -2.11465e-13 3.18393e-14 -5.34013e-15 0 1.74045e-17
761 12 0.001 -0.0303145 -0.00183668 -0.0493204 -1.05812e-13 3.86173e-14 1.67112e-15 0 9.81581e-15
1156 14 0.001 -0.0108112 -0.0026409 -0.0489972 -1.78235e-13 3.38426e-14 -1.09609e-14 0 1.74045e-17
1157 14 0.001 -0.0103145 -0.00183668 -0.0493204 -1.17324e-13 4.40953e-14 1.47346e-15 0 9.81581e-15
1552 16 0.001 0.00918879 -0.0026409 -0.0489972 -1.83713e-13 3.82478e-14 -1.16211e-14 0 1.74045e-17
1553 16 0.001 0.00968555 -0.00183668 -0.0493204 -1.1104e-13 4.4138e-14 1.17944e-15 0 9.81581e-15
1948 18 0.001 0.0291888 -0.0026409 -0.0489972 -1.76673e-13 2.79046e-14 -9.07472e-15 0 1.74045e-17
1949 18 0.001 0.0296855 -0.00183668 -0.0493204 -1.27076e-13 4.69064e-14 1.64075e-15 0 9.81581e-15
2 2 0.001 -0.05 -4.31175e-17 -0.05 -2.27129e-06 2.41334e-06 1.88177e-06 0 8.96778e-15
386 11 0.001 -0.0500387 -0.000937332 -0.0496566 -1.60247e-13 1.0473e-14 9.68068e-15 0 1.89024e-14
762 12 0.001 -0.0300384 -0.000937231 -0.0496563 -5.8278e-14 1.06181e-14 3.5484e-15 0 1.86416e-14
4 4 0.001 -0.03 -4.31175e-17 -0.05 -2.31252e-06 2.50425e-06 1.8629e-06 0 8.83094e-15
6 6 0.001 -0.01 -4.31175e-17 -0.05 -2.31252e-06 2.50425e-06 1.8629e-06 0 8.83094e-15
1158 14 0.001 -0.0100384 -0.000937231 -0.0496563 -5.57314e-14 8.22679e-15 3.83261e-15 0 1.86416e-14
8 8 0.001 0.01 -4.31175e-17 -0.05 -2.31252e-06 2.50425e-06 1.8629e-06 0 8.83094e-15
1554 16 0.001 0.00996158 -0.000937231 -0.0496563 -6.14222e-14 3.98684e-15 5.32212e-15 0 1.86416e-14
10 10 0.001 0.03 -4.31175e-17 -0.05 -2.31252e-06 2.50425e-06 1.8629e-06 0 8.83094e-15
1950 18 0.001 0.0299616 -0.000937231 -0.0496563 -5.25323e-14 7.69061e-15 3.61112e-15 0 1.86416e-14
379 11 0.001 -0.0551742 -0.00379607 -0.0476504 -2.97111e-13 2.79958e-13 -2.01716e-13 0 7.53194e-16
380 11 0.001 -0.0542302 -0.00402448 -0.0478845 -2.92871e-13 2.19268e-13 -1.72581e-13 0 6.53795e-16
381 11 0.001 -0.0532631 -0.00401385 -0.0481347 -2.91168e-13 1.73356e-13 -1.31931e-13 0 4.7547e-16
382 11 0.001 -0.0523333 -0.00376613 -0.0484033 -2.66805e-13 1.42493e-13 -9.32886e-14 0 2.69208e-16
383 11 0.001 -0.0514989 -0.00329826 -0.0486913 -1.95219e-13 5.07583e-14 -5.01842e-14 0 9.83352e-17
755 12 0.001 -0.0351731 -0.00379687 -0.0476494 -2.52673e-13 2.66132e-13 -1.98442e-13 0 7.64641e-16
756 12 0.001 -0.0342291 -0.00402508 -0.0478834 -3.00106e-13 2.20791e-13 -1.56887e-13 0 6.58545e-16
757 12 0.001 -0.033262 -0.00401423 -0.0481335 -2.55336e-13 1.73267e-13 -1.30815e-13 0 4.73429e-16
758 12 0.001 -0.0323323 -0.00376632 -0.0484022 -2.99558e-13 1.06566e-13 -6.81942e-14 0 2.62581e-16
759 12 0.001 -0.031498 -0.00329829 -0.0486903 -1.5701e-13 1.01806e-13 -6.05583e-14 0 9.1654e-17
1151 14 0.001 -0.0151731 -0.00379687 -0.0476494 -2.91881e-13 2.57011e-13 -1.89483e-13 0 7.64641e-16
1152 14 0.001 -0.0142291 -0.00402508 -0.0478834 -2.8724e-13 2.27136e-13 -1.60596e-13 0 6.58545e-16
1153 14 0.001 -0.013262 -0.00401423 -0.0481335 -2.58394e-13 1.7337e-13 -1.30312e-13 0 4.73429e-16
1154 14 0.001 -0.0123323 -0.00376632 -0.0484022 -2.71934e-13 1.06559e-13 -7.37832e-14 0 2.62581e-16
1155 14 0.001 -0.011498 -0.00329829 -0.0486903 -2.06418e-13 9.49934e-14 -4.97486e-14 0 9.1654e-17
1547 16 0.001 0.00482689 -0.00379687 -0.0476494 -2.94204e-13 2.58723e-13 -1.89122e-13 0 7.64641e-16
1548 16 0.001 0.00577091 -0.00402508 -0.0478834 -2.79075e-13 2.27025e-13 -1.62285e-13 0 6.58545e-16
1549 16 0.001 0.00673803 -0.00401423 -0.0481335 -2.59341e-13 1.71916e-13 -1.30193e-13 0 4.73429e-16
1550 16 0.001 0.00766775 -0.00376632 -0.0484022 -2.80868e-13 1.06713e-13 -7.16792e-14 0 2.62581e-16
1551 16 0.001 0.00850199 -0.00329829 -0.0486903 -1.9737e-13 9.34769e-14 -5.11172e-14 0 9.1654e-17
1943 18 0.001 0.0248269 -0.00379687 -0.0476494 -2.99439e-13 2.4765e-13 -1.8707e-13 0 7.64641e-16
1944 18 0.001 0.0257709 -0.00402508 -0.0478834 -2.78358e-13 2.34801e-13 -1.63654e-13 0 6.58545e-16
1945 18 0.001 0.026738 -0.00401423 -0.0481335 -2.6209e-13 1.69823e-13 -1.28472e-13 0 4.73429e-16
1946 18 0.001 0.0276677 -0.00376632 -0.0484022 -2.79993e-13 1.05891e-13 -7.21445e-14 0 2.62581e-16
1947 18 0.001 0.028502 -0.00329829 -0.0486903 -1.93208e-13 1.01469e-13 -5.40719e-14 0 9.1654e-17
378 11 0.001 -0.0560359 -0.00334177 -0.0474288 -2.54936e-13 3.18636e-13 -2.20185e-13 0 7.49923e-16
754 12 0.001 -0.0360349 -0.00334276 -0.0474279 -3.11385e-13 2.99214e-13 -1.97721e-13 0 7.66277e-16
1150 14 0.001 -0.0160349 -0.00334276 -0.0474279 -2.49005e-13 3.09512e-13 -2.09282e-13 0 7.66277e-16
1546 16 0.001 0.00396507 -0.00334276 -0.0474279 -2.54525e-13 3.08987e-13 -2.08092e-13 0 7.66277e-16
1942 18 0.001 0.0239651 -0.00334276 -0.0474279 -2.47486e-13 3.12322e-13 -2.10253e-13 0 7.66277e-16
376 11 0.001 -0.0573056 -0.00187824 -0.0470046 -1.74068e-13 3.91833e-13 -1.96652e-13 0 4.93121e-16
377 11 0.001 -0.0567614 -0.00268912 -0.0472151 -2.66819e-13 3.43808e-13 -2.14954e-13 0 6.52072e-16
753 12 0.001 -0.0367607 -0.00269027 -0.0472144 -1.77435e-13 3.45634e-13 -2.17993e-13 0 6.70691e-16
752 12 0.001 -0.0373051 -0.00187949 -0.0470039 -1.92456e-13 3.5723e-13 -1.87237e-13 0 5.11314e-16
1149 14 0.001 -0.0167607 -0.00269027 -0.0472144 -2.31645e-13 3.37655e-13 -2.09665e-13 0 6.70691e-16
1148 14 0.001 -0.0173051 -0.00187949 -0.0470039 -1.91393e-13 3.63394e-13 -1.88797e-13 0 5.11314e-16
1544 16 0.001 0.00269492 -0.00187949 -0.0470039 -1.89591e-13 3.60777e-13 -1.89479e-13 0 5.11314e-16
1545 16 0.001 0.00323934 -0.00269027 -0.0472144 -2.29677e-13 3.38986e-13 -2.10053e-13 0 6.70691e-16
1941 18 0.001 0.0232393 -0.00269027 -0.0472144 -2.31795e-13 3.39177e-13 -2.09152e-13 0 6.70691e-16
1940 18 0.001 0.0226949 -0.00187949 -0.0470039 -1.89874e-13 3.64353e-13 -1.88909e-13 0 5.11314e-16
375 11 0.001 -0.0576347 -0.000959209 -0.0467923 -1.52174e-13 3.79675e-13 -1.6055e-13 0 3.17895e-16
751 12 0.001 -0.0376345 -0.000960521 -0.0467918 -2.11994e-13 3.62413e-13 -1.58995e-13 0 3.3349e-16
1147 14 0.001 -0.0176345 -0.000960521 -0.0467918 -1.56842e-13 3.57134e-13 -1.59715e-13 0 3.3349e-16
1543 16 0.001 0.00236553 -0.000960521 -0.0467918 -1.45586e-13 3.59318e-13 -1.58877e-13 0 3.3349e-16
1939 18 0.001 0.0223655 -0.000960521 -0.0467918 -1.60605e-13 3.58958e-13 -1.59288e-13 0 3.3349e-16
373 11 0.001 -0.0575824 0.000972673 -0.0463459 -1.74096e-14 3.56821e-13 -3.97369e-14 0 6.40511e-17
374 11 0.001 -0.0577288 1.10928e-05 -0.0465739 -1.13714e-13 3.73837e-13 -1.19207e-13 0 1.66786e-16
749 12 0.001 -0.0375827 0.000971436 -0.0463457 -1.19638e-13 3.317e-13 -6.25259e-14 0 7.12304e-17
750 12 0.001 -0.0377288 9.78733e-06 -0.0465736 4.46826e-15 3.85447e-13 -9.84618e-14 0 1.78423e-16
1145 14 0.001 -0.0175827 0.000971436 -0.0463457 -1.35291e-13 3.26679e-13 -6.75571e-14 0 7.12304e-17
1146 14 0.001 -0.0177288 9.78733e-06 -0.0465736 -4.49661e-14 3.85034e-13 -9.95206e-14 0 1.78423e-16
1541 16 0.001 0.00241729 0.000971436 -0.0463457 -5.22147e-14 3.23704e-13 -5.80504e-14 0 7.12304e-17
1542 16 0.001 0.00227123 9.78733e-06 -0.0465736 -8.90599e-14 3.84818e-13 -1.02614e-13 0 1.78423e-16
1937 18 0.001 0.0224173 0.000971436 -0.0463457 -1.02166e-13 3.29113e-13 -6.29634e-14 0 7.12304e-17
1938 18 0.001 0.0222712 9.78733e-06 -0.0465736 -5.08247e-14 3.80283e-13 -1.01199e-13 0 1.78423e-16
372 11 0.001 -0.0572055 0.00186619 -0.046106 -5.83692e-14 3.33842e-13 -1.32664e-14 0 1.36823e-17
748 12 0.001 -0.037206 0.00186509 -0.0461059 5.16158e-14 3.25496e-13 2.18028e-14 0 1.66607e-17
1144 14 0.001 -0.017206 0.00186509 -0.0461059 1.06736e-13 3.27437e-13 3.26016e-14 0 1.66607e-17
1540 16 0.001 0.00279395 0.00186509 -0.0461059 1.77916e-14 3.33644e-13 1.86432e-14 0 1.66607e-17
1936 18 0.001 0.022794 0.00186509 -0.0461059 6.58541e-14 3.32753e-13 2.73305e-14 0 1.66607e-17
371 11 0.001 -0.0566221 0.00263666 -0.0458529 1.15254e-13 2.5623e-13 8.40323e-14 0 3.05041e-18
747 12 0.001 -0.0366229 0.00263574 -0.0458528 3.69799e-14 2.42716e-13 6.03199e-14 0 2.64943e-18
1143 14 0.001 -0.0166229 0.00263574 -0.0458528 -3.4444e-14 2.50515e-13 4.37781e-14 0 2.64943e-18
1539 16 0.001 0.00337711 0.00263574 -0.0458528 9.85368e-15 2.38399e-13 5.17874e-14 0 2.64943e-18
1935 18 0.001 0.0233771 0.00263574 -0.0458528 -1.63184e-14 2.39338e-13 4.52123e-14 0 2.64943e-18
370 11 0.001 -0.0558692 0.00323681 -0.0455867 4.97957e-14 2.23743e-13 1.03036e-13 0 1.16381e-17
369 11 0.001 -0.0549939 0.00362996 -0.0453085 -4.05582e-15 1.4954e-13 1.06452e-13 0 2.07639e-17
368 11 0.001 -0.0540511 0.00379226 -0.0450207 2.08754e-13 6.37057e-14 1.76894e-13 0 2.05068e-17
367 11 0.001 -0.0530998 0.00371409 -0.0447259 1.05263e-13 2.10733e-14 1.35552e-13 0 1.16873e-17
745 12 0.001 -0.0349949 0.00362954 -0.0453085 1.88243e-13 1.34278e-13 1.65218e-13 0 1.71929e-17
746 12 0.001 -0.0358701 0.00323612 -0.0455866 -4.49969e-14 2.05377e-13 7.3955e-14 0 9.01819e-18
744 12 0.001 -0.0340522 0.00379212 -0.0450206 8.28182e-14 8.8844e-14 1.36358e-13 0 1.71455e-17
743 12 0.001 -0.0331009 0.00371425 -0.0447258 7.89478e-14 6.02494e-15 1.29746e-13 0 9.41607e-18
1142 14 0.001 -0.0158701 0.00323612 -0.0455866 6.74914e-14 1.98003e-13 1.04232e-13 0 9.01818e-18
1140 14 0.001 -0.0140522 0.00379212 -0.0450206 6.89119e-14 8.45304e-14 1.30537e-13 0 1.71455e-17
1141 14 0.001 -0.0149949 0.00362954 -0.0453085 1.03619e-13 1.48593e-13 1.42631e-13 0 1.71929e-17
1139 14 0.001 -0.0131009 0.00371425 -0.0447258 9.75519e-14 -4.84763e-15 1.36561e-13 0 9.41607e-18
1538 16 0.001 0.00412991 0.00323612 -0.0455866 7.12609e-14 2.124e-13 1.06e-13 0 9.01818e-18
1537 16 0.001 0.00500506 0.00362954 -0.0453085 9.48037e-14 1.40422e-13 1.39843e-13 0 1.71929e-17
1536 16 0.001 0.00594778 0.00379212 -0.0450206 6.00391e-14 8.70699e-14 1.29223e-13 0 1.71455e-17
1535 16 0.001 0.0068991 0.00371425 -0.0447258 1.06124e-13 -2.89833e-15 1.36402e-13 0 9.41607e-18
1933 18 0.001 0.0250051 0.00362954 -0.0453085 9.17676e-14 1.41746e-13 1.38921e-13 0 1.71929e-17
1934 18 0.001 0.0241299 0.00323612 -0.0455866 7.56772e-14 2.08582e-13 1.07793e-13 0 9.01818e-18
1932 18 0.001 0.0259478 0.00379212 -0.0450206 6.87408e-14 8.94245e-14 1.30051e-13 0 1.71455e-17
1931 18 0.001 0.0268991 0.00371425 -0.0447258 8.49122e-14 -9.32969e-15 1.33718e-13 0 9.41607e-18
361 11 0.001 -0.0501453 -0.000580542 -0.0429754 -7.42585e-14 -2.33448e-13 -1.6374e-13 0 1.40188e-16
737 12 0.001 -0.0301452 -0.00057945 -0.0429751 -3.98055e-14 -2.27138e-13 -1.64588e-13 0 1.44163e-16
1133 14 0.001 -0.0101452 -0.00057945 -0.0429751 -9.25843e-14 -2.25696e-13 -1.64445e-13 0 1.44163e-16
1529 16 0.001 0.00985483 -0.00057945 -0.0429751 -9.66423e-14 -2.24454e-13 -1.65873e-13 0 1.44163e-16
1925 18 0.001 0.0298548 -0.00057945 -0.0429751 -8.47968e-14 -2.26614e-13 -1.63847e-13 0 1.44163e-16
362 11 0.001 -0.0501192 0.000378622 -0.0432535 -1.59046e-13 -2.59869e-13 -1.15276e-13 0 1.0209e-16
363 11 0.001 -0.0503323 0.00131192 -0.0435391 5.36216e-14 -1.9601e-13 -6.60154e-14 0 5.9242e-17
738 12 0.001 -0.0301193 0.000379715 -0.0432532 -1.00364e-13 -2.47749e-13 -1.07023e-13 0 1.05954e-16
739 12 0.001 -0.0303327 0.00131294 -0.0435388 -5.31456e-14 -1.65075e-13 -7.72097e-14 0 6.26161e-17
1134 14 0.001 -0.0101193 0.000379715 -0.0432532 -8.05544e-14 -2.43559e-13 -1.09785e-13 0 1.05954e-16
1135 14 0.001 -0.0103327 0.00131294 -0.0435388 -1.7252e-14 -1.74539e-13 -6.89413e-14 0 6.26161e-17
1530 16 0.001 0.00988065 0.000379715 -0.0432532 -7.69559e-14 -2.46439e-13 -1.08444e-13 0 1.05954e-16
1531 16 0.001 0.00966728 0.00131294 -0.0435388 -9.17024e-15 -1.69539e-13 -6.93095e-14 0 6.26161e-17
1926 18 0.001 0.0298807 0.000379715 -0.0432532 -1.08539e-13 -2.39642e-13 -1.13088e-13 0 1.05954e-16
1927 18 0.001 0.0296673 0.00131294 -0.0435388 1.95217e-14 -1.72482e-13 -6.49807e-14 0 6.26162e-17
365 11 0.001 -0.0514065 0.00287186 -0.0441281 2.34289e-14 -1.38345e-13 4.62664e-14 0 4.88516e-18
364 11 0.001 -0.0507707 0.00216074 -0.0438312 3.24942e-14 -1.55686e-13 4.06702e-15 0 2.40103e-17
740 12 0.001 -0.0307714 0.00216163 -0.043831 6.92788e-14 -1.8922e-13 1.2847e-14 0 2.64125e-17
741 12 0.001 -0.0314073 0.00287254 -0.0441279 5.6258e-14 -1.04842e-13 5.4362e-14 0 5.86728e-18
1136 14 0.001 -0.0107714 0.00216163 -0.043831 4.74469e-14 -1.87145e-13 1.01305e-14 0 2.64125e-17
1137 14 0.001 -0.0114073 0.00287254 -0.0441279 4.20469e-15 -8.80537e-14 3.6664e-14 0 5.86728e-18
1533 16 0.001 0.00859266 0.00287254 -0.0441279 3.13154e-14 -8.83195e-14 4.10789e-14 0 5.86728e-18
1532 16 0.001 0.00922864 0.00216163 -0.043831 2.55463e-14 -1.9255e-13 8.13663e-15 0 2.64125e-17
1928 18 0.001 0.0292286 0.00216163 -0.043831 2.14576e-14 -1.98965e-13 8.05021e-15 0 2.64125e-17
1929 18 0.001 0.0285927 0.00287254 -0.0441279 1.49934e-14 -8.1216e-14 3.82706e-14 0 5.86728e-18
366 11 0.001 -0.0521995 0.00340069 -0.0444273 4.59152e-14 -3.48324e-14 8.49598e-14 0 2.95161e-18
742 12 0.001 -0.0322005 0.00340113 -0.0444271 3.79057e-14 -4.41603e-14 8.52975e-14 0 2.26375e-18
1138 14 0.001 -0.0122005 0.00340113 -0.0444271 9.57957e-14 -5.10187e-14 1.02916e-13 0 2.26375e-18
1534 16 0.001 0.00779953 0.00340113 -0.0444271 8.27602e-14 -5.27254e-14 1.02262e-13 0 2.26375e-18
1930 18 0.001 0.0277995 0.00340113 -0.0444271 1.09051e-13 -5.10262e-14 1.0621e-13 0 2.26375e-18
356 11 0.001 -0.053328 -0.00380132 -0.0416808 -2.11587e-13 -1.06638e-13 -1.45168e-13 0 7.32817e-17
357 11 0.001 -0.0524019 -0.00352261 -0.0419312 -2.61785e-13 -1.35643e-13 -1.75771e-13 0 1.09782e-16
358 11 0.001 -0.051574 -0.00302413 -0.0421842 -2.12786e-13 -2.07283e-13 -1.9699e-13 0 1.42848e-16
732 12 0.001 -0.0333269 -0.00380116 -0.0416804 -2.62311e-13 -1.06761e-13 -1.29063e-13 0 7.65654e-17
733 12 0.001 -0.0324009 -0.00352218 -0.0419309 -2.0998e-13 -1.40129e-13 -1.76432e-13 0 1.13263e-16
734 12 0.001 -0.0315731 -0.00302345 -0.0421839 -2.23419e-13 -1.86576e-13 -1.92893e-13 0 1.46448e-16
1128 14 0.001 -0.0133269 -0.00380116 -0.0416804 -2.35942e-13 -9.51852e-14 -1.33762e-13 0 7.65654e-17
1129 14 0.001 -0.0124009 -0.00352218 -0.0419309 -2.35632e-13 -1.39265e-13 -1.71983e-13 0 1.13263e-16
1130 14 0.001 -0.0115731 -0.00302345 -0.0421839 -2.18464e-13 -1.88867e-13 -1.9338e-13 0 1.46448e-16
1524 16 0.001 0.00667309 -0.00380116 -0.0416804 -2.31763e-13 -1.00323e-13 -1.34558e-13 0 7.65654e-17
1525 16 0.001 0.00759909 -0.00352218 -0.0419309 -2.38855e-13 -1.38651e-13 -1.71046e-13 0 1.13263e-16
1526 16 0.001 0.0084269 -0.00302345 -0.0421839 -2.27e-13 -1.84907e-13 -1.92884e-13 0 1.46448e-16
1920 18 0.001 0.0266731 -0.00380116 -0.0416804 -2.10525e-13 -1.00031e-13 -1.40609e-13 0 7.65654e-17
1921 18 0.001 0.0275991 -0.00352218 -0.0419309 -2.38446e-13 -1.48433e-13 -1.68761e-13 0 1.13263e-16
1922 18 0.001 0.0284269 -0.00302345 -0.0421839 -2.48358e-13 -1.76519e-13 -1.90473e-13 0 1.46448e-16
359 11 0.001 -0.0508958 -0.00233724 -0.0424416 -2.1997e-13 -1.9916e-13 -2.07715e-13 0 1.62774e-16
360 11 0.001 -0.0504095 -0.00150524 -0.042705 -1.27086e-13 -2.45394e-13 -1.97901e-13 0 1.62341e-16
735 12 0.001 -0.0308951 -0.00233637 -0.0424413 -1.90909e-13 -2.09249e-13 -2.01796e-13 0 1.66499e-16
736 12 0.001 -0.0304091 -0.00150422 -0.0427046 -1.78837e-13 -2.33069e-13 -1.87576e-13 0 1.66217e-16
1131 14 0.001 -0.0108951 -0.00233637 -0.0424413 -1.92306e-13 -2.09113e-13 -2.01918e-13 0 1.66499e-16
1132 14 0.001 -0.0104091 -0.00150422 -0.0427046 -1.51266e-13 -2.35624e-13 -1.87671e-13 0 1.66217e-16
1527 16 0.001 0.00910489 -0.00233637 -0.0424413 -1.71632e-13 -2.1263e-13 -2.04185e-13 0 1.66499e-16
1528 16 0.001 0.00959089 -0.00150422 -0.0427046 -1.62504e-13 -2.32891e-13 -1.8624e-13 0 1.66217e-16
1923 18 0.001 0.0291049 -0.00233637 -0.0424413 -1.64789e-13 -2.13768e-13 -2.0525e-13 0 1.66499e-16
1924 18 0.001 0.0295909 -0.00150422 -0.0427046 -1.59956e-13 -2.35006e-13 -1.86661e-13 0 1.66217e-16
353 11 0.001 -0.0561087 -0.00321834 -0.0409283 -1.32778e-13 2.70182e-14 -8.25119e-15 0 7.55838e-18
355 11 0.001 -0.0542944 -0.00384272 -0.0414312 -2.60024e-13 -5.20731e-14 -8.85032e-14 0 4.176e-17
354 11 0.001 -0.055241 -0.00364424 -0.0411808 -2.29448e-13 6.39128e-15 -5.20533e-14 0 1.97785e-17
729 12 0.001 -0.0361077 -0.00321902 -0.040928 -1.70757e-13 3.03297e-14 -4.81824e-15 0 9.29752e-18
730 12 0.001 -0.0352399 -0.00364466 -0.0411805 -2.18155e-13 -1.03951e-14 -4.01771e-14 0 2.21581e-17
731 12 0.001 -0.0342933 -0.00384285 -0.0414309 -1.90014e-13 -3.53981e-14 -1.02505e-13 0 4.46829e-17
1125 14 0.001 -0.0161077 -0.00321902 -0.040928 -1.84351e-13 3.2884e-14 8.98223e-16 0 9.29752e-18
1126 14 0.001 -0.0152399 -0.00364466 -0.0411805 -2.20704e-13 6.04919e-15 -4.04929e-14 0 2.21581e-17
1127 14 0.001 -0.0142933 -0.00384285 -0.0414309 -1.99837e-13 -5.68525e-14 -1.0083e-13 0 4.46829e-17
1521 16 0.001 0.00389225 -0.00321902 -0.040928 -1.79637e-13 3.58164e-14 4.64052e-16 0 9.29752e-18
1523 16 0.001 0.00570666 -0.00384285 -0.0414309 -2.02904e-13 -5.27943e-14 -1.00021e-13 0 4.46829e-17
1522 16 0.001 0.00476007 -0.00364466 -0.0411805 -2.22699e-13 2.1171e-15 -4.07093e-14 0 2.21581e-17
1917 18 0.001 0.0238923 -0.00321902 -0.040928 -2.00159e-13 2.02588e-14 2.77235e-15 0 9.29752e-18
1918 18 0.001 0.0247601 -0.00364466 -0.0411805 -2.17931e-13 1.31988e-14 -4.06617e-14 0 2.21581e-17
1919 18 0.001 0.0257067 -0.00384285 -0.0414309 -2.09778e-13 -5.15358e-14 -9.84315e-14 0 4.46829e-17
351 11 0.001 -0.0574001 -0.00180346 -0.0404141 -1.5401e-13 6.93421e-14 4.31685e-14 0 9.2526e-19
352 11 0.001 -0.0568436 -0.00259169 -0.0406729 -1.44483e-13 1.03759e-13 2.67362e-14 0 2.38241e-18
727 12 0.001 -0.0373996 -0.00180453 -0.0404137 -1.14471e-13 1.32936e-13 6.16765e-14 0 1.8596e-18
728 12 0.001 -0.0368428 -0.00259259 -0.0406726 -1.34924e-13 7.17752e-14 2.46933e-14 0 3.56491e-18
1123 14 0.001 -0.0173996 -0.00180453 -0.0404137 -9.48701e-14 1.18911e-13 5.65828e-14 0 1.8596e-18
1124 14 0.001 -0.0168428 -0.00259259 -0.0406726 -1.18009e-13 6.80815e-14 1.90358e-14 0 3.56491e-18
1519 16 0.001 0.00260041 -0.00180453 -0.0404137 -8.85236e-14 1.28008e-13 5.89562e-14 0 1.8596e-18
1520 16 0.001 0.00315716 -0.00259259 -0.0406726 -1.1649e-13 6.39768e-14 1.7832e-14 0 3.56491e-18
1915 18 0.001 0.0226004 -0.00180453 -0.0404137 -1.08933e-13 1.19069e-13 5.9287e-14 0 1.8596e-18
1916 18 0.001 0.0231572 -0.00259259 -0.0406726 -9.22008e-14 7.54472e-14 1.55415e-14 0 3.56491e-18
350 11 0.001 -0.0577437 -0.000902837 -0.0401518 9.66839e-14 1.38161e-13 4.9655e-14 0 1.30389e-18
726 12 0.001 -0.0377435 -0.000904019 -0.0401514 2.86831e-14 9.71354e-14 3.95842e-14 0 2.4923e-18
1122 14 0.001 -0.0177435 -0.000904019 -0.0401514 -6.95346e-15 1.07278e-13 4.56998e-14 0 2.4923e-18
1518 16 0.001 0.00225645 -0.000904019 -0.0401514 -3.26388e-14 1.01074e-13 4.50303e-14 0 2.4923e-18
1914 18 0.001 0.0222565 -0.000904019 -0.0401514 -9.18251e-15 1.04722e-13 4.50354e-14 0 2.4923e-18
348 11 0.001 -0.0577224 0.00100752 -0.0396187 2.44082e-13 1.2597e-13 2.65531e-14 0 1.1079e-17
349 11 0.001 -0.0578534 5.40256e-05 -0.0398865 -1.21933e-13 1.40439e-13 3.44153e-14 0 3.95297e-18
724 12 0.001 -0.0377228 0.00100634 -0.0396183 1.78704e-13 1.39483e-13 2.8827e-14 0 1.45239e-17
725 12 0.001 -0.0378535 5.28075e-05 -0.0398861 -3.72024e-14 1.07925e-13 3.34555e-14 0 5.99216e-18
1120 14 0.001 -0.0177228 0.00100634 -0.0396183 7.94747e-14 1.43252e-13 2.23942e-14 0 1.45239e-17
1121 14 0.001 -0.0178535 5.28075e-05 -0.0398861 1.9749e-14 1.05852e-13 3.28686e-14 0 5.99216e-18
1516 16 0.001 0.00227723 0.00100634 -0.0396183 8.53305e-14 1.43247e-13 2.3538e-14 0 1.45239e-17
1517 16 0.001 0.00214651 5.28075e-05 -0.0398861 3.80256e-14 1.06444e-13 3.23235e-14 0 5.99216e-18
1912 18 0.001 0.0222772 0.00100634 -0.0396183 9.8707e-14 1.44946e-13 2.46611e-14 0 1.45239e-17
1913 18 0.001 0.0221465 5.28075e-05 -0.0398861 1.49695e-14 1.05866e-13 3.21955e-14 0 5.99216e-18
347 11 0.001 -0.057359 0.00189824 -0.0393493 3.71832e-15 1.18334e-13 -3.29066e-14 0 2.51122e-17
346 11 0.001 -0.056786 0.00267067 -0.0390791 2.40837e-13 1.05929e-13 -4.57356e-14 0 4.69782e-17
722 12 0.001 -0.0367869 0.00266978 -0.0390787 2.59525e-13 8.12528e-14 -3.72491e-14 0 5.41284e-17
723 12 0.001 -0.0373596 0.00189717 -0.0393489 2.51184e-14 1.10289e-13 -3.31455e-14 0 3.03459e-17
1118 14 0.001 -0.0167869 0.00266978 -0.0390787 2.19664e-13 1.0377e-13 -3.84572e-14 0 5.41284e-17
1119 14 0.001 -0.0173596 0.00189717 -0.0393489 1.28031e-13 1.01224e-13 -2.27343e-14 0 3.03459e-17
1515 16 0.001 0.00264035 0.00189717 -0.0393489 1.2219e-13 1.00822e-13 -2.3089e-14 0 3.03459e-17
1514 16 0.001 0.00321315 0.00266978 -0.0390787 2.03677e-13 1.07612e-13 -4.12265e-14 0 5.41284e-17
1910 18 0.001 0.0232131 0.00266978 -0.0390787 2.3989e-13 1.12352e-13 -3.34707e-14 0 5.41284e-17
1911 18 0.001 0.0226404 0.00189717 -0.0393489 1.01228e-13 9.86562e-14 -2.69585e-14 0 3.03459e-17
345 11 0.001 -0.0560391 0.00327664 -0.038809 2.49406e-13 4.93788e-14 -8.42107e-14 0 7.50231e-17
344 11 0.001 -0.0551649 0.00367828 -0.0385396 2.07435e-13 3.01547e-14 -1.28598e-13 0 1.05073e-16
721 12 0.001 -0.0360401 0.00327598 -0.0388086 1.88014e-13 7.70538e-14 -9.43116e-14 0 8.39451e-17
720 12 0.001 -0.0351661 0.00367789 -0.0385392 2.72218e-13 1.63452e-14 -1.07397e-13 0 1.15398e-16
1117 14 0.001 -0.0160401 0.00327598 -0.0388086 1.78823e-13 5.8775e-14 -9.9838e-14 0 8.39451e-17
1116 14 0.001 -0.0151661 0.00367789 -0.0385392 2.58866e-13 1.71577e-14 -1.10599e-13 0 1.15398e-16
1513 16 0.001 0.00395986 0.00327598 -0.0388086 2.0386e-13 5.29395e-14 -9.52611e-14 0 8.39451e-17
1512 16 0.001 0.00483387 0.00367789 -0.0385392 2.46055e-13 1.90339e-14 -1.13177e-13 0 1.15398e-16
1909 18 0.001 0.0239599 0.00327598 -0.0388086 1.75039e-13 4.7232e-14 -1.02353e-13 0 8.39451e-17
1908 18 0.001 0.0248339 0.00367789 -0.0385392 2.53628e-13 2.30267e-14 -1.10849e-13 0 1.15398e-16
338 11 0.001 -0.0504177 0.00140333 -0.0369498 2.31528e-13 -1.66056e-13 -6.31572e-14 0 1.10803e-16
714 12 0.001 -0.0304181 0.00140447 -0.0369495 1.42779e-13 -1.55015e-13 -6.45287e-14 0 1.20206e-16
1110 14 0.001 -0.0104181 0.00140447 -0.0369495 1.16726e-13 -1.59464e-13 -6.53426e-14 0 1.20206e-16
1506 16 0.001 0.00958187 0.00140447 -0.0369495 1.2263e-13 -1.60752e-13 -6.48171e-14 0 1.20206e-16
1902 18 0.001 0.0295819 0.00140447 -0.0369495 1.24579e-13 -1.56383e-13 -6.46899e-14 0 1.20206e-16
340 11 0.001 -0.0515339 0.00295643 -0.0374753 2.44079e-13 -1.10712e-13 -1.2631e-13 0 1.4903e-16
339 11 0.001 -0.0508781 0.00225018 -0.0372123 1.27824e-13 -1.88358e-13 -9.89779e-14 0 1.32834e-16
716 12 0.001 -0.0315348 0.0029572 -0.037475 2.11442e-13 -1.26197e-13 -1.23222e-13 0 1.6004e-16
715 12 0.001 -0.0308788 0.00225117 -0.037212 1.78093e-13 -1.75326e-13 -9.34288e-14 0 1.43111e-16
1111 14 0.001 -0.0108788 0.00225117 -0.037212 1.8451e-13 -1.73851e-13 -9.331e-14 0 1.43111e-16
1112 14 0.001 -0.0115348 0.0029572 -0.037475 2.19986e-13 -1.23434e-13 -1.21422e-13 0 1.6004e-16
1508 16 0.001 0.00846516 0.0029572 -0.037475 2.20808e-13 -1.2817e-13 -1.20638e-13 0 1.6004e-16
1507 16 0.001 0.00912118 0.00225117 -0.037212 1.82685e-13 -1.69232e-13 -9.44251e-14 0 1.43111e-16
1904 18 0.001 0.0284652 0.0029572 -0.037475 2.04491e-13 -1.28553e-13 -1.23641e-13 0 1.6004e-16
1903 18 0.001 0.0291212 0.00225117 -0.037212 1.78884e-13 -1.70566e-13 -9.53634e-14 0 1.43111e-16
343 11 0.001 -0.0542181 0.00385044 -0.0382714 2.89051e-13 -8.18117e-15 -1.3242e-13 0 1.31589e-16
342 11 0.001 -0.0532578 0.00378229 -0.0380046 2.6505e-13 -6.96402e-14 -1.45262e-13 0 1.49406e-16
341 11 0.001 -0.052344 0.00347797 -0.0377393 2.30557e-13 -1.04454e-13 -1.45158e-13 0 1.55336e-16
719 12 0.001 -0.0342194 0.00385036 -0.038271 2.28528e-13 -1.73202e-14 -1.45586e-13 0 1.42816e-16
718 12 0.001 -0.033259 0.00378251 -0.0380043 2.64273e-13 -5.93616e-14 -1.40214e-13 0 1.61002e-16
717 12 0.001 -0.0323451 0.00347849 -0.037739 2.36126e-13 -9.78254e-14 -1.41752e-13 0 1.66825e-16
1115 14 0.001 -0.0142194 0.00385036 -0.038271 2.50397e-13 -1.89388e-14 -1.40505e-13 0 1.42816e-16
1113 14 0.001 -0.0123451 0.00347849 -0.037739 2.33534e-13 -1.07379e-13 -1.42262e-13 0 1.66825e-16
1114 14 0.001 -0.013259 0.00378251 -0.0380043 2.58812e-13 -4.89333e-14 -1.40862e-13 0 1.61002e-16
1511 16 0.001 0.00578062 0.00385036 -0.038271 2.51578e-13 -1.28907e-14 -1.40392e-13 0 1.42816e-16
1510 16 0.001 0.00674096 0.00378251 -0.0380043 2.62185e-13 -5.98202e-14 -1.39542e-13 0 1.61002e-16
1509 16 0.001 0.00765486 0.00347849 -0.037739 2.30442e-13 -9.95992e-14 -1.43612e-13 0 1.66825e-16
1907 18 0.001 0.0257806 0.00385036 -0.038271 2.58862e-13 -1.31252e-14 -1.38826e-13 0 1.42816e-16
1906 18 0.001 0.026741 0.00378251 -0.0380043 2.39886e-13 -6.28325e-14 -1.44654e-13 0 1.61002e-16
1905 18 0.001 0.0276549 0.00347849 -0.037739 2.63419e-13 -9.80993e-14 -1.36226e-13 0 1.66825e-16
333 11 0.001 -0.0515499 -0.00297416 -0.0356332 -1.34624e-13 -9.42874e-14 4.14435e-14 0 3.04424e-17
334 11 0.001 -0.0508904 -0.00227202 -0.0358979 -1.04611e-13 -1.07735e-13 2.91486e-14 0 3.74216e-17
709 12 0.001 -0.0315489 -0.00297339 -0.0356328 2.106e-14 -4.35322e-14 2.60857e-16 0 3.63251e-17
710 12 0.001 -0.0308896 -0.00227104 -0.0358976 -7.00638e-14 -1.36681e-13 3.74586e-14 0 4.36383e-17
1105 14 0.001 -0.0115489 -0.00297339 -0.0356328 -6.80545e-14 -6.95494e-14 2.46075e-14 0 3.63251e-17
1106 14 0.001 -0.0108896 -0.00227104 -0.0358976 -7.01164e-14 -1.26908e-13 3.3156e-14 0 4.36383e-17
1501 16 0.001 0.0084511 -0.00297339 -0.0356328 -7.69659e-14 -6.3808e-14 2.50978e-14 0 3.63251e-17
1502 16 0.001 0.00911036 -0.00227104 -0.0358976 -4.86094e-14 -1.30626e-13 3.06819e-14 0 4.36383e-17
1897 18 0.001 0.0284511 -0.00297339 -0.0356328 -9.33114e-14 -5.59905e-14 2.64474e-14 0 3.63251e-17
1898 18 0.001 0.0291104 -0.00227104 -0.0358976 -3.19995e-14 -1.32394e-13 2.84141e-14 0 4.36383e-17
335 11 0.001 -0.0504254 -0.00142812 -0.0361618 8.35497e-14 -1.51206e-13 -3.94219e-16 0 4.92275e-17
336 11 0.001 -0.0501841 -0.000495107 -0.036425 3.48787e-14 -1.78568e-13 4.39407e-15 0 6.61139e-17
711 12 0.001 -0.030425 -0.00142698 -0.0361615 -1.74627e-14 -1.26747e-13 4.33687e-15 0 5.60374e-17
712 12 0.001 -0.0301839 -0.00049389 -0.0364246 5.71348e-14 -1.714e-13 5.77693e-15 0 7.37038e-17
1107 14 0.001 -0.010425 -0.00142698 -0.0361615 3.30193e-14 -1.36106e-13 2.81649e-15 0 5.60374e-17
1108 14 0.001 -0.0101839 -0.00049389 -0.0364246 -3.86687e-16 -1.56542e-13 4.08876e-15 0 7.37038e-17
1503 16 0.001 0.00957504 -0.00142698 -0.0361615 5.05683e-15 -1.34756e-13 4.98729e-15 0 5.60374e-17
1504 16 0.001 0.0098161 -0.00049389 -0.0364246 3.11022e-14 -1.56473e-13 2.92407e-15 0 7.37038e-17
1899 18 0.001 0.029575 -0.00142698 -0.0361615 1.56225e-14 -1.29718e-13 3.11187e-15 0 5.60374e-17
1900 18 0.001 0.0298161 -0.00049389 -0.0364246 3.84458e-15 -1.66576e-13 6.8378e-15 0 7.37038e-17
337 11 0.001 -0.0501814 0.000468774 -0.0366875 3.2104e-15 -1.66716e-13 -4.57928e-14 0 8.73598e-17
713 12 0.001 -0.0301816 0.00046999 -0.0366872 6.82554e-14 -1.6937e-13 -4.40125e-14 0 9.58398e-17
1109 14 0.001 -0.0101816 0.00046999 -0.0366872 1.12252e-13 -1.72979e-13 -4.24808e-14 0 9.58398e-17
1505 16 0.001 0.00981844 0.00046999 -0.0366872 9.20184e-14 -1.7372e-13 -4.21636e-14 0 9.58398e-17
1901 18 0.001 0.0298184 0.00046999 -0.0366872 1.07476e-13 -1.70557e-13 -4.36895e-14 0 9.58398e-17
328 11 0.001 -0.0560576 -0.00326716 -0.0343018 -1.69445e-13 1.76512e-13 -6.37795e-14 0 5.08894e-17
329 11 0.001 -0.055185 -0.00367415 -0.0345683 -8.64095e-14 6.45097e-14 -6.4319e-14 0 4.04845e-17
330 11 0.001 -0.0542388 -0.00385198 -0.034835 -2.26833e-13 5.88673e-14 -3.53878e-15 0 3.29269e-17
331 11 0.001 -0.0532781 -0.00378955 -0.0351015 -9.2639e-14 1.79144e-14 -1.45228e-14 0 2.85948e-17
332 11 0.001 -0.0523627 -0.00349073 -0.0353676 -7.69061e-14 -5.77304e-14 1.2236e-14 0 2.76736e-17
704 12 0.001 -0.0360565 -0.00326791 -0.0343014 -1.23209e-13 1.30776e-13 -7.68337e-14 0 5.9672e-17
705 12 0.001 -0.0351838 -0.00367461 -0.0345679 -2.00415e-13 1.14971e-13 -3.29127e-14 0 4.82042e-17
706 12 0.001 -0.0342375 -0.00385211 -0.0348346 -1.36806e-13 4.49184e-14 -2.43745e-14 0 3.9748e-17
707 12 0.001 -0.0332768 -0.00378936 -0.0351011 -4.14348e-14 9.71495e-15 -2.17286e-14 0 3.47768e-17
708 12 0.001 -0.0323615 -0.00349024 -0.0353673 -2.64412e-13 -7.40618e-14 5.66439e-14 0 3.35368e-17
1100 14 0.001 -0.0160565 -0.00326791 -0.0343014 -1.73873e-13 1.4573e-13 -6.34785e-14 0 5.9672e-17
1101 14 0.001 -0.0151838 -0.00367461 -0.0345679 -1.33283e-13 9.41622e-14 -5.20515e-14 0 4.82042e-17
1102 14 0.001 -0.0142375 -0.00385211 -0.0348346 -1.47812e-13 6.19677e-14 -2.1054e-14 0 3.9748e-17
1104 14 0.001 -0.0123615 -0.00349024 -0.0353673 -1.39487e-13 -4.48441e-14 2.3741e-14 0 3.35368e-17
1103 14 0.001 -0.0132768 -0.00378936 -0.0351011 -1.21215e-13 -1.09581e-14 -6.97206e-16 0 3.47768e-17
1496 16 0.001 0.00394353 -0.00326791 -0.0343014 -1.62093e-13 1.52931e-13 -6.5068e-14 0 5.9672e-17
1497 16 0.001 0.00481621 -0.00367461 -0.0345679 -1.37004e-13 9.00503e-14 -5.15725e-14 0 4.82042e-17
1498 16 0.001 0.00576246 -0.00385211 -0.0348346 -1.42444e-13 5.86562e-14 -2.20899e-14 0 3.9748e-17
1499 16 0.001 0.00672321 -0.00378936 -0.0351011 -1.15361e-13 -1.27791e-15 -2.93661e-15 0 3.47768e-17
1500 16 0.001 0.00763847 -0.00349024 -0.0353673 -1.4636e-13 -5.44756e-14 2.65115e-14 0 3.35368e-17
1892 18 0.001 0.0239435 -0.00326791 -0.0343014 -1.67993e-13 1.41769e-13 -6.54959e-14 0 5.9672e-17
1893 18 0.001 0.0248162 -0.00367461 -0.0345679 -1.37004e-13 9.44842e-14 -5.10581e-14 0 4.82042e-17
1894 18 0.001 0.0257625 -0.00385211 -0.0348346 -1.43935e-13 6.03191e-14 -2.19038e-14 0 3.9748e-17
1895 18 0.001 0.0267232 -0.00378936 -0.0351011 -1.18448e-13 -4.6612e-15 -1.8135e-15 0 3.47768e-17
1896 18 0.001 0.0276385 -0.00349024 -0.0353673 -1.42172e-13 -5.85912e-14 2.66851e-14 0 3.35368e-17
327 11 0.001 -0.056802 -0.0026564 -0.0340356 -8.80919e-14 1.46459e-13 -1.07179e-13 0 6.33376e-17
703 12 0.001 -0.0368011 -0.00265742 -0.0340352 -1.09877e-13 1.69217e-13 -9.59029e-14 0 7.3236e-17
1099 14 0.001 -0.0168011 -0.00265742 -0.0340352 -4.47325e-14 1.63986e-13 -1.07664e-13 0 7.3236e-17