ITEM: TIMESTEP
3800000
ITEM: NUMBER OF ATOMS
1970
ITEM: BOX BOUNDS ff ff ff
-6.0000000000000005e-02 6.0000000000000005e-02
-6.0000000000000001e-03 6.0000000000000001e-03
-5.5000000000000000e-02 5.5000000000000000e-02
ITEM: ATOMS id type radius x y z fx fy fz c_bendingE c_stretchingE
384 11 0.001 -0.0508533 -0.00262626 -0.0489937 -1.38856e-12 3.76079e-14 -1.23543e-12 0 2.6431e-16
385 11 0.001 -0.0503435 -0.00182937 -0.0493148 -1.11408e-12 -9.45811e-14 -8.06543e-13 0 6.45808e-15
760 12 0.001 -0.0308533 -0.00262626 -0.0489937 -1.45494e-12 2.31354e-14 -1.21836e-12 0 2.64325e-16
761 12 0.001 -0.0303435 -0.00182937 -0.0493148 -1.06591e-12 -8.58638e-14 -8.15326e-13 0 6.45802e-15
1156 14 0.001 -0.0108533 -0.00262626 -0.0489937 -1.49115e-12 3.68168e-14 -1.21783e-12 0 2.64325e-16
1157 14 0.001 -0.0103435 -0.00182937 -0.0493148 -1.03076e-12 -9.2409e-14 -8.16185e-13 0 6.45802e-15
1552 16 0.001 0.0091467 -0.00262626 -0.0489937 -1.48865e-12 3.48681e-14 -1.21772e-12 0 2.64325e-16
1553 16 0.001 0.00965646 -0.00182937 -0.0493148 -1.02755e-12 -9.00921e-14 -8.16947e-13 0 6.45802e-15
1948 18 0.001 0.0291467 -0.00262626 -0.0489937 -1.47389e-12 2.39911e-14 -1.21531e-12 0 2.64325e-16
1949 18 0.001 0.0296565 -0.00182937 -0.0493148 -1.06505e-12 -8.71878e-14 -8.15205e-13 0 6.45802e-15
2 2 0.001 -0.05 -4.31175e-17 -0.05 -4.83548e-06 6.18453e-06 1.92731e-06 0 4.60571e-15
386 11 0.001 -0.0500532 -0.000934865 -0.0496518 -4.91501e-13 -1.03435e-13 -4.02874e-13 0 1.08107e-14
762 12 0.001 -0.0300532 -0.000934865 -0.0496518 -5.15615e-13 -1.09954e-13 -3.98279e-13 0 1.08106e-14
4 4 0.001 -0.03 -4.31175e-17 -0.05 -4.83549e-06 6.18459e-06 1.92729e-06 0 4.60564e-15
6 6 0.001 -0.01 -4.31175e-17 -0.05 -4.83549e-06 6.18459e-06 1.92729e-06 0 4.60564e-15
1158 14 0.001 -0.0100532 -0.000934865 -0.0496518 -5.34622e-13 -1.07989e-13 -3.98038e-13 0 1.08106e-14
8 8 0.001 0.01 -4.31175e-17 -0.05 -4.83549e-06 6.18459e-06 1.92729e-06 0 4.60564e-15
1554 16 0.001 0.00994675 -0.000934865 -0.0496518 -5.39175e-13 -1.08913e-13 -3.97503e-13 0 1.08106e-14
10 10 0.001 0.03 -4.31175e-17 -0.05 -4.83549e-06 6.18459e-06 1.92729e-06 0 4.60564e-15
1950 18 0.001 0.0299468 -0.000934865 -0.0496518 -5.12224e-13 -1.06725e-13 -3.9968e-13 0 1.08106e-14
379 11 0.001 -0.0552413 -0.00372428 -0.0476822 -2.17536e-12 1.79239e-12 -2.16636e-12 0 2.07218e-15
380 11 0.001 -0.0542986 -0.00396493 -0.047909 -2.29055e-12 1.39876e-12 -2.19555e-12 0 1.64474e-15
381 11 0.001 -0.0533293 -0.00396683 -0.0481507 -2.27592e-12 1.00118e-12 -2.10038e-12 0 1.01915e-15
382 11 0.001 -0.052394 -0.00373117 -0.048411 -2.05671e-12 5.89426e-13 -1.90281e-12 0 4.09129e-16
383 11 0.001 -0.0515512 -0.00327424 -0.0486918 -1.96517e-12 2.96821e-13 -1.57206e-12 0 8.15094e-17
755 12 0.001 -0.0352413 -0.00372428 -0.0476822 -2.20848e-12 1.78417e-12 -2.15724e-12 0 2.07218e-15
756 12 0.001 -0.0342986 -0.00396493 -0.047909 -2.30558e-12 1.4042e-12 -2.1928e-12 0 1.64473e-15
757 12 0.001 -0.0333293 -0.00396683 -0.0481507 -2.21372e-12 9.96128e-13 -2.11385e-12 0 1.01914e-15
758 12 0.001 -0.032394 -0.00373117 -0.048411 -2.13899e-12 5.8655e-13 -1.88063e-12 0 4.09119e-16
759 12 0.001 -0.0315512 -0.00327424 -0.0486918 -1.88152e-12 3.13876e-13 -1.59534e-12 0 8.15074e-17
1151 14 0.001 -0.0152413 -0.00372428 -0.0476822 -2.17709e-12 1.79199e-12 -2.16352e-12 0 2.07218e-15
1152 14 0.001 -0.0142986 -0.00396493 -0.047909 -2.29604e-12 1.40292e-12 -2.19451e-12 0 1.64473e-15
1153 14 0.001 -0.0133293 -0.00396683 -0.0481507 -2.25189e-12 9.88137e-13 -2.10438e-12 0 1.01914e-15
1154 14 0.001 -0.012394 -0.00373117 -0.048411 -2.12592e-12 6.01615e-13 -1.88674e-12 0 4.09119e-16
1155 14 0.001 -0.0115512 -0.00327424 -0.0486918 -1.85944e-12 2.97022e-13 -1.59464e-12 0 8.15074e-17
1547 16 0.001 0.0047587 -0.00372428 -0.0476822 -2.1679e-12 1.79471e-12 -2.16613e-12 0 2.07218e-15
1548 16 0.001 0.00570138 -0.00396493 -0.047909 -2.29927e-12 1.39369e-12 -2.19324e-12 0 1.64473e-15
1549 16 0.001 0.00667071 -0.00396683 -0.0481507 -2.25899e-12 9.93928e-13 -2.10286e-12 0 1.01914e-15
1550 16 0.001 0.00760599 -0.00373117 -0.048411 -2.12911e-12 5.99205e-13 -1.88567e-12 0 4.09119e-16
1551 16 0.001 0.00844881 -0.00327424 -0.0486918 -1.85497e-12 3.0032e-13 -1.59657e-12 0 8.15074e-17
1943 18 0.001 0.0247587 -0.00372428 -0.0476822 -2.19171e-12 1.78771e-12 -2.16108e-12 0 2.07218e-15
1944 18 0.001 0.0257014 -0.00396493 -0.047909 -2.28284e-12 1.39776e-12 -2.19693e-12 0 1.64473e-15
1945 18 0.001 0.0266707 -0.00396683 -0.0481507 -2.26702e-12 9.98362e-13 -2.10205e-12 0 1.01914e-15
1946 18 0.001 0.027606 -0.00373117 -0.048411 -2.11665e-12 5.94892e-13 -1.88753e-12 0 4.09119e-16
1947 18 0.001 0.0284488 -0.00327424 -0.0486918 -1.86396e-12 3.0542e-13 -1.59633e-12 0 8.15074e-17
378 11 0.001 -0.0560983 -0.00325893 -0.0474654 -1.94321e-12 2.14147e-12 -2.01868e-12 0 2.19642e-15
754 12 0.001 -0.0360983 -0.00325893 -0.0474654 -1.90608e-12 2.14216e-12 -2.02643e-12 0 2.19642e-15
1150 14 0.001 -0.0160983 -0.00325893 -0.0474654 -1.93993e-12 2.13933e-12 -2.02013e-12 0 2.19642e-15
1546 16 0.001 0.00390168 -0.00325893 -0.0474654 -1.94126e-12 2.13316e-12 -2.02043e-12 0 2.19642e-15
1942 18 0.001 0.0239017 -0.00325893 -0.0474654 -1.92005e-12 2.14262e-12 -2.02375e-12 0 2.19642e-15
376 11 0.001 -0.0573502 -0.00178022 -0.0470408 -1.20063e-12 2.61079e-12 -1.4063e-12 0 1.66012e-15
377 11 0.001 -0.0568162 -0.00259728 -0.0472534 -1.59037e-12 2.3952e-12 -1.76051e-12 0 2.02808e-15
753 12 0.001 -0.0368162 -0.00259728 -0.0472534 -1.59306e-12 2.39883e-12 -1.75986e-12 0 2.02809e-15
752 12 0.001 -0.0373502 -0.00178022 -0.0470408 -1.19957e-12 2.60543e-12 -1.40245e-12 0 1.66013e-15
1149 14 0.001 -0.0168162 -0.00259728 -0.0472534 -1.59216e-12 2.39675e-12 -1.76072e-12 0 2.02809e-15
1148 14 0.001 -0.0173502 -0.00178022 -0.0470408 -1.18401e-12 2.60404e-12 -1.40429e-12 0 1.66013e-15
1544 16 0.001 0.00264979 -0.00178022 -0.0470408 -1.18841e-12 2.60141e-12 -1.40403e-12 0 1.66013e-15
1545 16 0.001 0.00318384 -0.00259728 -0.0472534 -1.58935e-12 2.4067e-12 -1.75974e-12 0 2.02809e-15
1941 18 0.001 0.0231838 -0.00259728 -0.0472534 -1.59926e-12 2.40062e-12 -1.75846e-12 0 2.02809e-15
1940 18 0.001 0.0226498 -0.00178022 -0.0470408 -1.19546e-12 2.60135e-12 -1.40442e-12 0 1.66013e-15
375 11 0.001 -0.0576676 -0.000858432 -0.0468227 -6.92646e-13 2.62711e-12 -1.00685e-12 0 1.21579e-15
751 12 0.001 -0.0376676 -0.000858432 -0.0468227 -7.19032e-13 2.63375e-12 -1.0091e-12 0 1.21581e-15
1147 14 0.001 -0.0176676 -0.000858432 -0.0468227 -7.31371e-13 2.63397e-12 -1.01009e-12 0 1.21581e-15
1543 16 0.001 0.00233239 -0.000858432 -0.0468227 -7.24067e-13 2.63071e-12 -1.01057e-12 0 1.21581e-15
1939 18 0.001 0.0223324 -0.000858432 -0.0468227 -7.15535e-13 2.63192e-12 -1.01061e-12 0 1.21581e-15
373 11 0.001 -0.0575909 0.00106779 -0.0463558 2.68484e-13 2.39667e-12 -1.94094e-13 0 4.79942e-16
374 11 0.001 -0.0577493 0.000110905 -0.0465952 -2.58447e-13 2.57173e-12 -5.95962e-13 0 8.01505e-16
749 12 0.001 -0.0375909 0.00106779 -0.0463558 2.44526e-13 2.38837e-12 -2.01221e-13 0 4.79953e-16
750 12 0.001 -0.0377493 0.000110905 -0.0465952 -2.29533e-13 2.57098e-12 -5.91295e-13 0 8.01518e-16
1145 14 0.001 -0.0175909 0.00106779 -0.0463558 2.23842e-13 2.38535e-12 -2.03867e-13 0 4.79953e-16
1146 14 0.001 -0.0177493 0.000110905 -0.0465952 -2.04446e-13 2.57555e-12 -5.87014e-13 0 8.01518e-16
1541 16 0.001 0.00240915 0.00106779 -0.0463558 2.44327e-13 2.38528e-12 -2.02722e-13 0 4.79953e-16
1542 16 0.001 0.00225073 0.000110905 -0.0465952 -2.26024e-13 2.57697e-12 -5.88135e-13 0 8.01518e-16
1937 18 0.001 0.0224091 0.00106779 -0.0463558 2.30139e-13 2.39027e-12 -2.0086e-13 0 4.79953e-16
1938 18 0.001 0.0222507 0.000110905 -0.0465952 -2.12228e-13 2.57732e-12 -5.87438e-13 0 8.01518e-16
372 11 0.001 -0.057203 0.00195315 -0.0461034 6.52737e-13 2.08448e-12 1.11108e-13 0 2.67105e-16
748 12 0.001 -0.037203 0.00195315 -0.0461034 6.84821e-13 2.07111e-12 1.16918e-13 0 2.67113e-16
1144 14 0.001 -0.017203 0.00195315 -0.0461034 6.83984e-13 2.07943e-12 1.17062e-13 0 2.67113e-16
1540 16 0.001 0.00279701 0.00195315 -0.0461034 6.78854e-13 2.07746e-12 1.17283e-13 0 2.67113e-16
1936 18 0.001 0.022797 0.00195315 -0.0461034 6.69321e-13 2.07084e-12 1.11405e-13 0 2.67113e-16
371 11 0.001 -0.0566105 0.00271248 -0.0458381 1.14073e-12 1.67874e-12 3.61868e-13 0 1.46565e-16
747 12 0.001 -0.0366105 0.00271248 -0.0458381 1.06297e-12 1.70742e-12 3.47442e-13 0 1.46572e-16
1143 14 0.001 -0.0166105 0.00271248 -0.0458381 1.08271e-12 1.69249e-12 3.50413e-13 0 1.46572e-16
1539 16 0.001 0.00338951 0.00271248 -0.0458381 1.08092e-12 1.69897e-12 3.50395e-13 0 1.46572e-16
1935 18 0.001 0.0233895 0.00271248 -0.0458381 1.10738e-12 1.70238e-12 3.58374e-13 0 1.46572e-16
370 11 0.001 -0.0558507 0.00329916 -0.0455615 1.27151e-12 1.2275e-12 4.28348e-13 0 8.9851e-17
369 11 0.001 -0.0549712 0.00367721 -0.0452759 1.69021e-12 6.83136e-13 4.71071e-13 0 7.28669e-17
368 11 0.001 -0.0540269 0.00382353 -0.0449843 1.69601e-12 1.39737e-13 3.23003e-13 0 8.29363e-17
367 11 0.001 -0.0530769 0.00372925 -0.0446901 1.71754e-12 -3.88162e-13 1.14649e-13 0 1.16578e-16
745 12 0.001 -0.0349712 0.00367721 -0.0452759 1.5451e-12 6.99237e-13 4.2994e-13 0 7.28707e-17
746 12 0.001 -0.0358507 0.00329916 -0.0455615 1.43228e-12 1.21097e-12 4.70457e-13 0 8.98556e-17
744 12 0.001 -0.0340269 0.00382353 -0.0449843 1.70947e-12 1.33383e-13 3.2677e-13 0 8.29397e-17
743 12 0.001 -0.0330769 0.00372925 -0.0446901 1.74077e-12 -4.16989e-13 1.25448e-13 0 1.16581e-16
1142 14 0.001 -0.0158507 0.00329916 -0.0455615 1.37485e-12 1.2155e-12 4.55233e-13 0 8.98556e-17
1140 14 0.001 -0.0140269 0.00382353 -0.0449843 1.73343e-12 1.43495e-13 3.34355e-13 0 8.29397e-17
1141 14 0.001 -0.0149712 0.00367721 -0.0452759 1.58886e-12 6.91298e-13 4.41984e-13 0 7.28707e-17
1139 14 0.001 -0.0130769 0.00372925 -0.0446901 1.70981e-12 -4.09683e-13 1.15154e-13 0 1.16581e-16
1538 16 0.001 0.00414932 0.00329916 -0.0455615 1.3861e-12 1.21385e-12 4.57705e-13 0 8.98556e-17
1537 16 0.001 0.00502882 0.00367721 -0.0452759 1.59343e-12 6.94212e-13 4.45059e-13 0 7.28707e-17
1536 16 0.001 0.00597306 0.00382353 -0.0449843 1.70671e-12 1.38982e-13 3.24086e-13 0 8.29397e-17
1535 16 0.001 0.00692307 0.00372925 -0.0446901 1.71388e-12 -4.09126e-13 1.18075e-13 0 1.16581e-16
1933 18 0.001 0.0250288 0.00367721 -0.0452759 1.59427e-12 7.00215e-13 4.44014e-13 0 7.28707e-17
1934 18 0.001 0.0241493 0.00329916 -0.0455615 1.35624e-12 1.20511e-12 4.49075e-13 0 8.98556e-17
1932 18 0.001 0.0259731 0.00382353 -0.0449843 1.72476e-12 1.33671e-13 3.31883e-13 0 8.29397e-17
1931 18 0.001 0.0269231 0.00372925 -0.0446901 1.7222e-12 -4.00552e-13 1.17932e-13 0 1.16581e-16
361 11 0.001 -0.0501756 -0.000625769 -0.0429999 -2.59432e-13 -2.10104e-12 -1.04509e-12 0 4.02788e-16
737 12 0.001 -0.0301756 -0.000625769 -0.0429999 -2.12961e-13 -2.09818e-12 -1.04802e-12 0 4.02786e-16
1133 14 0.001 -0.0101756 -0.000625769 -0.0429999 -2.4386e-13 -2.10571e-12 -1.04296e-12 0 4.02786e-16
1529 16 0.001 0.0098244 -0.000625769 -0.0429999 -2.56997e-13 -2.10265e-12 -1.04371e-12 0 4.02786e-16
1925 18 0.001 0.0298244 -0.000625769 -0.0429999 -2.37918e-13 -2.10492e-12 -1.04269e-12 0 4.02786e-16
362 11 0.001 -0.0501376 0.000336183 -0.0432667 2.24671e-13 -2.12807e-12 -1.01183e-12 0 4.06847e-16
363 11 0.001 -0.0503391 0.00127578 -0.0435398 6.48732e-13 -2.00006e-12 -8.90156e-13 0 3.76406e-16
738 12 0.001 -0.0301376 0.000336183 -0.0432667 2.05487e-13 -2.12749e-12 -1.00977e-12 0 4.06846e-16
739 12 0.001 -0.0303391 0.00127578 -0.0435398 6.19579e-13 -2.01256e-12 -8.92813e-13 0 3.76406e-16
1134 14 0.001 -0.0101376 0.000336183 -0.0432667 2.01892e-13 -2.12779e-12 -1.01177e-12 0 4.06846e-16
1135 14 0.001 -0.0103391 0.00127578 -0.0435398 6.55206e-13 -2.0022e-12 -8.90201e-13 0 3.76406e-16
1530 16 0.001 0.00986243 0.000336183 -0.0432667 2.20634e-13 -2.12748e-12 -1.01088e-12 0 4.06846e-16
1531 16 0.001 0.00966092 0.00127578 -0.0435398 6.38139e-13 -2.00408e-12 -8.91362e-13 0 3.76406e-16
1926 18 0.001 0.0298624 0.000336183 -0.0432667 1.8627e-13 -2.13119e-12 -1.01165e-12 0 4.06846e-16
1927 18 0.001 0.0296609 0.00127578 -0.0435398 6.70921e-13 -1.99698e-12 -8.89862e-13 0 3.76406e-16
365 11 0.001 -0.0513941 0.00285734 -0.0441053 1.42758e-12 -1.38206e-12 -4.16965e-13 0 2.43567e-16
364 11 0.001 -0.050767 0.00213408 -0.0438194 1.01075e-12 -1.74798e-12 -6.97221e-13 0 3.17261e-16
740 12 0.001 -0.030767 0.00213408 -0.0438194 1.10461e-12 -1.73725e-12 -6.80597e-13 0 3.17262e-16
741 12 0.001 -0.0313941 0.00285734 -0.0441053 1.30132e-12 -1.39105e-12 -4.43578e-13 0 2.43569e-16
1136 14 0.001 -0.010767 0.00213408 -0.0438194 1.04279e-12 -1.7462e-12 -6.89858e-13 0 3.17262e-16
1137 14 0.001 -0.0113941 0.00285734 -0.0441053 1.37071e-12 -1.38559e-12 -4.28968e-13 0 2.43569e-16
1533 16 0.001 0.00860591 0.00285734 -0.0441053 1.36774e-12 -1.38302e-12 -4.3011e-13 0 2.43569e-16
1532 16 0.001 0.00923297 0.00213408 -0.0438194 1.05022e-12 -1.74869e-12 -6.88603e-13 0 3.17262e-16
1928 18 0.001 0.029233 0.00213408 -0.0438194 1.02296e-12 -1.75342e-12 -6.91656e-13 0 3.17262e-16
1929 18 0.001 0.0286059 0.00285734 -0.0441053 1.39407e-12 -1.37993e-12 -4.25371e-13 0 2.43569e-16
366 11 0.001 -0.0521806 0.00340035 -0.0443961 1.55639e-12 -9.45477e-13 -1.55935e-13 0 1.72241e-16
742 12 0.001 -0.0321806 0.00340035 -0.0443961 1.61791e-12 -9.13956e-13 -1.44962e-13 0 1.72244e-16
1138 14 0.001 -0.0121806 0.00340035 -0.0443961 1.59054e-12 -9.26165e-13 -1.49799e-13 0 1.72244e-16
1534 16 0.001 0.00781943 0.00340035 -0.0443961 1.60112e-12 -9.26619e-13 -1.4738e-13 0 1.72244e-16
1930 18 0.001 0.0278194 0.00340035 -0.0443961 1.57428e-12 -9.32574e-13 -1.52706e-13 0 1.72244e-16
355 11 0.001 -0.0543592 -0.00384472 -0.0414575 -1.59538e-12 1.10363e-13 -1.98064e-13 0 1.63623e-16
356 11 0.001 -0.0533942 -0.00381448 -0.0417145 -1.56797e-12 -4.24483e-13 -3.3508e-13 0 1.78063e-16
357 11 0.001 -0.0524664 -0.00354645 -0.0419699 -1.54514e-12 -8.66763e-13 -4.89323e-13 0 2.11205e-16
358 11 0.001 -0.0516335 -0.00305726 -0.0422248 -1.3712e-12 -1.32387e-12 -6.74991e-13 0 2.59668e-16
731 12 0.001 -0.0343592 -0.00384472 -0.0414575 -1.61055e-12 8.1364e-14 -1.935e-13 0 1.63625e-16
732 12 0.001 -0.0333942 -0.00381448 -0.0417145 -1.63653e-12 -3.89711e-13 -3.18159e-13 0 1.78064e-16
733 12 0.001 -0.0324664 -0.00354645 -0.0419699 -1.46698e-12 -8.93469e-13 -5.05644e-13 0 2.11204e-16
734 12 0.001 -0.0316335 -0.00305726 -0.0422248 -1.39579e-12 -1.29992e-12 -6.72781e-13 0 2.59667e-16
1127 14 0.001 -0.0143592 -0.00384472 -0.0414575 -1.59301e-12 8.84097e-14 -1.97808e-13 0 1.63625e-16
1128 14 0.001 -0.0133942 -0.00381448 -0.0417145 -1.62468e-12 -3.99073e-13 -3.2092e-13 0 1.78064e-16
1129 14 0.001 -0.0124664 -0.00354645 -0.0419699 -1.52163e-12 -8.80326e-13 -4.94191e-13 0 2.11204e-16
1130 14 0.001 -0.0116335 -0.00305726 -0.0422248 -1.35586e-12 -1.32784e-12 -6.76319e-13 0 2.59667e-16
1523 16 0.001 0.00564084 -0.00384472 -0.0414575 -1.59301e-12 9.18819e-14 -1.97815e-13 0 1.63625e-16
1524 16 0.001 0.00660576 -0.00381448 -0.0417145 -1.62358e-12 -4.02339e-13 -3.21294e-13 0 1.78064e-16
1525 16 0.001 0.00753362 -0.00354645 -0.0419699 -1.52094e-12 -8.80214e-13 -4.9424e-13 0 2.11204e-16
1526 16 0.001 0.00836655 -0.00305726 -0.0422248 -1.35769e-12 -1.32682e-12 -6.7618e-13 0 2.59667e-16
1919 18 0.001 0.0256408 -0.00384472 -0.0414575 -1.58568e-12 9.23806e-14 -1.99762e-13 0 1.63625e-16
1920 18 0.001 0.0266058 -0.00381448 -0.0417145 -1.6152e-12 -4.01288e-13 -3.23519e-13 0 1.78064e-16
1921 18 0.001 0.0275336 -0.00354645 -0.0419699 -1.49972e-12 -8.83418e-13 -4.98668e-13 0 2.11204e-16
1922 18 0.001 0.0283665 -0.00305726 -0.0422248 -1.39207e-12 -1.32625e-12 -6.69024e-13 0 2.59667e-16
359 11 0.001 -0.0509475 -0.00237748 -0.0424803 -1.03533e-12 -1.69433e-12 -8.57065e-13 0 3.16107e-16
360 11 0.001 -0.0504512 -0.00154966 -0.0427382 -6.74811e-13 -1.95014e-12 -9.87007e-13 0 3.68578e-16
735 12 0.001 -0.0309475 -0.00237748 -0.0424803 -1.00076e-12 -1.70096e-12 -8.60033e-13 0 3.16105e-16
736 12 0.001 -0.0304512 -0.00154966 -0.0427382 -7.28057e-13 -1.94924e-12 -9.81778e-13 0 3.68576e-16
1131 14 0.001 -0.0109475 -0.00237748 -0.0424803 -1.0395e-12 -1.6738e-12 -8.59441e-13 0 3.16105e-16
1132 14 0.001 -0.0104512 -0.00154966 -0.0427382 -6.78875e-13 -1.95258e-12 -9.87236e-13 0 3.68576e-16
1527 16 0.001 0.00905254 -0.00237748 -0.0424803 -1.03688e-12 -1.67398e-12 -8.59696e-13 0 3.16105e-16
1528 16 0.001 0.00954878 -0.00154966 -0.0427382 -6.7633e-13 -1.95472e-12 -9.8657e-13 0 3.68576e-16
1923 18 0.001 0.0290525 -0.00237748 -0.0424803 -1.02352e-12 -1.6762e-12 -8.6205e-13 0 3.16105e-16
1924 18 0.001 0.0295488 -0.00154966 -0.0427382 -6.77282e-13 -1.94878e-12 -9.8829e-13 0 3.68576e-16
353 11 0.001 -0.0561612 -0.00319974 -0.040937 -1.17458e-12 9.93346e-13 -1.71248e-13 0 1.97375e-16
354 11 0.001 -0.055301 -0.00363542 -0.0411984 -1.52329e-12 5.67615e-13 -1.24612e-13 0 1.69493e-16
729 12 0.001 -0.0361612 -0.00319974 -0.040937 -1.20051e-12 1.00476e-12 -1.61349e-13 0 1.97379e-16
730 12 0.001 -0.035301 -0.00363542 -0.0411984 -1.47182e-12 5.71671e-13 -1.37771e-13 0 1.69495e-16
1125 14 0.001 -0.0161612 -0.00319974 -0.040937 -1.23986e-12 9.92991e-13 -1.55359e-13 0 1.97379e-16
1126 14 0.001 -0.015301 -0.00363542 -0.0411984 -1.44873e-12 5.68094e-13 -1.43045e-13 0 1.69495e-16
1521 16 0.001 0.00383884 -0.00319974 -0.040937 -1.22815e-12 9.97981e-13 -1.56758e-13 0 1.97379e-16
1522 16 0.001 0.004699 -0.00363542 -0.0411984 -1.45333e-12 5.66538e-13 -1.42223e-13 0 1.69495e-16
1917 18 0.001 0.0238388 -0.00319974 -0.040937 -1.21571e-12 9.93664e-13 -1.60575e-13 0 1.97379e-16
1918 18 0.001 0.024699 -0.00363542 -0.0411984 -1.48726e-12 5.70657e-13 -1.33143e-13 0 1.69495e-16
351 11 0.001 -0.057431 -0.00177068 -0.0404083 -5.37834e-13 1.67008e-12 -3.7185e-13 0 3.25998e-16
352 11 0.001 -0.0568862 -0.00256496 -0.0406735 -9.34187e-13 1.39502e-12 -2.32172e-13 0 2.49285e-16
727 12 0.001 -0.037431 -0.00177068 -0.0404083 -5.09982e-13 1.68544e-12 -3.73304e-13 0 3.26004e-16
728 12 0.001 -0.0368862 -0.00256496 -0.0406735 -9.58859e-13 1.38273e-12 -2.30704e-13 0 2.4929e-16
1123 14 0.001 -0.017431 -0.00177068 -0.0404083 -5.51716e-13 1.67682e-12 -3.69083e-13 0 3.26004e-16
1124 14 0.001 -0.0168862 -0.00256496 -0.0406735 -9.17069e-13 1.40012e-12 -2.34404e-13 0 2.4929e-16
1519 16 0.001 0.00256904 -0.00177068 -0.0404083 -5.44267e-13 1.68447e-12 -3.68069e-13 0 3.26004e-16
1520 16 0.001 0.00311384 -0.00256496 -0.0406735 -9.27112e-13 1.39136e-12 -2.34201e-13 0 2.4929e-16
1915 18 0.001 0.022569 -0.00177068 -0.0404083 -5.43616e-13 1.67816e-12 -3.69264e-13 0 3.26004e-16
1916 18 0.001 0.0231138 -0.00256496 -0.0406735 -9.21202e-13 1.39413e-12 -2.3472e-13 0 2.4929e-16
350 11 0.001 -0.0577617 -0.000866397 -0.040142 -1.47679e-13 1.89454e-12 -5.26276e-13 0 4.24774e-16
726 12 0.001 -0.0377617 -0.000866397 -0.040142 -1.14089e-13 1.87182e-12 -5.29788e-13 0 4.24782e-16
1122 14 0.001 -0.0177617 -0.000866397 -0.040142 -9.69679e-14 1.88203e-12 -5.29436e-13 0 4.24782e-16
1518 16 0.001 0.0022383 -0.000866397 -0.040142 -1.19156e-13 1.87771e-12 -5.30018e-13 0 4.24782e-16
1914 18 0.001 0.0222383 -0.000866397 -0.040142 -1.20492e-13 1.88145e-12 -5.2874e-13 0 4.24782e-16
348 11 0.001 -0.0577134 0.00104341 -0.0396086 7.99647e-13 1.92499e-12 -8.21588e-13 0 6.52721e-16
349 11 0.001 -0.0578579 9.15318e-05 -0.0398753 3.52298e-13 1.95412e-12 -6.95453e-13 0 5.37835e-16
724 12 0.001 -0.0377134 0.00104341 -0.0396086 7.47727e-13 1.92557e-12 -8.28424e-13 0 6.52731e-16
725 12 0.001 -0.0378579 9.15317e-05 -0.0398753 3.14643e-13 1.94999e-12 -6.9495e-13 0 5.37844e-16
1120 14 0.001 -0.0177134 0.00104341 -0.0396086 8.18301e-13 1.92085e-12 -8.22267e-13 0 6.52731e-16
1121 14 0.001 -0.0178579 9.15317e-05 -0.0398753 2.88948e-13 1.94769e-12 -6.97187e-13 0 5.37844e-16
1516 16 0.001 0.00228658 0.00104341 -0.0396086 7.70126e-13 1.92393e-12 -8.24721e-13 0 6.52731e-16
1517 16 0.001 0.00214215 9.15317e-05 -0.0398753 3.31097e-13 1.94928e-12 -6.95963e-13 0 5.37844e-16
1912 18 0.001 0.0222866 0.00104341 -0.0396086 7.97159e-13 1.92042e-12 -8.23756e-13 0 6.52731e-16
1913 18 0.001 0.0221421 9.15317e-05 -0.0398753 3.15698e-13 1.9515e-12 -6.96233e-13 0 5.37844e-16
347 11 0.001 -0.0573374 0.00192987 -0.0393425 1.09376e-12 1.77051e-12 -9.22795e-13 0 7.54702e-16
346 11 0.001 -0.0567532 0.00269559 -0.0390772 1.60961e-12 1.50976e-12 -9.12403e-13 0 8.30414e-16
722 12 0.001 -0.0367532 0.00269559 -0.0390772 1.47401e-12 1.49738e-12 -9.40759e-13 0 8.30425e-16
723 12 0.001 -0.0373374 0.00192987 -0.0393425 1.21111e-12 1.77753e-12 -9.02736e-13 0 7.54712e-16
1118 14 0.001 -0.0167532 0.00269559 -0.0390772 1.54749e-12 1.49614e-12 -9.27027e-13 0 8.30425e-16
1119 14 0.001 -0.0173374 0.00192987 -0.0393425 1.12724e-12 1.78636e-12 -9.12689e-13 0 7.54712e-16
1515 16 0.001 0.0026626 0.00192987 -0.0393425 1.16785e-12 1.7766e-12 -9.10078e-13 0 7.54712e-16
1514 16 0.001 0.0032468 0.00269559 -0.0390772 1.5144e-12 1.50271e-12 -9.31087e-13 0 8.30425e-16
1910 18 0.001 0.0232468 0.00269559 -0.0390772 1.52297e-12 1.5007e-12 -9.30328e-13 0 8.30425e-16
1911 18 0.001 0.0226626 0.00192987 -0.0393425 1.14918e-12 1.78054e-12 -9.11073e-13 0 7.54712e-16
345 11 0.001 -0.0559973 0.00329275 -0.0388127 1.63461e-12 1.17293e-12 -9.13557e-13 0 8.71322e-16
344 11 0.001 -0.0551167 0.00368402 -0.0385489 1.96371e-12 7.48084e-13 -7.65087e-13 0 8.75691e-16
720 12 0.001 -0.0351167 0.00368402 -0.0385489 1.861e-12 7.48287e-13 -7.90985e-13 0 8.75701e-16
721 12 0.001 -0.0359973 0.00329275 -0.0388127 1.79855e-12 1.19346e-12 -8.70656e-13 0 8.71332e-16
1117 14 0.001 -0.0159973 0.00329275 -0.0388127 1.71941e-12 1.17335e-12 -8.91354e-13 0 8.71332e-16
1116 14 0.001 -0.0151167 0.00368402 -0.0385489 1.8975e-12 7.60665e-13 -7.8079e-13 0 8.75701e-16
1513 16 0.001 0.00400274 0.00329275 -0.0388127 1.74073e-12 1.17291e-12 -8.87197e-13 0 8.71332e-16
1512 16 0.001 0.00488326 0.00368402 -0.0385489 1.90413e-12 7.64043e-13 -7.78903e-13 0 8.75701e-16
1908 18 0.001 0.0248833 0.00368402 -0.0385489 1.87507e-12 7.61009e-13 -7.8686e-13 0 8.75701e-16
1909 18 0.001 0.0240027 0.00329275 -0.0388127 1.74513e-12 1.17522e-12 -8.85548e-13 0 8.71332e-16
338 11 0.001 -0.0503936 0.00135497 -0.0369651 6.432e-13 -1.35232e-12 -8.0687e-14 0 5.96975e-16
714 12 0.001 -0.0303936 0.00135497 -0.0369651 5.98366e-13 -1.32476e-12 -9.3052e-14 0 5.96986e-16
1110 14 0.001 -0.0103936 0.00135497 -0.0369651 6.08919e-13 -1.32419e-12 -9.17965e-14 0 5.96986e-16
1506 16 0.001 0.00960644 0.00135497 -0.0369651 5.93527e-13 -1.32337e-12 -9.37805e-14 0 5.96986e-16
1902 18 0.001 0.0296064 0.00135497 -0.0369651 6.04571e-13 -1.31937e-12 -9.41626e-14 0 5.96986e-16
340 11 0.001 -0.0514913 0.00291971 -0.0374948 1.42065e-12 -8.59092e-13 -1.70965e-13 0 6.8134e-16
339 11 0.001 -0.0508439 0.00220636 -0.0372303 9.57574e-13 -1.13276e-12 -1.14878e-13 0 6.31835e-16
715 12 0.001 -0.0308439 0.00220636 -0.0372303 9.85801e-13 -1.14279e-12 -1.07545e-13 0 6.31845e-16
716 12 0.001 -0.0314913 0.00291971 -0.0374948 1.4308e-12 -8.54764e-13 -1.67256e-13 0 6.8135e-16
1111 14 0.001 -0.0108439 0.00220636 -0.0372303 9.92158e-13 -1.142e-12 -1.05704e-13 0 6.31845e-16
1112 14 0.001 -0.0114913 0.00291971 -0.0374948 1.37424e-12 -8.61568e-13 -1.78334e-13 0 6.8135e-16
1508 16 0.001 0.00850868 0.00291971 -0.0374948 1.36333e-12 -8.58563e-13 -1.8091e-13 0 6.8135e-16
1507 16 0.001 0.00915611 0.00220636 -0.0372303 1.0093e-12 -1.14145e-12 -1.03359e-13 0 6.31845e-16
1903 18 0.001 0.0291561 0.00220636 -0.0372303 1.00008e-12 -1.14625e-12 -1.03919e-13 0 6.31845e-16
1904 18 0.001 0.0285087 0.00291971 -0.0374948 1.38e-12 -8.52892e-13 -1.78336e-13 0 6.8135e-16
343 11 0.001 -0.0541666 0.00384493 -0.0382855 1.94931e-12 3.49278e-13 -6.25098e-13 0 8.48473e-16
342 11 0.001 -0.0532062 0.00376542 -0.0380222 1.82392e-12 -9.18431e-14 -4.73139e-13 0 7.99371e-16
341 11 0.001 -0.0522955 0.00345045 -0.0377587 1.5972e-12 -5.04294e-13 -3.20235e-13 0 7.40018e-16
719 12 0.001 -0.0341666 0.00384493 -0.0382855 1.90329e-12 3.33395e-13 -6.36773e-13 0 8.48483e-16
718 12 0.001 -0.0332062 0.00376542 -0.0380222 1.89807e-12 -8.31533e-14 -4.52896e-13 0 7.9938e-16
717 12 0.001 -0.0322955 0.00345045 -0.0377587 1.5571e-12 -5.09569e-13 -3.29261e-13 0 7.40028e-16
1115 14 0.001 -0.0141666 0.00384493 -0.0382855 1.94273e-12 3.43191e-13 -6.26832e-13 0 8.48483e-16
1113 14 0.001 -0.0122955 0.00345045 -0.0377587 1.63789e-12 -4.91109e-13 -3.12837e-13 0 7.40028e-16
1114 14 0.001 -0.0132062 0.00376542 -0.0380222 1.82498e-12 -1.03137e-13 -4.69693e-13 0 7.9938e-16
1511 16 0.001 0.00583339 0.00384493 -0.0382855 1.91504e-12 3.3977e-13 -6.33426e-13 0 8.48483e-16
1510 16 0.001 0.0067938 0.00376542 -0.0380222 1.84506e-12 -1.00662e-13 -4.65845e-13 0 7.9938e-16
1509 16 0.001 0.00770451 0.00345045 -0.0377587 1.63667e-12 -4.96608e-13 -3.11798e-13 0 7.40028e-16
1907 18 0.001 0.0258334 0.00384493 -0.0382855 1.95038e-12 3.3393e-13 -6.24044e-13 0 8.48483e-16
1906 18 0.001 0.0267938 0.00376542 -0.0380222 1.82452e-12 -8.65915e-14 -4.71881e-13 0 7.9938e-16
1905 18 0.001 0.0277045 0.00345045 -0.0377587 1.63452e-12 -5.09543e-13 -3.10633e-13 0 7.40028e-16
333 11 0.001 -0.0515772 -0.00300439 -0.0356331 -1.34589e-12 -9.26317e-13 -6.09847e-13 0 6.68667e-16
709 12 0.001 -0.0315772 -0.00300439 -0.0356331 -1.37698e-12 -9.3586e-13 -6.05928e-13 0 6.68682e-16
1105 14 0.001 -0.0115772 -0.00300439 -0.0356331 -1.3901e-12 -9.3367e-13 -6.02196e-13 0 6.68682e-16
1501 16 0.001 0.00842275 -0.00300439 -0.0356331 -1.42429e-12 -9.36839e-13 -5.92764e-13 0 6.68682e-16
1897 18 0.001 0.0284228 -0.00300439 -0.0356331 -1.37905e-12 -9.46039e-13 -6.01905e-13 0 6.68682e-16
334 11 0.001 -0.0509095 -0.00231072 -0.0358996 -1.13e-12 -1.20472e-12 -4.6948e-13 0 6.27343e-16
710 12 0.001 -0.0309095 -0.00231072 -0.0358996 -1.1103e-12 -1.19649e-12 -4.70428e-13 0 6.27357e-16
1106 14 0.001 -0.0109095 -0.00231072 -0.0358996 -1.06886e-12 -1.19306e-12 -4.78522e-13 0 6.27357e-16
1502 16 0.001 0.00909047 -0.00231072 -0.0358996 -1.04434e-12 -1.19362e-12 -4.83916e-13 0 6.27357e-16
1898 18 0.001 0.0290905 -0.00231072 -0.0358996 -1.12079e-12 -1.18359e-12 -4.73265e-13 0 6.27357e-16
335 11 0.001 -0.0504347 -0.00147319 -0.0361662 -7.06771e-13 -1.38733e-12 -3.36933e-13 0 5.96485e-16
336 11 0.001 -0.0501824 -0.000544067 -0.0364328 -2.54844e-13 -1.4626e-12 -2.2071e-13 0 5.79676e-16
711 12 0.001 -0.0304347 -0.00147319 -0.0361662 -6.745e-13 -1.3859e-12 -3.41599e-13 0 5.96498e-16
712 12 0.001 -0.0301824 -0.000544067 -0.0364328 -2.90642e-13 -1.45346e-12 -2.19229e-13 0 5.79688e-16
1107 14 0.001 -0.0104347 -0.00147319 -0.0361662 -7.29862e-13 -1.3867e-12 -3.33628e-13 0 5.96498e-16
1108 14 0.001 -0.0101824 -0.000544067 -0.0364328 -2.68561e-13 -1.46062e-12 -2.20622e-13 0 5.79688e-16
1503 16 0.001 0.00956529 -0.00147319 -0.0361662 -7.39776e-13 -1.37957e-12 -3.33521e-13 0 5.96498e-16
1504 16 0.001 0.00981758 -0.000544067 -0.0364328 -2.67632e-13 -1.4643e-12 -2.20203e-13 0 5.79688e-16
1899 18 0.001 0.0295653 -0.00147319 -0.0361662 -6.56309e-13 -1.38882e-12 -3.41564e-13 0 5.96498e-16
1900 18 0.001 0.0298176 -0.000544067 -0.0364328 -3.03485e-13 -1.45387e-12 -2.18798e-13 0 5.79688e-16
337 11 0.001 -0.0501684 0.000418678 -0.0366992 1.25826e-13 -1.45728e-12 -1.26223e-13 0 5.79436e-16
713 12 0.001 -0.0301684 0.000418678 -0.0366992 1.5953e-13 -1.4735e-12 -1.18614e-13 0 5.79447e-16
1109 14 0.001 -0.0101684 0.000418678 -0.0366992 1.57883e-13 -1.47186e-12 -1.18922e-13 0 5.79447e-16
1505 16 0.001 0.0098316 0.000418678 -0.0366992 1.65399e-13 -1.47234e-12 -1.18235e-13 0 5.79447e-16
1901 18 0.001 0.0298316 0.000418678 -0.0366992 1.56402e-13 -1.47728e-12 -1.18062e-13 0 5.79447e-16
328 11 0.001 -0.0560902 -0.00324299 -0.0343079 -1.50195e-12 8.24791e-13 -6.26367e-13 0 8.84942e-16
329 11 0.001 -0.0552218 -0.00366034 -0.034572 -1.71112e-12 5.26321e-13 -6.96342e-13 0 8.51994e-16
330 11 0.001 -0.0542772 -0.00384946 -0.0348364 -1.73025e-12 1.19946e-13 -7.63037e-13 0 8.11486e-16
331 11 0.001 -0.0533153 -0.00379857 -0.0351015 -1.78473e-12 -2.31522e-13 -7.36182e-13 0 7.65136e-16
332 11 0.001 -0.0523962 -0.00351088 -0.035367 -1.63266e-12 -6.22198e-13 -6.97381e-13 0 7.16128e-16
704 12 0.001 -0.0360902 -0.00324299 -0.0343079 -1.40445e-12 8.38782e-13 -6.44875e-13 0 8.84962e-16
705 12 0.001 -0.0352218 -0.00366034 -0.034572 -1.76316e-12 5.05694e-13 -6.83453e-13 0 8.52013e-16
706 12 0.001 -0.0342772 -0.00384946 -0.0348364 -1.7208e-12 1.50999e-13 -7.63238e-13 0 8.11504e-16
707 12 0.001 -0.0333153 -0.00379857 -0.0351015 -1.70762e-12 -2.53228e-13 -7.57509e-13 0 7.65153e-16
708 12 0.001 -0.0323962 -0.00351088 -0.035367 -1.69092e-12 -6.18535e-13 -6.7585e-13 0 7.16143e-16
1100 14 0.001 -0.0160902 -0.00324299 -0.0343079 -1.45925e-12 8.31466e-13 -6.33784e-13 0 8.84962e-16
1101 14 0.001 -0.0152218 -0.00366034 -0.034572 -1.70357e-12 5.13848e-13 -6.96868e-13 0 8.52013e-16
1102 14 0.001 -0.0142772 -0.00384946 -0.0348364 -1.7537e-12 1.32883e-13 -7.56861e-13 0 8.11504e-16
1104 14 0.001 -0.0123962 -0.00351088 -0.035367 -1.65239e-12 -6.18408e-13 -6.87785e-13 0 7.16143e-16
1103 14 0.001 -0.0133153 -0.00379857 -0.0351015 -1.74034e-12 -2.41786e-13 -7.46638e-13 0 7.65153e-16
1496 16 0.001 0.00390983 -0.00324299 -0.0343079 -1.48129e-12 8.39656e-13 -6.27298e-13 0 8.84962e-16
1497 16 0.001 0.00477822 -0.00366034 -0.034572 -1.68529e-12 5.0643e-13 -7.02011e-13 0 8.52013e-16
1498 16 0.001 0.00572284 -0.00384946 -0.0348364 -1.75342e-12 1.40353e-13 -7.56555e-13 0 8.11504e-16
1499 16 0.001 0.00668471 -0.00379857 -0.0351015 -1.7533e-12 -2.42982e-13 -7.43503e-13 0 7.65153e-16
1500 16 0.001 0.0076038 -0.00351088 -0.035367 -1.62965e-12 -6.20467e-13 -6.93794e-13 0 7.16143e-16
1892 18 0.001 0.0239098 -0.00324299 -0.0343079 -1.47503e-12 8.32644e-13 -6.2948e-13 0 8.84962e-16
1893 18 0.001 0.0247782 -0.00366034 -0.034572 -1.68311e-12 5.15295e-13 -7.01959e-13 0 8.52013e-16
1894 18 0.001 0.0257228 -0.00384946 -0.0348364 -1.76133e-12 1.34963e-13 -7.54265e-13 0 8.11504e-16
1895 18 0.001 0.0266847 -0.00379857 -0.0351015 -1.72121e-12 -2.43304e-13 -7.52952e-13 0 7.65153e-16
1896 18 0.001 0.0276038 -0.00351088 -0.035367 -1.66883e-12 -6.17493e-13 -6.8295e-13 0 7.16143e-16
327 11 0.001 -0.0568281 -0.00262342 -0.0340441 -1.18185e-12 1.12789e-12 -5.26821e-13 0 9.10206e-16
703 12 0.001 -0.0368281 -0.00262342 -0.0340441 -1.28457e-12 1.11247e-12 -5.08847e-13 0 9.10227e-16