ITEM: TIMESTEP
900000
ITEM: NUMBER OF ATOMS
1970
ITEM: BOX BOUNDS ff ff ff
-6.0000000000000005e-02 6.0000000000000005e-02
-6.0000000000000001e-03 6.0000000000000001e-03
-5.5000000000000000e-02 5.5000000000000000e-02
ITEM: ATOMS id type radius x y z fx fy fz c_bendingE c_stretchingE
384 11 0.001 -0.0509535 -0.00261273 -0.04905 -7.94731e-12 1.86663e-12 -4.05125e-12 0 5.60465e-15
385 11 0.001 -0.0504132 -0.0018276 -0.0493494 -5.51146e-12 9.27463e-13 -1.63987e-12 0 4.49262e-15
760 12 0.001 -0.0309535 -0.00261273 -0.04905 -7.95547e-12 1.84465e-12 -4.0455e-12 0 5.60465e-15
761 12 0.001 -0.0304132 -0.0018276 -0.0493494 -5.49055e-12 9.37749e-13 -1.64277e-12 0 4.49262e-15
1156 14 0.001 -0.0109535 -0.00261273 -0.04905 -7.92019e-12 1.84641e-12 -4.05025e-12 0 5.60465e-15
1157 14 0.001 -0.0104132 -0.0018276 -0.0493494 -5.51024e-12 9.35397e-13 -1.64076e-12 0 4.49262e-15
1552 16 0.001 0.00904649 -0.00261273 -0.04905 -7.92112e-12 1.84661e-12 -4.05008e-12 0 5.60465e-15
1553 16 0.001 0.00958677 -0.0018276 -0.0493494 -5.51297e-12 9.39371e-13 -1.64139e-12 0 4.49262e-15
1948 18 0.001 0.0290465 -0.00261273 -0.04905 -7.92385e-12 1.85095e-12 -4.05125e-12 0 5.60465e-15
1949 18 0.001 0.0295868 -0.0018276 -0.0493494 -5.4998e-12 9.39455e-13 -1.64223e-12 0 4.49262e-15
2 2 0.001 -0.05 -4.31175e-17 -0.05 -1.08751e-05 1.75954e-05 7.40416e-07 0 2.66718e-16
386 11 0.001 -0.0500889 -0.000937756 -0.0496672 -2.81666e-12 3.2728e-13 -2.38734e-13 0 3.71748e-16
762 12 0.001 -0.0300889 -0.000937756 -0.0496672 -2.84427e-12 3.1969e-13 -2.35939e-13 0 3.71748e-16
4 4 0.001 -0.03 -4.31175e-17 -0.05 -1.08751e-05 1.75954e-05 7.40416e-07 0 2.66718e-16
6 6 0.001 -0.01 -4.31175e-17 -0.05 -1.08751e-05 1.75954e-05 7.40416e-07 0 2.66718e-16
1158 14 0.001 -0.0100889 -0.000937756 -0.0496672 -2.83583e-12 3.18445e-13 -2.35451e-13 0 3.71748e-16
8 8 0.001 0.01 -4.31175e-17 -0.05 -1.08751e-05 1.75954e-05 7.40416e-07 0 2.66718e-16
1554 16 0.001 0.0099111 -0.000937756 -0.0496672 -2.83494e-12 3.17158e-13 -2.3537e-13 0 3.71748e-16
10 10 0.001 0.03 -4.31175e-17 -0.05 -1.08751e-05 1.75954e-05 7.40416e-07 0 2.66718e-16
1950 18 0.001 0.0299111 -0.000937756 -0.0496672 -2.8468e-12 3.16796e-13 -2.34944e-13 0 3.71748e-16
378 11 0.001 -0.0562344 -0.00309944 -0.0475917 -1.10043e-11 1.09091e-11 -1.29605e-11 0 8.34122e-15
379 11 0.001 -0.0553921 -0.00358861 -0.0478134 -1.22693e-11 9.65652e-12 -1.46187e-11 0 6.84633e-15
380 11 0.001 -0.0544558 -0.00385622 -0.0480366 -1.27655e-11 8.03689e-12 -1.45698e-11 0 4.51557e-15
381 11 0.001 -0.0534842 -0.00388591 -0.0482672 -1.25155e-11 6.23499e-12 -1.29901e-11 0 1.98897e-15
382 11 0.001 -0.0525382 -0.00367664 -0.0485104 -1.1575e-11 4.56064e-12 -1.0296e-11 0 4.26107e-16
383 11 0.001 -0.0516767 -0.00324271 -0.0487705 -9.93861e-12 3.04031e-12 -7.11827e-12 0 1.24694e-15
754 12 0.001 -0.0362344 -0.00309944 -0.0475917 -1.10483e-11 1.08928e-11 -1.29564e-11 0 8.34122e-15
755 12 0.001 -0.0353921 -0.00358861 -0.0478134 -1.22236e-11 9.66669e-12 -1.46261e-11 0 6.84633e-15
756 12 0.001 -0.0344558 -0.00385622 -0.0480366 -1.28114e-11 8.0347e-12 -1.45605e-11 0 4.51557e-15
757 12 0.001 -0.0334842 -0.00388591 -0.0482672 -1.25203e-11 6.23834e-12 -1.2988e-11 0 1.98897e-15
758 12 0.001 -0.0325382 -0.00367664 -0.0485104 -1.15442e-11 4.55825e-12 -1.03032e-11 0 4.26107e-16
759 12 0.001 -0.0316767 -0.00324271 -0.0487705 -9.94557e-12 3.05917e-12 -7.12063e-12 0 1.24694e-15
1151 14 0.001 -0.0153921 -0.00358861 -0.0478134 -1.22802e-11 9.65582e-12 -1.46169e-11 0 6.84633e-15
1150 14 0.001 -0.0162344 -0.00309944 -0.0475917 -1.10047e-11 1.09118e-11 -1.29614e-11 0 8.34122e-15
1152 14 0.001 -0.0144558 -0.00385622 -0.0480366 -1.27556e-11 8.02406e-12 -1.4571e-11 0 4.51557e-15
1153 14 0.001 -0.0134842 -0.00388591 -0.0482672 -1.25307e-11 6.25415e-12 -1.2989e-11 0 1.98897e-15
1154 14 0.001 -0.0125382 -0.00367664 -0.0485104 -1.15435e-11 4.54258e-12 -1.02986e-11 0 4.26107e-16
1155 14 0.001 -0.0116767 -0.00324271 -0.0487705 -9.97508e-12 3.06646e-12 -7.11854e-12 0 1.24694e-15
1546 16 0.001 0.00376556 -0.00309944 -0.0475917 -1.10224e-11 1.08962e-11 -1.296e-11 0 8.34122e-15
1547 16 0.001 0.00460793 -0.00358861 -0.0478134 -1.22685e-11 9.66594e-12 -1.4618e-11 0 6.84633e-15
1548 16 0.001 0.00554417 -0.00385622 -0.0480366 -1.27597e-11 8.02484e-12 -1.45703e-11 0 4.51557e-15
1549 16 0.001 0.00651576 -0.00388591 -0.0482672 -1.25277e-11 6.25063e-12 -1.29895e-11 0 1.98897e-15
1550 16 0.001 0.00746184 -0.00367664 -0.0485104 -1.15516e-11 4.54725e-12 -1.02979e-11 0 4.26107e-16
1551 16 0.001 0.00832329 -0.00324271 -0.0487705 -9.96605e-12 3.06108e-12 -7.11901e-12 0 1.24694e-15
1942 18 0.001 0.0237656 -0.00309944 -0.0475917 -1.10109e-11 1.09115e-11 -1.29598e-11 0 8.34122e-15
1943 18 0.001 0.0246079 -0.00358861 -0.0478134 -1.22762e-11 9.65261e-12 -1.46173e-11 0 6.84633e-15
1944 18 0.001 0.0255442 -0.00385622 -0.0480366 -1.27699e-11 8.03458e-12 -1.45684e-11 0 4.51557e-15
1945 18 0.001 0.0265158 -0.00388591 -0.0482672 -1.25035e-11 6.24679e-12 -1.29944e-11 0 1.98897e-15
1946 18 0.001 0.0274618 -0.00367664 -0.0485104 -1.15592e-11 4.54786e-12 -1.02965e-11 0 4.26107e-16
1947 18 0.001 0.0283233 -0.00324271 -0.0487705 -9.97235e-12 3.05681e-12 -7.11664e-12 0 1.24694e-15
376 11 0.001 -0.0574374 -0.00159063 -0.0471329 -7.04654e-12 1.15677e-11 -5.57118e-12 0 8.61585e-15
377 11 0.001 -0.0569305 -0.00241926 -0.0473663 -9.21873e-12 1.15557e-11 -9.78459e-12 0 8.86621e-15
753 12 0.001 -0.0369305 -0.00241926 -0.0473663 -9.17368e-12 1.15552e-11 -9.79075e-12 0 8.86621e-15
752 12 0.001 -0.0374374 -0.00159063 -0.0471329 -7.04379e-12 1.15728e-11 -5.5686e-12 0 8.61585e-15
1149 14 0.001 -0.0169305 -0.00241926 -0.0473663 -9.22125e-12 1.15498e-11 -9.78528e-12 0 8.86621e-15
1148 14 0.001 -0.0174374 -0.00159063 -0.0471329 -6.99188e-12 1.15783e-11 -5.57043e-12 0 8.61585e-15
1544 16 0.001 0.00256255 -0.00159063 -0.0471329 -7.01261e-12 1.15695e-11 -5.57118e-12 0 8.61585e-15
1545 16 0.001 0.00306945 -0.00241926 -0.0473663 -9.20676e-12 1.15615e-11 -9.7858e-12 0 8.86621e-15
1941 18 0.001 0.0230695 -0.00241926 -0.0473663 -9.22155e-12 1.155e-11 -9.78629e-12 0 8.86621e-15
1940 18 0.001 0.0225626 -0.00159063 -0.0471329 -6.98714e-12 1.15738e-11 -5.57121e-12 0 8.61585e-15
375 11 0.001 -0.0577243 -0.000665328 -0.0468889 -4.55581e-12 1.09351e-11 -1.05758e-12 0 7.90594e-15
751 12 0.001 -0.0377243 -0.000665328 -0.0468889 -4.59856e-12 1.09342e-11 -1.05844e-12 0 7.90594e-15
1147 14 0.001 -0.0177243 -0.000665328 -0.0468889 -4.65396e-12 1.09301e-11 -1.05914e-12 0 7.90594e-15
1543 16 0.001 0.00227572 -0.000665328 -0.0468889 -4.61747e-12 1.09353e-11 -1.05757e-12 0 7.90594e-15
1939 18 0.001 0.0222757 -0.000665328 -0.0468889 -4.65888e-12 1.09342e-11 -1.05843e-12 0 7.90594e-15
373 11 0.001 -0.0575843 0.00124284 -0.0463659 2.81978e-13 8.33316e-12 5.77429e-12 0 6.16517e-15
374 11 0.001 -0.057774 0.000299084 -0.046633 -2.19668e-12 9.82466e-12 2.95989e-12 0 7.0246e-15
749 12 0.001 -0.0375843 0.00124284 -0.0463659 2.64511e-13 8.34443e-12 5.77471e-12 0 6.16517e-15
750 12 0.001 -0.037774 0.000299084 -0.046633 -2.15874e-12 9.81923e-12 2.96068e-12 0 7.0246e-15
1145 14 0.001 -0.0175843 0.00124284 -0.0463659 2.55774e-13 8.33348e-12 5.77272e-12 0 6.16517e-15
1146 14 0.001 -0.017774 0.000299084 -0.046633 -2.12032e-12 9.82169e-12 2.9625e-12 0 7.0246e-15
1541 16 0.001 0.00241573 0.00124284 -0.0463659 2.75397e-13 8.33036e-12 5.77388e-12 0 6.16517e-15
1542 16 0.001 0.002226 0.000299084 -0.046633 -2.1566e-12 9.82069e-12 2.9603e-12 0 7.0246e-15
1937 18 0.001 0.0224157 0.00124284 -0.0463659 2.62029e-13 8.33618e-12 5.77465e-12 0 6.16517e-15
1938 18 0.001 0.022226 0.000299084 -0.046633 -2.1186e-12 9.82097e-12 2.96206e-12 0 7.0246e-15
372 11 0.001 -0.0571675 0.00210763 -0.0460895 2.6849e-12 6.69331e-12 6.91973e-12 0 5.42081e-15
748 12 0.001 -0.0371675 0.00210763 -0.0460895 2.69608e-12 6.68956e-12 6.92165e-12 0 5.42081e-15
1144 14 0.001 -0.0171675 0.00210763 -0.0460895 2.65825e-12 6.69328e-12 6.91398e-12 0 5.42081e-15
1540 16 0.001 0.00283252 0.00210763 -0.0460895 2.65807e-12 6.7001e-12 6.91588e-12 0 5.42081e-15
1936 18 0.001 0.0228325 0.00210763 -0.0460895 2.65583e-12 6.69177e-12 6.91336e-12 0 5.42081e-15
371 11 0.001 -0.0565499 0.00284006 -0.0458064 4.85534e-12 4.86356e-12 6.23323e-12 0 4.8086e-15
747 12 0.001 -0.0365499 0.00284006 -0.0458064 4.84379e-12 4.86558e-12 6.23029e-12 0 4.8086e-15
1143 14 0.001 -0.0165499 0.00284006 -0.0458064 4.89072e-12 4.86951e-12 6.24064e-12 0 4.8086e-15
1539 16 0.001 0.00345012 0.00284006 -0.0458064 4.8893e-12 4.86511e-12 6.23936e-12 0 4.8086e-15
1935 18 0.001 0.0234501 0.00284006 -0.0458064 4.89293e-12 4.86589e-12 6.24047e-12 0 4.8086e-15
370 11 0.001 -0.0557701 0.00339485 -0.0455198 6.89601e-12 2.94068e-12 3.99833e-12 0 4.29983e-15
369 11 0.001 -0.0548766 0.00373758 -0.0452329 8.71471e-12 9.25225e-13 8.13462e-13 0 3.84653e-15
367 11 0.001 -0.0529757 0.00371548 -0.0446671 1.01336e-11 -3.21391e-12 -5.6486e-12 0 2.94225e-15
368 11 0.001 -0.0539253 0.0038468 -0.044948 9.76721e-12 -1.16154e-12 -2.68935e-12 0 3.403e-15
745 12 0.001 -0.0348766 0.00373758 -0.0452329 8.69438e-12 9.34433e-13 8.07463e-13 0 3.84653e-15
746 12 0.001 -0.0357701 0.00339485 -0.0455198 6.91199e-12 2.93593e-12 4.00248e-12 0 4.29983e-15
744 12 0.001 -0.0339253 0.0038468 -0.044948 9.73083e-12 -1.18372e-12 -2.69897e-12 0 3.403e-15
743 12 0.001 -0.0329757 0.00371548 -0.0446671 1.02498e-11 -3.19516e-12 -5.61673e-12 0 2.94225e-15
1142 14 0.001 -0.0157701 0.00339485 -0.0455198 6.95132e-12 2.93923e-12 4.01537e-12 0 4.29983e-15
1140 14 0.001 -0.0139253 0.0038468 -0.044948 9.76862e-12 -1.16882e-12 -2.68918e-12 0 3.403e-15
1141 14 0.001 -0.0148766 0.00373758 -0.0452329 8.61218e-12 9.33132e-13 7.84379e-13 0 3.84653e-15
1139 14 0.001 -0.0129757 0.00371548 -0.0446671 1.02082e-11 -3.22405e-12 -5.62761e-12 0 2.94225e-15
1538 16 0.001 0.00422994 0.00339485 -0.0455198 6.93595e-12 2.94388e-12 4.01244e-12 0 4.29983e-15
1537 16 0.001 0.00512337 0.00373758 -0.0452329 8.62919e-12 9.253e-13 7.87113e-13 0 3.84653e-15
1535 16 0.001 0.00702432 0.00371548 -0.0446671 1.02244e-11 -3.21882e-12 -5.62399e-12 0 2.94225e-15
1536 16 0.001 0.00607466 0.0038468 -0.044948 9.75689e-12 -1.16738e-12 -2.69114e-12 0 3.403e-15
1933 18 0.001 0.0251234 0.00373758 -0.0452329 8.64183e-12 9.263e-13 7.90273e-13 0 3.84653e-15
1934 18 0.001 0.0242299 0.00339485 -0.0455198 6.93085e-12 2.94848e-12 4.01187e-12 0 4.29983e-15
1932 18 0.001 0.0260747 0.0038468 -0.044948 9.73226e-12 -1.17346e-12 -2.69809e-12 0 3.403e-15
1931 18 0.001 0.0270243 0.00371548 -0.0446671 1.02545e-11 -3.21299e-12 -5.61617e-12 0 2.94225e-15
361 11 0.001 -0.0502046 -0.000756516 -0.0430636 1.15617e-12 -5.90615e-12 1.13812e-12 0 9.34208e-16
737 12 0.001 -0.0302046 -0.000756516 -0.0430636 1.15929e-12 -5.91097e-12 1.13778e-12 0 9.34208e-16
1133 14 0.001 -0.0102046 -0.000756516 -0.0430636 1.13511e-12 -5.90968e-12 1.13842e-12 0 9.34208e-16
1529 16 0.001 0.00979536 -0.000756516 -0.0430636 1.1132e-12 -5.90808e-12 1.13931e-12 0 9.34208e-16
1925 18 0.001 0.0297954 -0.000756516 -0.0430636 1.11914e-12 -5.90699e-12 1.13783e-12 0 9.34208e-16
362 11 0.001 -0.0501367 0.000205177 -0.0433254 3.08953e-12 -6.82754e-12 -1.45069e-12 0 1.03387e-15
363 11 0.001 -0.0503089 0.00115357 -0.0435879 5.34206e-12 -7.2995e-12 -4.20915e-12 0 1.25274e-15
738 12 0.001 -0.0301367 0.000205177 -0.0433254 3.13291e-12 -6.82297e-12 -1.44989e-12 0 1.03387e-15
739 12 0.001 -0.0303089 0.00115357 -0.0435879 5.28772e-12 -7.31053e-12 -4.21041e-12 0 1.25274e-15
1134 14 0.001 -0.0101367 0.000205177 -0.0433254 3.16406e-12 -6.82523e-12 -1.44825e-12 0 1.03387e-15
1135 14 0.001 -0.0103089 0.00115357 -0.0435879 5.24798e-12 -7.31611e-12 -4.21319e-12 0 1.25274e-15
1530 16 0.001 0.00986332 0.000205177 -0.0433254 3.18466e-12 -6.82756e-12 -1.44801e-12 0 1.03387e-15
1531 16 0.001 0.0096911 0.00115357 -0.0435879 5.23327e-12 -7.30991e-12 -4.21508e-12 0 1.25274e-15
1926 18 0.001 0.0298633 0.000205177 -0.0433254 3.16962e-12 -6.82972e-12 -1.44784e-12 0 1.03387e-15
1927 18 0.001 0.0296911 0.00115357 -0.0435879 5.27429e-12 -7.31441e-12 -4.21058e-12 0 1.25274e-15
365 11 0.001 -0.051316 0.00277758 -0.0441195 8.81947e-12 -6.38924e-12 -7.69598e-12 0 1.99821e-15
364 11 0.001 -0.0507104 0.00202932 -0.0438522 7.15261e-12 -7.16746e-12 -6.52408e-12 0 1.58179e-15
740 12 0.001 -0.0307104 0.00202932 -0.0438522 7.17592e-12 -7.16288e-12 -6.52347e-12 0 1.58179e-15
741 12 0.001 -0.031316 0.00277758 -0.0441195 8.84755e-12 -6.38379e-12 -7.68845e-12 0 1.99821e-15
1136 14 0.001 -0.0107104 0.00202932 -0.0438522 7.20533e-12 -7.14687e-12 -6.52177e-12 0 1.58179e-15
1137 14 0.001 -0.011316 0.00277758 -0.0441195 8.82098e-12 -6.39965e-12 -7.69376e-12 0 1.99821e-15
1533 16 0.001 0.00868404 0.00277758 -0.0441195 8.8262e-12 -6.39891e-12 -7.69227e-12 0 1.99821e-15
1532 16 0.001 0.00928956 0.00202932 -0.0438522 7.21136e-12 -7.14985e-12 -6.52089e-12 0 1.58179e-15
1928 18 0.001 0.0292896 0.00202932 -0.0438522 7.15945e-12 -7.14743e-12 -6.52855e-12 0 1.58179e-15
1929 18 0.001 0.028684 0.00277758 -0.0441195 8.86759e-12 -6.39038e-12 -7.68579e-12 0 1.99821e-15
366 11 0.001 -0.0520872 0.00335157 -0.0443909 9.95148e-12 -5.0356e-12 -7.39233e-12 0 2.46507e-15
742 12 0.001 -0.0320872 0.00335157 -0.0443909 9.85164e-12 -5.04305e-12 -7.41918e-12 0 2.46507e-15
1138 14 0.001 -0.0120872 0.00335157 -0.0443909 9.90398e-12 -5.02525e-12 -7.40483e-12 0 2.46507e-15
1534 16 0.001 0.00791275 0.00335157 -0.0443909 9.8892e-12 -5.02956e-12 -7.40816e-12 0 2.46507e-15
1930 18 0.001 0.0279128 0.00335157 -0.0443909 9.85811e-12 -5.03969e-12 -7.4142e-12 0 2.46507e-15
355 11 0.001 -0.0544778 -0.00383675 -0.0414835 -7.27218e-12 3.34221e-12 -4.28674e-12 0 3.14891e-15
356 11 0.001 -0.0535143 -0.00383793 -0.0417475 -6.665e-12 1.67021e-12 -1.73823e-12 0 2.45491e-15
357 11 0.001 -0.0525806 -0.00360044 -0.0420117 -5.57507e-12 -6.58298e-14 7.62272e-13 0 1.86353e-15
358 11 0.001 -0.0517348 -0.00313904 -0.0422757 -4.17087e-12 -1.72037e-12 2.64901e-12 0 1.41268e-15
731 12 0.001 -0.0344778 -0.00383675 -0.0414835 -7.28351e-12 3.33878e-12 -4.28284e-12 0 3.14891e-15
732 12 0.001 -0.0335143 -0.00383793 -0.0417475 -6.68138e-12 1.67189e-12 -1.735e-12 0 2.45491e-15
733 12 0.001 -0.0325806 -0.00360044 -0.0420117 -5.53483e-12 -7.00103e-14 7.53888e-13 0 1.86353e-15
734 12 0.001 -0.0317348 -0.00313904 -0.0422757 -4.22476e-12 -1.71506e-12 2.65935e-12 0 1.41268e-15
1127 14 0.001 -0.0144778 -0.00383675 -0.0414835 -7.24811e-12 3.376e-12 -4.2917e-12 0 3.14891e-15
1128 14 0.001 -0.0135143 -0.00383793 -0.0417475 -6.64733e-12 1.65182e-12 -1.74321e-12 0 2.45491e-15
1129 14 0.001 -0.0125806 -0.00360044 -0.0420117 -5.58096e-12 -6.79296e-14 7.64239e-13 0 1.86353e-15
1130 14 0.001 -0.0117348 -0.00313904 -0.0422757 -4.19978e-12 -1.71728e-12 2.65502e-12 0 1.41268e-15
1523 16 0.001 0.00552218 -0.00383675 -0.0414835 -7.23779e-12 3.37457e-12 -4.29471e-12 0 3.14891e-15
1524 16 0.001 0.00648566 -0.00383793 -0.0417475 -6.65707e-12 1.64588e-12 -1.74059e-12 0 2.45491e-15
1525 16 0.001 0.00741938 -0.00360044 -0.0420117 -5.57702e-12 -6.46239e-14 7.63368e-13 0 1.86353e-15
1526 16 0.001 0.00826523 -0.00313904 -0.0422757 -4.2064e-12 -1.71816e-12 2.65646e-12 0 1.41268e-15
1919 18 0.001 0.0255222 -0.00383675 -0.0414835 -7.25115e-12 3.36957e-12 -4.29068e-12 0 3.14891e-15
1920 18 0.001 0.0264857 -0.00383793 -0.0417475 -6.63988e-12 1.66205e-12 -1.74557e-12 0 2.45491e-15
1921 18 0.001 0.0274194 -0.00360044 -0.0420117 -5.57903e-12 -7.91039e-14 7.6522e-13 0 1.86353e-15
1922 18 0.001 0.0282652 -0.00313904 -0.0422757 -4.21767e-12 -1.71244e-12 2.65765e-12 0 1.41268e-15
359 11 0.001 -0.0510294 -0.00248242 -0.042539 -2.60921e-12 -3.25645e-12 3.43206e-12 0 1.11331e-15
360 11 0.001 -0.0505086 -0.00167141 -0.0428016 -7.81936e-13 -4.6739e-12 2.89819e-12 0 9.57977e-16
735 12 0.001 -0.0310294 -0.00248242 -0.042539 -2.55638e-12 -3.25973e-12 3.42388e-12 0 1.11331e-15
736 12 0.001 -0.0305086 -0.00167141 -0.0428016 -8.21687e-13 -4.66782e-12 2.90162e-12 0 9.57977e-16
1131 14 0.001 -0.0110294 -0.00248242 -0.042539 -2.5683e-12 -3.25745e-12 3.42457e-12 0 1.11331e-15
1132 14 0.001 -0.0105086 -0.00167141 -0.0428016 -8.05068e-13 -4.66786e-12 2.90062e-12 0 9.57977e-16
1527 16 0.001 0.00897056 -0.00248242 -0.042539 -2.56546e-12 -3.25378e-12 3.42293e-12 0 1.11331e-15
1528 16 0.001 0.00949144 -0.00167141 -0.0428016 -7.92411e-13 -4.67233e-12 2.90062e-12 0 9.57977e-16
1923 18 0.001 0.0289706 -0.00248242 -0.042539 -2.54164e-12 -3.25251e-12 3.41874e-12 0 1.11331e-15
1924 18 0.001 0.0294914 -0.00167141 -0.0428016 -8.10674e-13 -4.6718e-12 2.90335e-12 0 9.57977e-16
353 11 0.001 -0.0562561 -0.00313343 -0.0409568 -6.90749e-12 6.27056e-12 -7.25086e-12 0 4.5843e-15
354 11 0.001 -0.0554111 -0.00359694 -0.0412198 -7.28611e-12 4.99065e-12 -6.27626e-12 0 3.88313e-15
729 12 0.001 -0.0362561 -0.00313343 -0.0409568 -6.90607e-12 6.26399e-12 -7.25096e-12 0 4.5843e-15
730 12 0.001 -0.0354111 -0.00359694 -0.0412198 -7.26474e-12 4.99287e-12 -6.28307e-12 0 3.88313e-15
1125 14 0.001 -0.0162561 -0.00313343 -0.0409568 -6.84269e-12 6.27509e-12 -7.26237e-12 0 4.5843e-15
1126 14 0.001 -0.0154111 -0.00359694 -0.0412198 -7.33971e-12 4.96619e-12 -6.26593e-12 0 3.88313e-15
1521 16 0.001 0.00374393 -0.00313343 -0.0409568 -6.81927e-12 6.27745e-12 -7.26754e-12 0 4.5843e-15
1522 16 0.001 0.0045889 -0.00359694 -0.0412198 -7.34998e-12 4.9717e-12 -6.26273e-12 0 3.88313e-15
1917 18 0.001 0.0237439 -0.00313343 -0.0409568 -6.82813e-12 6.2715e-12 -7.26619e-12 0 4.5843e-15
1918 18 0.001 0.0245889 -0.00359694 -0.0412198 -7.36077e-12 4.97324e-12 -6.26021e-12 0 3.88313e-15
351 11 0.001 -0.0574792 -0.0016628 -0.0404321 -4.50398e-12 7.5418e-12 -5.81882e-12 0 5.6498e-15
352 11 0.001 -0.0569601 -0.00247504 -0.0406943 -5.737e-12 7.17586e-12 -7.09478e-12 0 5.18704e-15
727 12 0.001 -0.0374792 -0.0016628 -0.0404321 -4.50741e-12 7.53891e-12 -5.81901e-12 0 5.6498e-15
728 12 0.001 -0.0369601 -0.00247504 -0.0406943 -5.74395e-12 7.18329e-12 -7.09223e-12 0 5.18704e-15
1123 14 0.001 -0.0174792 -0.0016628 -0.0404321 -4.5053e-12 7.54414e-12 -5.81686e-12 0 5.6498e-15
1124 14 0.001 -0.0169601 -0.00247504 -0.0406943 -5.78022e-12 7.18294e-12 -7.08659e-12 0 5.18704e-15
1519 16 0.001 0.00252077 -0.0016628 -0.0404321 -4.46169e-12 7.54758e-12 -5.82269e-12 0 5.6498e-15
1520 16 0.001 0.00303993 -0.00247504 -0.0406943 -5.82232e-12 7.17749e-12 -7.07925e-12 0 5.18704e-15
1915 18 0.001 0.0225208 -0.0016628 -0.0404321 -4.48394e-12 7.54139e-12 -5.81912e-12 0 5.6498e-15
1916 18 0.001 0.0230399 -0.00247504 -0.0406943 -5.7821e-12 7.18034e-12 -7.08718e-12 0 5.18704e-15
350 11 0.001 -0.0577812 -0.000747312 -0.0401699 -2.84372e-12 7.43685e-12 -3.80193e-12 0 5.96181e-15
726 12 0.001 -0.0377812 -0.000747312 -0.0401699 -2.85214e-12 7.44288e-12 -3.80075e-12 0 5.96181e-15
1122 14 0.001 -0.0177812 -0.000747312 -0.0401699 -2.89448e-12 7.43251e-12 -3.80565e-12 0 5.96181e-15
1518 16 0.001 0.00221882 -0.000747312 -0.0401699 -2.92899e-12 7.43523e-12 -3.80252e-12 0 5.96181e-15
1914 18 0.001 0.0222188 -0.000747312 -0.0401699 -2.93197e-12 7.43922e-12 -3.80223e-12 0 5.96181e-15
348 11 0.001 -0.0576729 0.00116222 -0.0396443 3.43975e-13 5.94058e-12 4.63294e-13 0 6.21839e-15
349 11 0.001 -0.0578471 0.000214339 -0.0399074 -1.55765e-12 6.82572e-12 -1.56498e-12 0 6.1399e-15
724 12 0.001 -0.0376729 0.00116222 -0.0396443 2.62992e-13 5.93897e-12 4.55402e-13 0 6.21839e-15
725 12 0.001 -0.0378471 0.000214339 -0.0399074 -1.51883e-12 6.82171e-12 -1.56435e-12 0 6.1399e-15
1120 14 0.001 -0.0176729 0.00116222 -0.0396443 1.68392e-13 5.95133e-12 4.52069e-13 0 6.21839e-15
1121 14 0.001 -0.0178471 0.000214339 -0.0399074 -1.39901e-12 6.82764e-12 -1.55782e-12 0 6.1399e-15
1516 16 0.001 0.00232706 0.00116222 -0.0396443 1.27806e-13 5.95568e-12 4.50934e-13 0 6.21839e-15
1517 16 0.001 0.00215289 0.000214339 -0.0399074 -1.3593e-12 6.82e-12 -1.55916e-12 0 6.1399e-15
1912 18 0.001 0.0223271 0.00116222 -0.0396443 1.76287e-13 5.95165e-12 4.54483e-13 0 6.21839e-15
1913 18 0.001 0.0221529 0.000214339 -0.0399074 -1.37384e-12 6.82505e-12 -1.5594e-12 0 6.1399e-15
347 11 0.001 -0.0572696 0.00203726 -0.0393804 1.36998e-12 4.86898e-12 1.75679e-12 0 6.23694e-15
346 11 0.001 -0.0566622 0.00278496 -0.0391157 2.76633e-12 3.58693e-12 2.18813e-12 0 6.23066e-15
722 12 0.001 -0.0366622 0.00278496 -0.0391157 2.73234e-12 3.59199e-12 2.18502e-12 0 6.23066e-15
723 12 0.001 -0.0372696 0.00203726 -0.0393804 1.47017e-12 4.87705e-12 1.77173e-12 0 6.23694e-15
1118 14 0.001 -0.0166622 0.00278496 -0.0391157 2.73598e-12 3.60608e-12 2.18725e-12 0 6.23066e-15
1119 14 0.001 -0.0172696 0.00203726 -0.0393804 1.47728e-12 4.84513e-12 1.76501e-12 0 6.23694e-15
1515 16 0.001 0.00273041 0.00203726 -0.0393804 1.50218e-12 4.84483e-12 1.76691e-12 0 6.23694e-15
1514 16 0.001 0.00333776 0.00278496 -0.0391157 2.72356e-12 3.60398e-12 2.18514e-12 0 6.23066e-15
1910 18 0.001 0.0233378 0.00278496 -0.0391157 2.73905e-12 3.60524e-12 2.18748e-12 0 6.23066e-15
1911 18 0.001 0.0227304 0.00203726 -0.0393804 1.45621e-12 4.84527e-12 1.76151e-12 0 6.23694e-15
345 11 0.001 -0.0558888 0.00335879 -0.0388502 3.79026e-12 2.29434e-12 1.69891e-12 0 6.22451e-15
344 11 0.001 -0.0549974 0.00372304 -0.0385841 4.61212e-12 8.97961e-13 5.25457e-13 0 6.23191e-15
720 12 0.001 -0.0349974 0.00372304 -0.0385841 4.63551e-12 8.99655e-13 5.30818e-13 0 6.23191e-15
721 12 0.001 -0.0358888 0.00335879 -0.0388502 3.7513e-12 2.27969e-12 1.68713e-12 0 6.22451e-15
1117 14 0.001 -0.0158888 0.00335879 -0.0388502 3.77271e-12 2.28682e-12 1.69303e-12 0 6.22451e-15
1116 14 0.001 -0.0149974 0.00372304 -0.0385841 4.63044e-12 8.93638e-13 5.29716e-13 0 6.23191e-15
1513 16 0.001 0.00411123 0.00335879 -0.0388502 3.78156e-12 2.28671e-12 1.69491e-12 0 6.22451e-15
1512 16 0.001 0.0050026 0.00372304 -0.0385841 4.63071e-12 8.95889e-13 5.30049e-13 0 6.23191e-15
1908 18 0.001 0.0250026 0.00372304 -0.0385841 4.61179e-12 8.93076e-13 5.25256e-13 0 6.23191e-15
1909 18 0.001 0.0241112 0.00335879 -0.0388502 3.7881e-12 2.28479e-12 1.69626e-12 0 6.22451e-15
338 11 0.001 -0.05035 0.00125322 -0.0369869 2.49274e-12 -4.86981e-12 -2.75663e-12 0 6.52684e-15
714 12 0.001 -0.03035 0.00125322 -0.0369869 2.54143e-12 -4.85728e-12 -2.7551e-12 0 6.52684e-15
1110 14 0.001 -0.01035 0.00125322 -0.0369869 2.51839e-12 -4.86922e-12 -2.75421e-12 0 6.52684e-15
1506 16 0.001 0.00964999 0.00125322 -0.0369869 2.5152e-12 -4.8696e-12 -2.75488e-12 0 6.52684e-15
1902 18 0.001 0.02965 0.00125322 -0.0369869 2.49417e-12 -4.87404e-12 -2.75477e-12 0 6.52684e-15
340 11 0.001 -0.0513998 0.00284999 -0.0375184 4.5439e-12 -4.04182e-12 -3.80531e-12 0 6.39791e-15
339 11 0.001 -0.0507745 0.00211769 -0.0372525 3.58287e-12 -4.63335e-12 -3.55017e-12 0 6.45754e-15
715 12 0.001 -0.0307745 0.00211769 -0.0372525 3.53784e-12 -4.65562e-12 -3.55259e-12 0 6.45754e-15
716 12 0.001 -0.0313998 0.00284999 -0.0375184 4.56284e-12 -4.01057e-12 -3.80801e-12 0 6.39791e-15
1111 14 0.001 -0.0107745 0.00211769 -0.0372525 3.56922e-12 -4.63255e-12 -3.55203e-12 0 6.45754e-15
1112 14 0.001 -0.0113998 0.00284999 -0.0375184 4.50958e-12 -4.03033e-12 -3.81494e-12 0 6.39791e-15
1508 16 0.001 0.00860017 0.00284999 -0.0375184 4.50916e-12 -4.02965e-12 -3.81504e-12 0 6.39791e-15
1507 16 0.001 0.00922551 0.00211769 -0.0372525 3.57864e-12 -4.63532e-12 -3.55001e-12 0 6.45754e-15
1903 18 0.001 0.0292255 0.00211769 -0.0372525 3.57612e-12 -4.62617e-12 -3.55321e-12 0 6.45754e-15
1904 18 0.001 0.0286002 0.00284999 -0.0375184 4.51636e-12 -4.03663e-12 -3.81208e-12 0 6.39791e-15
343 11 0.001 -0.0540437 0.00385504 -0.0383177 5.18438e-12 -5.19979e-13 -9.74687e-13 0 6.25645e-15
342 11 0.001 -0.053087 0.0037466 -0.0380511 5.36192e-12 -1.87286e-12 -2.40069e-12 0 6.29542e-15
341 11 0.001 -0.052187 0.00340448 -0.0377846 5.07757e-12 -3.08169e-12 -3.432e-12 0 6.34382e-15
719 12 0.001 -0.0340437 0.00385504 -0.0383177 5.18912e-12 -5.17789e-13 -9.71951e-13 0 6.25645e-15
718 12 0.001 -0.033087 0.0037466 -0.0380511 5.34736e-12 -1.86613e-12 -2.40695e-12 0 6.29542e-15
717 12 0.001 -0.032187 0.00340448 -0.0377846 5.09036e-12 -3.10572e-12 -3.42388e-12 0 6.34382e-15
1115 14 0.001 -0.0140437 0.00385504 -0.0383177 5.17344e-12 -5.14402e-13 -9.77504e-13 0 6.25645e-15
1113 14 0.001 -0.012187 0.00340448 -0.0377846 5.13364e-12 -3.09135e-12 -3.41739e-12 0 6.34382e-15
1114 14 0.001 -0.013087 0.0037466 -0.0380511 5.34608e-12 -1.87551e-12 -2.40425e-12 0 6.29542e-15
1511 16 0.001 0.00595632 0.00385504 -0.0383177 5.16757e-12 -5.1506e-13 -9.79181e-13 0 6.25645e-15
1510 16 0.001 0.00691299 0.0037466 -0.0380511 5.34944e-12 -1.87632e-12 -2.40347e-12 0 6.29542e-15
1509 16 0.001 0.00781297 0.00340448 -0.0377846 5.12873e-12 -3.09084e-12 -3.4184e-12 0 6.34382e-15
1907 18 0.001 0.0259563 0.00385504 -0.0383177 5.18695e-12 -5.06872e-13 -9.7428e-13 0 6.25645e-15
1906 18 0.001 0.026913 0.0037466 -0.0380511 5.33942e-12 -1.88374e-12 -2.40553e-12 0 6.29542e-15
1905 18 0.001 0.027813 0.00340448 -0.0377846 5.13173e-12 -3.08742e-12 -3.41829e-12 0 6.34382e-15
333 11 0.001 -0.0516616 -0.00307196 -0.0356616 -2.52579e-12 -2.18209e-12 3.85381e-13 0 7.28462e-15
709 12 0.001 -0.0316616 -0.00307196 -0.0356616 -2.55343e-12 -2.18097e-12 3.90613e-13 0 7.28462e-15
1105 14 0.001 -0.0116616 -0.00307196 -0.0356616 -2.5551e-12 -2.1815e-12 3.91612e-13 0 7.28462e-15
1501 16 0.001 0.0083384 -0.00307196 -0.0356616 -2.55194e-12 -2.17699e-12 3.90452e-13 0 7.28462e-15
1897 18 0.001 0.0283384 -0.00307196 -0.0356616 -2.56766e-12 -2.17644e-12 3.92788e-13 0 7.28462e-15
334 11 0.001 -0.050974 -0.00239738 -0.0359265 -1.79569e-12 -3.00876e-12 5.02991e-13 0 7.05881e-15
335 11 0.001 -0.0504749 -0.00157354 -0.0361915 -7.9245e-13 -3.75924e-12 1.42764e-13 0 6.8728e-15
710 12 0.001 -0.030974 -0.00239738 -0.0359265 -1.74462e-12 -3.02197e-12 4.97984e-13 0 7.05881e-15
711 12 0.001 -0.0304749 -0.00157354 -0.0361915 -8.70689e-13 -3.74019e-12 1.46182e-13 0 6.8728e-15
1106 14 0.001 -0.010974 -0.00239738 -0.0359265 -1.77488e-12 -3.01416e-12 5.0079e-13 0 7.05881e-15
1107 14 0.001 -0.0104749 -0.00157354 -0.0361915 -8.17687e-13 -3.75301e-12 1.43442e-13 0 6.8728e-15
1502 16 0.001 0.00902598 -0.00239738 -0.0359265 -1.76743e-12 -3.01165e-12 4.98826e-13 0 7.05881e-15
1503 16 0.001 0.00952508 -0.00157354 -0.0361915 -8.29333e-13 -3.75498e-12 1.44986e-13 0 6.8728e-15
1898 18 0.001 0.029026 -0.00239738 -0.0359265 -1.74028e-12 -3.02066e-12 4.96826e-13 0 7.05881e-15
1899 18 0.001 0.0295251 -0.00157354 -0.0361915 -8.51832e-13 -3.74859e-12 1.46481e-13 0 6.8728e-15
336 11 0.001 -0.0501954 -0.000651769 -0.0364565 1.58884e-13 -4.34734e-12 -6.34812e-13 0 6.72597e-15
712 12 0.001 -0.0301954 -0.000651769 -0.0364565 2.48535e-13 -4.35936e-12 -6.37161e-13 0 6.72597e-15
1108 14 0.001 -0.0101954 -0.000651769 -0.0364565 1.91769e-13 -4.34909e-12 -6.36088e-13 0 6.72597e-15
1504 16 0.001 0.0098046 -0.000651769 -0.0364565 2.0807e-13 -4.35185e-12 -6.35918e-13 0 6.72597e-15
1900 18 0.001 0.0298046 -0.000651769 -0.0364565 2.05144e-13 -4.34898e-12 -6.377e-13 0 6.72597e-15
337 11 0.001 -0.0501529 0.000310479 -0.0367216 1.35717e-12 -4.74867e-12 -1.69116e-12 0 6.61332e-15
713 12 0.001 -0.0301529 0.000310479 -0.0367216 1.29321e-12 -4.74612e-12 -1.69171e-12 0 6.61332e-15
1109 14 0.001 -0.0101529 0.000310479 -0.0367216 1.33147e-12 -4.74944e-12 -1.69128e-12 0 6.61332e-15
1505 16 0.001 0.00984712 0.000310479 -0.0367216 1.31971e-12 -4.74531e-12 -1.69213e-12 0 6.61332e-15
1901 18 0.001 0.0298471 0.000310479 -0.0367216 1.34618e-12 -4.74659e-12 -1.69077e-12 0 6.61332e-15
328 11 0.001 -0.0561802 -0.00318546 -0.0343374 -3.20415e-12 2.13466e-12 -2.11482e-12 0 8.7474e-15
329 11 0.001 -0.0553237 -0.0036263 -0.0346021 -3.65668e-12 1.41637e-12 -1.91373e-12 0 8.44683e-15
330 11 0.001 -0.0543848 -0.00384133 -0.0348669 -3.65618e-12 5.80318e-13 -1.46759e-12 0 8.13883e-15
331 11 0.001 -0.0534218 -0.00381714 -0.0351318 -3.61433e-12 -3.5407e-13 -7.56218e-13 0 7.83448e-15
332 11 0.001 -0.0524948 -0.00355525 -0.0353967 -3.13258e-12 -1.26901e-12 -1.04977e-13 0 7.54599e-15
704 12 0.001 -0.0361802 -0.00318546 -0.0343374 -3.23411e-12 2.12122e-12 -2.10917e-12 0 8.7474e-15
705 12 0.001 -0.0353237 -0.0036263 -0.0346021 -3.6302e-12 1.42817e-12 -1.92018e-12 0 8.44683e-15
706 12 0.001 -0.0343848 -0.00384133 -0.0348669 -3.67129e-12 5.76714e-13 -1.46291e-12 0 8.13883e-15
707 12 0.001 -0.0334218 -0.00381714 -0.0351318 -3.58224e-12 -3.52342e-13 -7.65483e-13 0 7.83448e-15
708 12 0.001 -0.0324948 -0.00355525 -0.0353967 -3.15337e-12 -1.27402e-12 -9.84698e-14 0 7.54599e-15
1100 14 0.001 -0.0161802 -0.00318546 -0.0343374 -3.24234e-12 2.13145e-12 -2.10678e-12 0 8.7474e-15
1101 14 0.001 -0.0153237 -0.0036263 -0.0346021 -3.60622e-12 1.41769e-12 -1.92613e-12 0 8.44683e-15
1102 14 0.001 -0.0143848 -0.00384133 -0.0348669 -3.70987e-12 5.80588e-13 -1.45358e-12 0 8.13883e-15
1104 14 0.001 -0.0124948 -0.00355525 -0.0353967 -3.12644e-12 -1.27594e-12 -1.05256e-13 0 7.54599e-15
1103 14 0.001 -0.0134218 -0.00381714 -0.0351318 -3.58395e-12 -3.48307e-13 -7.64732e-13 0 7.83448e-15
1496 16 0.001 0.00381978 -0.00318546 -0.0343374 -3.23947e-12 2.12609e-12 -2.10847e-12 0 8.7474e-15
1497 16 0.001 0.00467628 -0.0036263 -0.0346021 -3.60788e-12 1.41926e-12 -1.92556e-12 0 8.44683e-15
1498 16 0.001 0.00561525 -0.00384133 -0.0348669 -3.71493e-12 5.82037e-13 -1.4523e-12 0 8.13883e-15
1499 16 0.001 0.00657821 -0.00381714 -0.0351318 -3.57415e-12 -3.48486e-13 -7.67137e-13 0 7.83448e-15
1500 16 0.001 0.00750517 -0.00355525 -0.0353967 -3.13902e-12 -1.28107e-12 -1.01762e-13 0 7.54599e-15
1892 18 0.001 0.0238198 -0.00318546 -0.0343374 -3.26522e-12 2.11752e-12 -2.10534e-12 0 8.7474e-15
1893 18 0.001 0.0246763 -0.0036263 -0.0346021 -3.5862e-12 1.42801e-12 -1.92933e-12 0 8.44683e-15
1894 18 0.001 0.0256152 -0.00384133 -0.0348669 -3.73512e-12 5.71657e-13 -1.44739e-12 0 8.13883e-15
1895 18 0.001 0.0265782 -0.00381714 -0.0351318 -3.55566e-12 -3.39456e-13 -7.72439e-13 0 7.83448e-15
1896 18 0.001 0.0275052 -0.00355525 -0.0353967 -3.14251e-12 -1.28269e-12 -1.00425e-13 0 7.54599e-15
327 11 0.001 -0.0569009 -0.00254625 -0.0340727 -2.71841e-12 2.62025e-12 -1.96268e-12 0 9.03213e-15
703 12 0.001 -0.0369009 -0.00254625 -0.0340727 -2.70317e-12 2.63483e-12 -1.96329e-12 0 9.03213e-15
1099 14 0.001 -0.0169009 -0.00254625 -0.0340727 -2.67679e-12 2.62099e-12 -1.97091e-12 0 9.03213e-15