ITEM: TIMESTEP
6800000
ITEM: NUMBER OF ATOMS
1970
ITEM: BOX BOUNDS ff ff ff
-6.0000000000000005e-02 6.0000000000000005e-02
-6.0000000000000001e-03 6.0000000000000001e-03
-5.5000000000000000e-02 5.5000000000000000e-02
ITEM: ATOMS id type radius x y z fx fy fz c_bendingE c_stretchingE
384 11 0.001 -0.050821 -0.0026362 -0.0489927 -3.32093e-13 3.83435e-14 -1.68069e-13 0 2.49909e-17
385 11 0.001 -0.0503212 -0.00183404 -0.0493164 -3.06927e-13 1.28898e-14 -9.34097e-14 0 9.31596e-15
760 12 0.001 -0.0308208 -0.00263617 -0.0489925 -3.4386e-13 5.71082e-14 -1.43371e-13 0 2.56969e-17
761 12 0.001 -0.030321 -0.001834 -0.0493162 -2.63983e-13 1.88716e-14 -7.57978e-14 0 9.24562e-15
1156 14 0.001 -0.0108208 -0.00263617 -0.0489925 -3.57706e-13 5.99525e-14 -1.44803e-13 0 2.56969e-17
1157 14 0.001 -0.010321 -0.001834 -0.0493162 -2.38742e-13 1.25521e-14 -7.42812e-14 0 9.24562e-15
1552 16 0.001 0.00917925 -0.00263617 -0.0489925 -3.62376e-13 5.49856e-14 -1.41867e-13 0 2.56969e-17
1553 16 0.001 0.00967897 -0.001834 -0.0493162 -2.35148e-13 2.25029e-14 -7.9571e-14 0 9.24562e-15
1948 18 0.001 0.0291792 -0.00263617 -0.0489925 -3.41836e-13 5.7906e-14 -1.44333e-13 0 2.56969e-17
1949 18 0.001 0.029679 -0.001834 -0.0493162 -2.52136e-13 1.9021e-14 -7.69021e-14 0 9.24562e-15
2 2 0.001 -0.05 -4.31175e-17 -0.05 -2.86041e-06 3.10594e-06 2.02409e-06 0 8.13335e-15
386 11 0.001 -0.0500418 -0.000936175 -0.0496538 -1.05371e-13 1.73783e-14 -4.83444e-14 0 1.74367e-14
762 12 0.001 -0.0300418 -0.000936144 -0.0496537 -1.20249e-13 6.75326e-15 -3.62162e-14 0 1.72865e-14
4 4 0.001 -0.03 -4.31175e-17 -0.05 -2.88128e-06 3.15876e-06 2.00986e-06 0 8.05578e-15
6 6 0.001 -0.01 -4.31175e-17 -0.05 -2.88128e-06 3.15876e-06 2.00986e-06 0 8.05578e-15
1158 14 0.001 -0.0100418 -0.000936144 -0.0496537 -1.30742e-13 8.73258e-15 -3.70877e-14 0 1.72865e-14
8 8 0.001 0.01 -4.31175e-17 -0.05 -2.88128e-06 3.15876e-06 2.00986e-06 0 8.05578e-15
1554 16 0.001 0.00995823 -0.000936144 -0.0496537 -1.3111e-13 2.11118e-15 -3.3722e-14 0 1.72865e-14
10 10 0.001 0.03 -4.31175e-17 -0.05 -2.88128e-06 3.15876e-06 2.00986e-06 0 8.05578e-15
1950 18 0.001 0.0299582 -0.000936144 -0.0496537 -1.2586e-13 8.72964e-15 -3.65079e-14 0 1.72865e-14
379 11 0.001 -0.0551894 -0.0037776 -0.0476536 -6.06304e-13 5.30087e-13 -4.86751e-13 0 1.03879e-15
380 11 0.001 -0.0542456 -0.00400888 -0.0478853 -6.13727e-13 4.09382e-13 -4.56336e-13 0 8.96098e-16
381 11 0.001 -0.0532778 -0.00400117 -0.0481331 -6.01063e-13 3.10696e-13 -4.02193e-13 0 6.40671e-16
382 11 0.001 -0.0523467 -0.00375631 -0.0483998 -5.21456e-13 2.00528e-13 -3.32376e-13 0 3.48021e-16
383 11 0.001 -0.0515104 -0.0032911 -0.0486865 -5.26275e-13 1.43349e-13 -2.44902e-13 0 1.1437e-16
755 12 0.001 -0.0351891 -0.00377783 -0.0476533 -4.94488e-13 4.82039e-13 -4.72425e-13 0 1.04414e-15
756 12 0.001 -0.0342452 -0.00400904 -0.047885 -6.15251e-13 3.95187e-13 -4.12894e-13 0 8.96877e-16
757 12 0.001 -0.0332775 -0.00400128 -0.0481328 -5.82354e-13 2.93213e-13 -3.61492e-13 0 6.37215e-16
758 12 0.001 -0.0323464 -0.00375636 -0.0483994 -4.91643e-13 2.03123e-13 -2.99512e-13 0 3.4222e-16
759 12 0.001 -0.0315101 -0.00329111 -0.0486862 -4.50322e-13 1.31348e-13 -2.21064e-13 0 1.09638e-16
1151 14 0.001 -0.0151891 -0.00377783 -0.0476533 -5.78255e-13 4.75543e-13 -4.53279e-13 0 1.04414e-15
1152 14 0.001 -0.0142452 -0.00400904 -0.047885 -5.56957e-13 4.0989e-13 -4.26712e-13 0 8.96877e-16
1153 14 0.001 -0.0132775 -0.00400128 -0.0481328 -5.63614e-13 2.95473e-13 -3.67826e-13 0 6.37215e-16
1154 14 0.001 -0.0123464 -0.00375636 -0.0483994 -5.19991e-13 1.88613e-13 -2.89752e-13 0 3.4222e-16
1155 14 0.001 -0.0115101 -0.00329111 -0.0486862 -4.52358e-13 1.34853e-13 -2.20482e-13 0 1.09638e-16
1547 16 0.001 0.00481089 -0.00377783 -0.0476533 -5.49003e-13 4.79822e-13 -4.59314e-13 0 1.04414e-15
1548 16 0.001 0.00575475 -0.00400904 -0.047885 -5.85017e-13 3.98789e-13 -4.20458e-13 0 8.96877e-16
1549 16 0.001 0.00672251 -0.00400128 -0.0481328 -5.44988e-13 3.05814e-13 -3.71933e-13 0 6.37215e-16
1550 16 0.001 0.00765361 -0.00375636 -0.0483994 -5.3389e-13 1.81283e-13 -2.86653e-13 0 3.4222e-16
1551 16 0.001 0.00848988 -0.00329111 -0.0486862 -4.44854e-13 1.39801e-13 -2.22527e-13 0 1.09638e-16
1943 18 0.001 0.0248109 -0.00377783 -0.0476533 -5.77468e-13 4.78047e-13 -4.54035e-13 0 1.04414e-15
1944 18 0.001 0.0257548 -0.00400904 -0.047885 -5.60572e-13 4.0052e-13 -4.25231e-13 0 8.96877e-16
1945 18 0.001 0.0267225 -0.00400128 -0.0481328 -5.6901e-13 2.97604e-13 -3.66434e-13 0 6.37215e-16
1946 18 0.001 0.0276536 -0.00375636 -0.0483994 -5.1876e-13 1.93463e-13 -2.90158e-13 0 3.4222e-16
1947 18 0.001 0.0284899 -0.00329111 -0.0486862 -4.56538e-13 1.32932e-13 -2.21101e-13 0 1.09638e-16
378 11 0.001 -0.0560502 -0.00332072 -0.047434 -5.31122e-13 5.98967e-13 -4.91622e-13 0 1.03546e-15
754 12 0.001 -0.03605 -0.003321 -0.0474338 -5.60562e-13 5.81451e-13 -4.5029e-13 0 1.04449e-15
1150 14 0.001 -0.01605 -0.003321 -0.0474338 -5.04316e-13 5.831e-13 -4.60915e-13 0 1.04449e-15
1546 16 0.001 0.00395001 -0.003321 -0.0474338 -5.18826e-13 5.82205e-13 -4.58608e-13 0 1.04449e-15
1942 18 0.001 0.02395 -0.003321 -0.0474338 -4.94163e-13 5.86922e-13 -4.62282e-13 0 1.04449e-15
376 11 0.001 -0.0573163 -0.00185353 -0.0470115 -3.59257e-13 7.23766e-13 -4.00665e-13 0 6.81097e-16
377 11 0.001 -0.0567743 -0.00266593 -0.0472217 -4.77818e-13 6.73264e-13 -4.60176e-13 0 8.99838e-16
753 12 0.001 -0.036774 -0.00266626 -0.0472215 -3.94286e-13 6.35123e-13 -4.43507e-13 0 9.10961e-16
752 12 0.001 -0.0373162 -0.00185389 -0.0470114 -3.9428e-13 6.93607e-13 -3.71765e-13 0 6.92564e-16
1149 14 0.001 -0.016774 -0.00266626 -0.0472215 -4.48289e-13 6.35611e-13 -4.36316e-13 0 9.10961e-16
1148 14 0.001 -0.0173162 -0.00185389 -0.0470114 -3.47188e-13 6.86621e-13 -3.78353e-13 0 6.92564e-16
1544 16 0.001 0.0026838 -0.00185389 -0.0470114 -3.47859e-13 6.87423e-13 -3.78119e-13 0 6.92564e-16
1545 16 0.001 0.00322595 -0.00266626 -0.0472215 -4.45632e-13 6.37298e-13 -4.3639e-13 0 9.10961e-16
1941 18 0.001 0.023226 -0.00266626 -0.0472215 -4.63954e-13 6.33615e-13 -4.3449e-13 0 9.10961e-16
1940 18 0.001 0.0226838 -0.00185389 -0.0470114 -3.27697e-13 6.87549e-13 -3.79666e-13 0 6.92564e-16
375 11 0.001 -0.057643 -0.000933762 -0.0467986 -2.52132e-13 7.56098e-13 -3.04683e-13 0 4.422e-16
751 12 0.001 -0.0376429 -0.000934138 -0.0467985 -2.47403e-13 7.08236e-13 -2.94944e-13 0 4.52473e-16
1147 14 0.001 -0.0176429 -0.000934138 -0.0467985 -2.45178e-13 7.13248e-13 -2.91331e-13 0 4.52473e-16
1543 16 0.001 0.00235705 -0.000934138 -0.0467985 -2.45889e-13 7.10484e-13 -2.92662e-13 0 4.52473e-16
1939 18 0.001 0.0223571 -0.000934138 -0.0467985 -2.62036e-13 7.08338e-13 -2.92024e-13 0 4.52473e-16
373 11 0.001 -0.0575856 0.000997043 -0.0463483 -6.75788e-14 7.02929e-13 -9.02788e-14 0 9.73745e-17
374 11 0.001 -0.0577344 3.64299e-05 -0.0465787 -1.31934e-13 7.09982e-13 -2.07201e-13 0 2.37442e-16
749 12 0.001 -0.0375856 0.000996688 -0.0463482 8.93627e-15 6.34421e-13 -7.6875e-14 0 1.02629e-16
750 12 0.001 -0.0377344 3.60553e-05 -0.0465786 -1.39058e-13 6.92567e-13 -1.94101e-13 0 2.45455e-16
1145 14 0.001 -0.0175856 0.000996688 -0.0463482 -3.69858e-18 6.36903e-13 -7.70841e-14 0 1.02629e-16
1146 14 0.001 -0.0177344 3.60553e-05 -0.0465786 -1.63298e-13 6.86204e-13 -1.97449e-13 0 2.45455e-16
1541 16 0.001 0.00241436 0.000996688 -0.0463482 -4.45248e-14 6.30758e-13 -8.60454e-14 0 1.02629e-16
1542 16 0.001 0.00226556 3.60553e-05 -0.0465786 -1.44576e-13 6.90076e-13 -1.93225e-13 0 2.45455e-16
1937 18 0.001 0.0224144 0.000996688 -0.0463482 -3.65418e-14 6.37583e-13 -8.2021e-14 0 1.02629e-16
1938 18 0.001 0.0222656 3.60553e-05 -0.0465786 -1.43772e-13 6.89068e-13 -1.9532e-13 0 2.45455e-16
372 11 0.001 -0.0572064 0.0018888 -0.0461054 8.30081e-14 6.00241e-13 1.75135e-14 0 2.51038e-17
748 12 0.001 -0.0372065 0.00188848 -0.0461053 -1.02926e-14 5.82081e-13 6.75301e-15 0 2.76571e-17
1144 14 0.001 -0.0172065 0.00188848 -0.0461053 2.99278e-14 5.83121e-13 1.29206e-14 0 2.76571e-17
1540 16 0.001 0.00279347 0.00188848 -0.0461053 7.25038e-14 5.87957e-13 2.21233e-14 0 2.76571e-17
1936 18 0.001 0.0227935 0.00188848 -0.0461053 7.78567e-14 5.87479e-13 2.20152e-14 0 2.76571e-17
371 11 0.001 -0.0566211 0.00265681 -0.0458491 2.04098e-13 5.12267e-13 1.18289e-13 0 3.02462e-18
747 12 0.001 -0.0366214 0.00265655 -0.0458491 1.80385e-13 4.68154e-13 1.20197e-13 0 3.38048e-18
1143 14 0.001 -0.0166214 0.00265655 -0.0458491 1.39917e-13 4.73059e-13 1.13016e-13 0 3.38048e-18
1539 16 0.001 0.00337864 0.00265655 -0.0458491 1.32863e-13 4.69934e-13 1.11177e-13 0 3.38048e-18
1935 18 0.001 0.0233786 0.00265655 -0.0458491 1.13955e-13 4.65813e-13 1.06832e-13 0 3.38048e-18
370 11 0.001 -0.0558668 0.00325397 -0.0455799 2.10054e-13 3.87058e-13 1.7178e-13 0 5.34295e-18
369 11 0.001 -0.0549908 0.00364377 -0.0452994 2.77324e-13 2.54291e-13 2.07544e-13 0 1.04963e-17
368 11 0.001 -0.0540479 0.00380251 -0.04501 2.88589e-13 9.15063e-14 2.00791e-13 0 8.74685e-18
367 11 0.001 -0.0530971 0.00372074 -0.0447146 3.30436e-13 -8.42483e-15 1.7578e-13 0 2.94001e-18
745 12 0.001 -0.0349912 0.00364365 -0.0452994 2.28487e-13 2.45453e-13 2.04782e-13 0 8.90917e-18
746 12 0.001 -0.0358671 0.00325378 -0.0455799 2.14008e-13 3.61665e-13 1.75706e-13 0 4.28897e-18
744 12 0.001 -0.0340483 0.00380248 -0.0450099 2.93127e-13 1.06405e-13 2.09975e-13 0 7.40481e-18
743 12 0.001 -0.0330974 0.00372079 -0.0447146 2.4074e-13 -4.43731e-14 1.66054e-13 0 2.37969e-18
1142 14 0.001 -0.0158671 0.00325378 -0.0455799 2.20536e-13 3.52497e-13 1.74936e-13 0 4.28898e-18
1140 14 0.001 -0.0140483 0.00380248 -0.0450099 2.51847e-13 9.5948e-14 1.96638e-13 0 7.40481e-18
1141 14 0.001 -0.0149912 0.00364365 -0.0452994 2.60774e-13 2.5474e-13 2.15957e-13 0 8.90917e-18
1139 14 0.001 -0.0130974 0.00372079 -0.0447146 2.89987e-13 -3.26744e-14 1.81111e-13 0 2.37969e-18
1538 16 0.001 0.00413288 0.00325378 -0.0455799 2.02515e-13 3.63137e-13 1.71615e-13 0 4.28898e-18
1537 16 0.001 0.00500884 0.00364365 -0.0452994 2.60724e-13 2.36805e-13 2.13738e-13 0 8.90917e-18
1536 16 0.001 0.00595172 0.00380248 -0.0450099 2.7603e-13 1.05798e-13 2.05352e-13 0 7.40481e-18
1535 16 0.001 0.00690257 0.00372079 -0.0447146 2.74899e-13 -3.24925e-14 1.75763e-13 0 2.37969e-18
1933 18 0.001 0.0250088 0.00364365 -0.0452994 2.68726e-13 2.47497e-13 2.16822e-13 0 8.90917e-18
1934 18 0.001 0.0241329 0.00325378 -0.0455799 2.12141e-13 3.58359e-13 1.73404e-13 0 4.28898e-18
1932 18 0.001 0.0259517 0.00380248 -0.0450099 2.58898e-13 1.04798e-13 1.99808e-13 0 7.40481e-18
1931 18 0.001 0.0269026 0.00372079 -0.0447146 2.82885e-13 -4.29483e-14 1.78471e-13 0 2.37969e-18
361 11 0.001 -0.0501545 -0.000588318 -0.0429794 -1.09526e-13 -5.35533e-13 -3.20361e-13 0 1.97349e-16
737 12 0.001 -0.0301545 -0.000587987 -0.0429793 -1.10144e-13 -5.03026e-13 -3.08207e-13 0 1.99626e-16
1133 14 0.001 -0.0101545 -0.000587987 -0.0429793 -1.60033e-13 -5.00086e-13 -3.09872e-13 0 1.99626e-16
1529 16 0.001 0.00984552 -0.000587987 -0.0429793 -1.58938e-13 -5.01751e-13 -3.09349e-13 0 1.99626e-16
1925 18 0.001 0.0298455 -0.000587987 -0.0429793 -1.00379e-13 -5.05313e-13 -3.08467e-13 0 1.99626e-16
362 11 0.001 -0.0501258 0.000371763 -0.043254 -9.71708e-14 -5.30526e-13 -2.59339e-13 0 1.59512e-16
363 11 0.001 -0.0503364 0.00130671 -0.0435361 5.93568e-14 -4.57866e-13 -1.83615e-13 0 1.07896e-16
738 12 0.001 -0.0301259 0.000372095 -0.043254 -1.10056e-13 -4.98886e-13 -2.51866e-13 0 1.61919e-16
739 12 0.001 -0.0303365 0.00130702 -0.043536 9.69722e-14 -4.21949e-13 -1.68822e-13 0 1.10272e-16
1134 14 0.001 -0.0101259 0.000372095 -0.043254 -4.36563e-14 -4.95779e-13 -2.48772e-13 0 1.61919e-16
1135 14 0.001 -0.0103365 0.00130702 -0.043536 3.80025e-14 -4.34293e-13 -1.7312e-13 0 1.10272e-16
1530 16 0.001 0.00987414 0.000372095 -0.043254 -5.04162e-14 -4.96571e-13 -2.49226e-13 0 1.61919e-16
1531 16 0.001 0.00966349 0.00130702 -0.043536 4.89559e-14 -4.32051e-13 -1.72384e-13 0 1.10272e-16
1926 18 0.001 0.0298741 0.000372095 -0.043254 -1.04553e-13 -4.98082e-13 -2.51484e-13 0 1.61919e-16
1927 18 0.001 0.0296635 0.00130702 -0.043536 8.24943e-14 -4.224e-13 -1.70797e-13 0 1.10272e-16
365 11 0.001 -0.0514063 0.00287178 -0.0441192 2.4717e-13 -2.76789e-13 2.17228e-14 0 2.03803e-17
364 11 0.001 -0.0507725 0.00215783 -0.0438249 1.59409e-13 -4.20121e-13 -8.01084e-14 0 5.71735e-17
740 12 0.001 -0.0307727 0.0021581 -0.0438249 8.48266e-14 -3.98636e-13 -8.22745e-14 0 5.92262e-17
741 12 0.001 -0.0314066 0.00287199 -0.0441191 2.25786e-13 -2.75255e-13 3.18913e-14 0 2.17661e-17
1136 14 0.001 -0.0107727 0.0021581 -0.0438249 1.42485e-13 -3.95392e-13 -7.22365e-14 0 5.92262e-17
1137 14 0.001 -0.0114066 0.00287199 -0.0441191 1.95967e-13 -2.71617e-13 2.56246e-14 0 2.17661e-17
1533 16 0.001 0.00859344 0.00287199 -0.0441191 1.98071e-13 -2.71868e-13 2.61461e-14 0 2.17661e-17
1532 16 0.001 0.00922732 0.0021581 -0.0438249 1.3647e-13 -3.96104e-13 -7.2815e-14 0 5.92262e-17
1928 18 0.001 0.0292273 0.0021581 -0.0438249 1.10262e-13 -4.0451e-13 -7.60812e-14 0 5.92262e-17
1929 18 0.001 0.0285934 0.00287199 -0.0441191 2.1128e-13 -2.66744e-13 2.73658e-14 0 2.17661e-17
366 11 0.001 -0.0521978 0.00340385 -0.0444167 2.51811e-13 -2.09793e-13 9.89793e-14 0 3.43397e-18
742 12 0.001 -0.0321981 0.00340399 -0.0444166 2.65357e-13 -1.55596e-13 1.05419e-13 0 3.88096e-18
1138 14 0.001 -0.0121981 0.00340399 -0.0444166 2.35024e-13 -1.5962e-13 9.54676e-14 0 3.88096e-18
1534 16 0.001 0.00780194 0.00340399 -0.0444166 2.34369e-13 -1.59974e-13 9.55312e-14 0 3.88096e-18
1930 18 0.001 0.0278019 0.00340399 -0.0444166 2.37122e-13 -1.56968e-13 9.73695e-14 0 3.88096e-18
355 11 0.001 -0.0543112 -0.00384281 -0.0414392 -4.28178e-13 -6.56986e-14 -1.36871e-13 0 4.70321e-17
356 11 0.001 -0.0533451 -0.0038036 -0.0416906 -5.02866e-13 -1.67243e-13 -1.92934e-13 0 8.01288e-17
357 11 0.001 -0.0524187 -0.00352696 -0.0419418 -4.06645e-13 -3.00932e-13 -2.78669e-13 0 1.22035e-16
358 11 0.001 -0.0515896 -0.00303022 -0.0421946 -4.63141e-13 -3.61824e-13 -3.1423e-13 0 1.65144e-16
731 12 0.001 -0.0343109 -0.00384286 -0.0414391 -4.32616e-13 -5.28606e-14 -1.16736e-13 0 4.8924e-17
732 12 0.001 -0.0333448 -0.00380356 -0.0416905 -4.11007e-13 -1.73141e-13 -1.98402e-13 0 8.21546e-17
733 12 0.001 -0.0324184 -0.00352683 -0.0419417 -4.59295e-13 -2.67484e-13 -2.5167e-13 0 1.24094e-16
734 12 0.001 -0.0315893 -0.00303002 -0.0421945 -3.58244e-13 -3.69791e-13 -3.13821e-13 0 1.67183e-16
1127 14 0.001 -0.0143109 -0.00384286 -0.0414391 -4.22173e-13 -5.39418e-14 -1.20797e-13 0 4.8924e-17
1128 14 0.001 -0.0133448 -0.00380356 -0.0416905 -4.20473e-13 -1.73625e-13 -1.95703e-13 0 8.21546e-17
1129 14 0.001 -0.0124184 -0.00352683 -0.0419417 -4.35367e-13 -2.72203e-13 -2.56343e-13 0 1.24094e-16
1130 14 0.001 -0.0115893 -0.00303002 -0.0421945 -3.834e-13 -3.62347e-13 -3.10178e-13 0 1.67183e-16
1523 16 0.001 0.00568911 -0.00384286 -0.0414391 -4.24164e-13 -5.63805e-14 -1.20396e-13 0 4.8924e-17
1524 16 0.001 0.00665519 -0.00380356 -0.0416905 -4.22948e-13 -1.74906e-13 -1.94573e-13 0 8.21546e-17
1525 16 0.001 0.00758164 -0.00352683 -0.0419417 -4.30967e-13 -2.65649e-13 -2.58316e-13 0 1.24094e-16
1526 16 0.001 0.00841065 -0.00303002 -0.0421945 -3.80746e-13 -3.6325e-13 -3.10522e-13 0 1.67183e-16
1919 18 0.001 0.0256891 -0.00384286 -0.0414391 -4.19206e-13 -5.76129e-14 -1.21318e-13 0 4.8924e-17
1920 18 0.001 0.0266552 -0.00380356 -0.0416905 -4.25759e-13 -1.71969e-13 -1.94258e-13 0 8.21546e-17
1921 18 0.001 0.0275816 -0.00352683 -0.0419417 -4.39081e-13 -2.6969e-13 -2.56013e-13 0 1.24094e-16
1922 18 0.001 0.0284107 -0.00303002 -0.0421945 -3.74513e-13 -3.64013e-13 -3.11825e-13 0 1.67183e-16
359 11 0.001 -0.0509097 -0.00234458 -0.0424508 -2.96706e-13 -4.74733e-13 -3.56061e-13 0 1.98399e-16
360 11 0.001 -0.0504212 -0.00151317 -0.0427119 -2.8296e-13 -5.05416e-13 -3.48175e-13 0 2.11073e-16
735 12 0.001 -0.0309095 -0.00234432 -0.0424507 -3.39939e-13 -4.2856e-13 -3.38886e-13 0 2.00442e-16
736 12 0.001 -0.0304211 -0.00151286 -0.0427118 -2.45625e-13 -4.84379e-13 -3.40087e-13 0 2.13199e-16
1131 14 0.001 -0.0109095 -0.00234432 -0.0424507 -3.25098e-13 -4.30232e-13 -3.40865e-13 0 2.00442e-16
1132 14 0.001 -0.0104211 -0.00151286 -0.0427118 -2.36694e-13 -4.88305e-13 -3.38418e-13 0 2.13199e-16
1527 16 0.001 0.00909052 -0.00234432 -0.0424507 -3.31322e-13 -4.35824e-13 -3.38872e-13 0 2.00442e-16
1528 16 0.001 0.00957889 -0.00151286 -0.0427118 -2.3346e-13 -4.84429e-13 -3.3968e-13 0 2.13199e-16
1923 18 0.001 0.0290905 -0.00234432 -0.0424507 -3.17108e-13 -4.31464e-13 -3.40862e-13 0 2.00442e-16
1924 18 0.001 0.0295789 -0.00151286 -0.0427118 -2.72711e-13 -4.83779e-13 -3.37871e-13 0 2.13199e-16
353 11 0.001 -0.0561227 -0.00321443 -0.0409313 -3.29222e-13 1.46001e-13 -8.65239e-15 0 1.38246e-17
354 11 0.001 -0.0552567 -0.00364221 -0.0411865 -4.18503e-13 5.50652e-14 -6.205e-14 0 2.53882e-17
729 12 0.001 -0.0361224 -0.00321465 -0.0409312 -2.91025e-13 1.34422e-13 -7.6977e-15 0 1.53004e-17
730 12 0.001 -0.0352564 -0.00364235 -0.0411864 -3.93025e-13 3.11412e-14 -5.01384e-14 0 2.70661e-17
1125 14 0.001 -0.0161224 -0.00321465 -0.0409312 -3.2146e-13 1.35211e-13 -1.93174e-15 0 1.53004e-17
1126 14 0.001 -0.0152564 -0.00364235 -0.0411864 -3.866e-13 3.33928e-14 -5.02986e-14 0 2.70661e-17
1521 16 0.001 0.00387762 -0.00321465 -0.0409312 -3.10447e-13 1.29529e-13 -4.77378e-15 0 1.53004e-17
1522 16 0.001 0.00474363 -0.00364235 -0.0411864 -3.90663e-13 3.5744e-14 -4.91934e-14 0 2.70661e-17
1917 18 0.001 0.0238776 -0.00321465 -0.0409312 -3.03514e-13 1.27123e-13 -7.22561e-15 0 1.53004e-17
1918 18 0.001 0.0247436 -0.00364235 -0.0411864 -4.00219e-13 3.62538e-14 -4.71853e-14 0 2.70661e-17
351 11 0.001 -0.0574092 -0.00179697 -0.0404119 -1.36333e-13 3.07523e-13 3.26742e-14 0 1.00806e-17
352 11 0.001 -0.0568553 -0.00258626 -0.0406731 -2.85488e-13 2.43503e-13 2.31474e-14 0 9.39914e-18
727 12 0.001 -0.037409 -0.00179731 -0.0404117 -7.99475e-14 2.6702e-13 2.51736e-14 0 1.17217e-17
728 12 0.001 -0.0368551 -0.00258655 -0.040673 -2.6977e-13 2.13614e-13 4.02072e-14 0 1.08199e-17
1123 14 0.001 -0.017409 -0.00179731 -0.0404117 -1.68376e-13 2.50564e-13 2.94957e-14 0 1.17217e-17
1124 14 0.001 -0.0168551 -0.00258655 -0.040673 -2.21545e-13 2.22635e-13 3.55847e-14 0 1.08199e-17
1519 16 0.001 0.00259098 -0.00179731 -0.0404117 -1.28546e-13 2.45955e-13 2.58318e-14 0 1.17217e-17
1520 16 0.001 0.00314491 -0.00258655 -0.040673 -2.40519e-13 2.26797e-13 3.82278e-14 0 1.08199e-17
1915 18 0.001 0.022591 -0.00179731 -0.0404117 -1.746e-13 2.50081e-13 3.03125e-14 0 1.17217e-17
1916 18 0.001 0.0231449 -0.00258655 -0.040673 -2.22758e-13 2.28774e-13 3.71002e-14 0 1.08199e-17
350 11 0.001 -0.0577499 -0.000895794 -0.0401477 -3.27374e-14 3.50122e-13 1.5216e-14 0 1.6038e-17
726 12 0.001 -0.0377499 -0.000896174 -0.0401476 -9.1874e-14 3.2156e-13 3.49322e-14 0 1.82476e-17
1122 14 0.001 -0.0177499 -0.000896174 -0.0401476 1.94848e-14 3.3013e-13 3.18476e-14 0 1.82476e-17
1518 16 0.001 0.00225014 -0.000896174 -0.0401476 -2.73713e-14 3.35886e-13 3.48249e-14 0 1.82476e-17
1914 18 0.001 0.0222501 -0.000896174 -0.0401476 2.91543e-14 3.30358e-13 3.10914e-14 0 1.82476e-17
348 11 0.001 -0.0577225 0.00101405 -0.039613 1.9143e-13 3.50967e-13 -7.1822e-14 0 5.19836e-17
349 11 0.001 -0.0578565 6.10855e-05 -0.0398812 8.8255e-14 3.7689e-13 -2.30745e-14 0 2.92733e-17
724 12 0.001 -0.0377226 0.00101367 -0.0396129 1.25857e-13 3.25517e-13 -6.91147e-14 0 5.62388e-17
725 12 0.001 -0.0378566 6.06951e-05 -0.0398811 1.49572e-13 3.53775e-13 -9.51038e-15 0 3.23871e-17
1120 14 0.001 -0.0177226 0.00101367 -0.0396129 1.81211e-13 3.29306e-13 -6.35037e-14 0 5.62388e-17
1121 14 0.001 -0.0178566 6.06951e-05 -0.0398811 5.56172e-14 3.51236e-13 -1.15678e-14 0 3.23871e-17
1516 16 0.001 0.00227741 0.00101367 -0.0396129 1.82877e-13 3.10796e-13 -7.01432e-14 0 5.62388e-17
1517 16 0.001 0.00214344 6.06951e-05 -0.0398811 7.64769e-14 3.59331e-13 -8.54602e-15 0 3.23871e-17
1912 18 0.001 0.0222774 0.00101367 -0.0396129 1.96028e-13 3.15549e-13 -6.84558e-14 0 5.62388e-17
1913 18 0.001 0.0221434 6.06951e-05 -0.0398811 3.77997e-14 3.5806e-13 -8.62329e-15 0 3.23871e-17
347 11 0.001 -0.0573562 0.00190371 -0.039344 3.15391e-13 3.61458e-13 -1.22603e-13 0 8.46048e-17
346 11 0.001 -0.0567805 0.00267459 -0.039075 4.0137e-13 2.73998e-13 -1.87182e-13 0 1.24561e-16
722 12 0.001 -0.0367808 0.00267431 -0.0390748 4.20434e-13 2.72877e-13 -1.63653e-13 0 1.31171e-16
723 12 0.001 -0.0373564 0.00190337 -0.0393439 3.03813e-13 3.07517e-13 -1.1731e-13 0 9.00824e-17
1118 14 0.001 -0.0167808 0.00267431 -0.0390748 4.05521e-13 2.81721e-13 -1.63641e-13 0 1.31171e-16
1119 14 0.001 -0.0173564 0.00190337 -0.0393439 2.9612e-13 3.04219e-13 -1.1934e-13 0 9.00824e-17
1515 16 0.001 0.00264361 0.00190337 -0.0393439 2.98006e-13 3.17224e-13 -1.13581e-13 0 9.00824e-17
1514 16 0.001 0.00321917 0.00267431 -0.0390748 3.88179e-13 2.71758e-13 -1.70225e-13 0 1.31171e-16
1910 18 0.001 0.0232192 0.00267431 -0.0390748 4.05338e-13 2.77546e-13 -1.64991e-13 0 1.31171e-16
1911 18 0.001 0.0226436 0.00190337 -0.0393439 2.89947e-13 3.10372e-13 -1.16809e-13 0 9.00824e-17
345 11 0.001 -0.0560315 0.00327858 -0.0388064 4.8545e-13 2.12609e-13 -2.23065e-13 0 1.66347e-16
344 11 0.001 -0.0551557 0.00367791 -0.0385389 5.16685e-13 1.29827e-13 -2.57325e-13 0 2.02922e-16
721 12 0.001 -0.0360318 0.00327837 -0.0388063 4.36647e-13 1.96058e-13 -2.17776e-13 0 1.73857e-16
720 12 0.001 -0.0351561 0.00367779 -0.0385388 4.77621e-13 1.13027e-13 -2.50847e-13 0 2.11016e-16
1117 14 0.001 -0.0160318 0.00327837 -0.0388063 4.34144e-13 1.87424e-13 -2.21362e-13 0 1.73857e-16
1116 14 0.001 -0.0151561 0.00367779 -0.0385388 4.93874e-13 1.14102e-13 -2.45982e-13 0 2.11016e-16
1513 16 0.001 0.00396818 0.00327837 -0.0388063 4.49924e-13 1.96094e-13 -2.16159e-13 0 1.73857e-16
1512 16 0.001 0.00484391 0.00367779 -0.0385388 4.98365e-13 1.07913e-13 -2.45424e-13 0 2.11016e-16
1909 18 0.001 0.0239682 0.00327837 -0.0388063 4.39381e-13 1.9488e-13 -2.18843e-13 0 1.73857e-16
1908 18 0.001 0.0248439 0.00367779 -0.0385388 4.91482e-13 1.11123e-13 -2.46929e-13 0 2.11016e-16
338 11 0.001 -0.0504124 0.00139091 -0.0369546 3.18849e-13 -3.51507e-13 -6.50261e-14 0 1.51918e-16
714 12 0.001 -0.0304125 0.0013913 -0.0369545 2.36416e-13 -3.16559e-13 -6.85169e-14 0 1.5852e-16
1110 14 0.001 -0.0104125 0.0013913 -0.0369545 2.14174e-13 -3.19546e-13 -6.94043e-14 0 1.5852e-16
1506 16 0.001 0.0095875 0.0013913 -0.0369545 2.21381e-13 -3.18606e-13 -6.79028e-14 0 1.58519e-16
1902 18 0.001 0.0295875 0.0013913 -0.0369545 2.19534e-13 -3.17967e-13 -6.89723e-14 0 1.5852e-16
340 11 0.001 -0.0515249 0.00294659 -0.0374802 4.83117e-13 -2.31575e-13 -1.6799e-13 0 2.10367e-16
339 11 0.001 -0.0508707 0.00223876 -0.0372174 2.5686e-13 -3.02606e-13 -1.38498e-13 0 1.82381e-16
716 12 0.001 -0.0315252 0.00294685 -0.0374801 3.66659e-13 -2.15038e-13 -1.79419e-13 0 2.17978e-16
715 12 0.001 -0.030871 0.00223909 -0.0372173 3.35395e-13 -2.76434e-13 -1.13636e-13 0 1.89495e-16
1111 14 0.001 -0.010871 0.00223909 -0.0372173 3.38166e-13 -2.75922e-13 -1.14516e-13 0 1.89495e-16
1112 14 0.001 -0.0115252 0.00294685 -0.0374801 4.0152e-13 -2.10023e-13 -1.71272e-13 0 2.17978e-16
1508 16 0.001 0.0084748 0.00294685 -0.0374801 4.05576e-13 -2.04771e-13 -1.71686e-13 0 2.17978e-16
1507 16 0.001 0.00912903 0.00223909 -0.0372173 3.27573e-13 -2.78097e-13 -1.16536e-13 0 1.89495e-16
1904 18 0.001 0.0284748 0.00294685 -0.0374801 4.00747e-13 -2.11232e-13 -1.71088e-13 0 2.17978e-16
1903 18 0.001 0.029129 0.00223909 -0.0372173 3.34165e-13 -2.7822e-13 -1.14807e-13 0 1.89495e-16
343 11 0.001 -0.0542079 0.00384758 -0.0382726 5.66571e-13 2.86007e-14 -2.59318e-13 0 2.27819e-16
342 11 0.001 -0.0532473 0.00377689 -0.0380075 5.20756e-13 -7.57121e-14 -2.53446e-13 0 2.37081e-16
341 11 0.001 -0.0523339 0.0034702 -0.0377435 4.8574e-13 -1.61263e-13 -2.24391e-13 0 2.3029e-16
719 12 0.001 -0.0342083 0.00384756 -0.0382724 5.47325e-13 2.9622e-14 -2.44229e-13 0 2.36164e-16
718 12 0.001 -0.0332477 0.00377697 -0.0380074 4.38938e-13 -7.22986e-14 -2.603e-13 0 2.45382e-16
717 12 0.001 -0.0323343 0.00347037 -0.0377434 5.30135e-13 -1.50838e-13 -1.9439e-13 0 2.3832e-16
1115 14 0.001 -0.0142083 0.00384756 -0.0382724 5.23201e-13 2.11722e-14 -2.51142e-13 0 2.36164e-16
1113 14 0.001 -0.0123343 0.00347037 -0.0377434 4.69545e-13 -1.62829e-13 -2.09513e-13 0 2.3832e-16
1114 14 0.001 -0.0132477 0.00377697 -0.0380074 4.8811e-13 -5.65037e-14 -2.46796e-13 0 2.45382e-16
1511 16 0.001 0.00579168 0.00384756 -0.0382724 5.07807e-13 3.08466e-14 -2.54585e-13 0 2.36164e-16
1510 16 0.001 0.00675229 0.00377697 -0.0380074 4.95212e-13 -6.68931e-14 -2.4568e-13 0 2.45382e-16
1509 16 0.001 0.0076657 0.00347037 -0.0377434 4.71071e-13 -1.6134e-13 -2.0778e-13 0 2.3832e-16
1907 18 0.001 0.0257917 0.00384756 -0.0382724 5.16717e-13 2.43555e-14 -2.52899e-13 0 2.36164e-16
1906 18 0.001 0.0267523 0.00377697 -0.0380074 5.0234e-13 -6.48302e-14 -2.42526e-13 0 2.45382e-16
1905 18 0.001 0.0276657 0.00347037 -0.0377434 4.6181e-13 -1.54325e-13 -2.12651e-13 0 2.3832e-16
333 11 0.001 -0.0515552 -0.00298213 -0.0356323 -2.9752e-13 -1.6408e-13 -6.90727e-15 0 7.18645e-17
334 11 0.001 -0.050894 -0.00228198 -0.0358981 -9.57619e-14 -2.77997e-13 3.02883e-15 0 7.49236e-17
709 12 0.001 -0.0315548 -0.00298187 -0.0356322 -2.46652e-13 -1.77841e-13 -1.16219e-15 0 7.73381e-17
710 12 0.001 -0.0308938 -0.00228165 -0.035898 -1.76733e-13 -2.47037e-13 2.47536e-14 0 8.0297e-17
1105 14 0.001 -0.0115548 -0.00298187 -0.0356322 -2.46838e-13 -1.6991e-13 -2.66209e-15 0 7.73381e-17
1106 14 0.001 -0.0108938 -0.00228165 -0.035898 -1.8434e-13 -2.53104e-13 2.87911e-14 0 8.0297e-17
1501 16 0.001 0.00844516 -0.00298187 -0.0356322 -2.47742e-13 -1.75318e-13 -1.73976e-15 0 7.73381e-17
1502 16 0.001 0.00910625 -0.00228165 -0.035898 -1.82912e-13 -2.49086e-13 2.8368e-14 0 8.0297e-17
1897 18 0.001 0.0284452 -0.00298187 -0.0356322 -2.46607e-13 -1.73081e-13 -2.55271e-15 0 7.73381e-17
1898 18 0.001 0.0291062 -0.00228165 -0.035898 -1.7279e-13 -2.48599e-13 2.62261e-14 0 8.0297e-17
335 11 0.001 -0.050427 -0.0014396 -0.0361633 -1.93685e-13 -2.79444e-13 1.03363e-14 0 8.44062e-17
336 11 0.001 -0.0501834 -0.00050754 -0.0364277 1.37503e-13 -3.65228e-13 3.37529e-15 0 1.00716e-16
711 12 0.001 -0.0304269 -0.00143921 -0.0361632 -5.65933e-14 -2.44839e-13 5.19169e-15 0 8.98747e-17
712 12 0.001 -0.0301833 -0.000507129 -0.0364276 3.85508e-14 -3.37443e-13 1.42231e-14 0 1.06449e-16
1107 14 0.001 -0.0104269 -0.00143921 -0.0361632 -5.10634e-14 -2.39309e-13 1.86206e-15 0 8.98747e-17
1108 14 0.001 -0.0101833 -0.000507129 -0.0364276 2.33618e-14 -3.3842e-13 1.58297e-14 0 1.06449e-16
1503 16 0.001 0.00957314 -0.00143921 -0.0361632 -4.92473e-14 -2.40912e-13 8.07149e-16 0 8.98747e-17
1504 16 0.001 0.00981667 -0.000507129 -0.0364276 2.17945e-14 -3.37814e-13 1.67274e-14 0 1.06449e-16
1899 18 0.001 0.0295731 -0.00143921 -0.0361632 -5.82487e-14 -2.40712e-13 2.95753e-15 0 8.98747e-17
1900 18 0.001 0.0298167 -0.000507129 -0.0364276 2.54253e-14 -3.38742e-13 1.58357e-14 0 1.06449e-16
337 11 0.001 -0.0501784 0.000456017 -0.0366915 5.8937e-14 -3.34524e-13 -3.70081e-14 0 1.23679e-16
713 12 0.001 -0.0301784 0.000456427 -0.0366914 1.12055e-13 -3.15542e-13 -2.39211e-14 0 1.29804e-16
1109 14 0.001 -0.0101784 0.000456427 -0.0366914 1.35321e-13 -3.1635e-13 -2.36559e-14 0 1.29804e-16
1505 16 0.001 0.00982157 0.000456427 -0.0366914 1.34676e-13 -3.17542e-13 -2.42146e-14 0 1.29804e-16
1901 18 0.001 0.0298216 0.000456427 -0.0366914 1.33736e-13 -3.16619e-13 -2.37495e-14 0 1.29804e-16
328 11 0.001 -0.0560637 -0.00326253 -0.0343008 -4.11659e-13 2.7322e-13 -1.80185e-13 0 1.30196e-16
329 11 0.001 -0.0551921 -0.00367194 -0.0345666 -3.45467e-13 1.78536e-13 -1.76791e-13 0 1.11916e-16
330 11 0.001 -0.0542462 -0.00385238 -0.0348329 -3.68477e-13 1.12626e-13 -1.34592e-13 0 9.56086e-17
331 11 0.001 -0.0532853 -0.00379261 -0.0350994 -3.41926e-13 -1.48171e-14 -9.12637e-14 0 8.28381e-17
332 11 0.001 -0.0523692 -0.00349636 -0.035366 -3.67096e-13 -1.20001e-13 -3.4215e-14 0 7.46874e-17
704 12 0.001 -0.0360633 -0.0032628 -0.0343006 -3.26411e-13 2.59169e-13 -1.85114e-13 0 1.38478e-16
705 12 0.001 -0.0351916 -0.00367211 -0.0345665 -3.3198e-13 1.80004e-13 -1.63491e-13 0 1.19489e-16
706 12 0.001 -0.0342458 -0.00385244 -0.0348328 -3.92591e-13 9.5779e-14 -1.07931e-13 0 1.02484e-16
707 12 0.001 -0.0332849 -0.00379255 -0.0350993 -2.96879e-13 -4.30323e-15 -9.11649e-14 0 8.90947e-17
708 12 0.001 -0.0323688 -0.0034962 -0.0353658 -3.07069e-13 -7.77331e-14 -3.53307e-14 0 8.04621e-17
1100 14 0.001 -0.0160633 -0.0032628 -0.0343006 -3.15919e-13 2.53767e-13 -1.88481e-13 0 1.38478e-16
1101 14 0.001 -0.0151916 -0.00367211 -0.0345665 -3.25501e-13 1.81826e-13 -1.64757e-13 0 1.19489e-16
1102 14 0.001 -0.0142458 -0.00385244 -0.0348328 -3.65284e-13 9.03494e-14 -1.16189e-13 0 1.02484e-16
1104 14 0.001 -0.0123688 -0.0034962 -0.0353658 -2.7039e-13 -8.29269e-14 -4.43643e-14 0 8.04621e-17
1103 14 0.001 -0.0132849 -0.00379255 -0.0350993 -3.57218e-13 8.17027e-17 -7.46526e-14 0 8.90947e-17
1496 16 0.001 0.00393672 -0.0032628 -0.0343006 -3.16882e-13 2.55048e-13 -1.87881e-13 0 1.38478e-16
1497 16 0.001 0.00480838 -0.00367211 -0.0345665 -3.34395e-13 1.8186e-13 -1.62511e-13 0 1.19489e-16
1498 16 0.001 0.00575421 -0.00385244 -0.0348328 -3.56503e-13 8.92795e-14 -1.18451e-13 0 1.02484e-16
1499 16 0.001 0.00671514 -0.00379255 -0.0350993 -3.57543e-13 4.79731e-16 -7.42168e-14 0 8.90947e-17
1500 16 0.001 0.00763119 -0.0034962 -0.0353658 -2.74682e-13 -7.98165e-14 -4.39801e-14 0 8.04621e-17
1892 18 0.001 0.0239367 -0.0032628 -0.0343006 -3.02493e-13 2.60358e-13 -1.90795e-13 0 1.38478e-16
1893 18 0.001 0.0248084 -0.00367211 -0.0345665 -3.51137e-13 1.76759e-13 -1.58821e-13 0 1.19489e-16
1894 18 0.001 0.0257542 -0.00385244 -0.0348328 -3.76511e-13 9.44183e-14 -1.1279e-13 0 1.02484e-16
1895 18 0.001 0.0267151 -0.00379255 -0.0350993 -3.22945e-13 6.89134e-16 -8.35624e-14 0 8.90947e-17
1896 18 0.001 0.0276312 -0.0034962 -0.0353658 -2.93053e-13 -8.38672e-14 -3.86562e-14 0 8.04621e-17
327 11 0.001 -0.0568067 -0.00264967 -0.0340354 -2.17042e-13 3.55165e-13 -2.2482e-13 0 1.48511e-16
703 12 0.001 -0.0368064 -0.00265004 -0.0340353 -2.7773e-13 3.23104e-13 -1.9996e-13 0 1.57456e-16
1099 14 0.001 -0.0168064 -0.00265004 -0.0340353 -2.82032e-13 3.41402e-13 -1.93254e-13 0 1.57456e-16