ITEM: TIMESTEP
2900000
ITEM: NUMBER OF ATOMS
1970
ITEM: BOX BOUNDS ff ff ff
-6.0000000000000005e-02 6.0000000000000005e-02
-6.0000000000000001e-03 6.0000000000000001e-03
-5.5000000000000000e-02 5.5000000000000000e-02
ITEM: ATOMS id type radius x y z fx fy fz c_bendingE c_stretchingE
384 11 0.001 -0.0508727 -0.00262286 -0.0490014 -2.39323e-12 7.92363e-14 -1.94185e-12 0 7.40435e-16
385 11 0.001 -0.050357 -0.00182846 -0.0493192 -1.45728e-12 -1.59343e-13 -1.31711e-12 0 5.01324e-15
760 12 0.001 -0.0308727 -0.00262286 -0.0490014 -2.20844e-12 7.1695e-14 -1.9635e-12 0 7.40435e-16
761 12 0.001 -0.030357 -0.00182846 -0.0493192 -1.57809e-12 -1.51122e-13 -1.30845e-12 0 5.01324e-15
1156 14 0.001 -0.0108727 -0.00262286 -0.0490014 -2.23621e-12 7.56018e-14 -1.96129e-12 0 7.40435e-16
1157 14 0.001 -0.010357 -0.00182846 -0.0493192 -1.55824e-12 -1.55393e-13 -1.309e-12 0 5.01324e-15
1552 16 0.001 0.00912734 -0.00262286 -0.0490014 -2.23275e-12 7.32006e-14 -1.9609e-12 0 7.40435e-16
1553 16 0.001 0.00964302 -0.00182846 -0.0493192 -1.56227e-12 -1.49985e-13 -1.31048e-12 0 5.01324e-15
1948 18 0.001 0.0291273 -0.00262286 -0.0490014 -2.22783e-12 8.1562e-14 -1.96411e-12 0 7.40435e-16
1949 18 0.001 0.029643 -0.00182846 -0.0493192 -1.56276e-12 -1.57713e-13 -1.30778e-12 0 5.01324e-15
2 2 0.001 -0.05 -4.31175e-17 -0.05 -5.89339e-06 8.21736e-06 1.64953e-06 0 2.75518e-15
386 11 0.001 -0.0500601 -0.000935117 -0.0496536 -8.37266e-13 -1.56643e-13 -6.46309e-13 0 7.12018e-15
762 12 0.001 -0.0300601 -0.000935117 -0.0496536 -7.97832e-13 -1.5967e-13 -6.47752e-13 0 7.12018e-15
4 4 0.001 -0.03 -4.31175e-17 -0.05 -5.89339e-06 8.21736e-06 1.64953e-06 0 2.75518e-15
6 6 0.001 -0.01 -4.31175e-17 -0.05 -5.89339e-06 8.21736e-06 1.64953e-06 0 2.75518e-15
1158 14 0.001 -0.0100601 -0.000935117 -0.0496536 -8.02297e-13 -1.56931e-13 -6.48284e-13 0 7.12018e-15
8 8 0.001 0.01 -4.31175e-17 -0.05 -5.89339e-06 8.21736e-06 1.64953e-06 0 2.75518e-15
1554 16 0.001 0.00993989 -0.000935117 -0.0496536 -7.99895e-13 -1.60283e-13 -6.47315e-13 0 7.12018e-15
10 10 0.001 0.03 -4.31175e-17 -0.05 -5.89339e-06 8.21736e-06 1.64953e-06 0 2.75518e-15
1950 18 0.001 0.0299399 -0.000935117 -0.0496536 -8.03413e-13 -1.58498e-13 -6.47737e-13 0 7.12018e-15
378 11 0.001 -0.0561255 -0.00322634 -0.0474879 -2.86993e-12 3.22714e-12 -3.07159e-12 0 2.97119e-15
379 11 0.001 -0.0552711 -0.00369651 -0.0477046 -3.22252e-12 2.66529e-12 -3.35298e-12 0 2.67903e-15
380 11 0.001 -0.0543295 -0.00394253 -0.0479301 -3.38535e-12 2.11486e-12 -3.43449e-12 0 2.00242e-15
381 11 0.001 -0.0533595 -0.00394994 -0.0481692 -3.3705e-12 1.46804e-12 -3.30882e-12 0 1.11785e-15
382 11 0.001 -0.052422 -0.00371951 -0.0484261 -3.27173e-12 9.38363e-13 -2.98368e-12 0 3.56413e-16
383 11 0.001 -0.0515755 -0.00326718 -0.0487033 -2.63075e-12 4.15532e-13 -2.5608e-12 0 1.20231e-16
754 12 0.001 -0.0361255 -0.00322634 -0.0474879 -2.93413e-12 3.21232e-12 -3.06152e-12 0 2.97119e-15
755 12 0.001 -0.0352711 -0.00369651 -0.0477046 -3.18278e-12 2.68118e-12 -3.35963e-12 0 2.67903e-15
756 12 0.001 -0.0343295 -0.00394253 -0.0479301 -3.40902e-12 2.10547e-12 -3.42897e-12 0 2.00242e-15
757 12 0.001 -0.0333595 -0.00394994 -0.0481692 -3.36729e-12 1.48062e-12 -3.3125e-12 0 1.11785e-15
758 12 0.001 -0.032422 -0.00371951 -0.0484261 -3.17335e-12 9.28464e-13 -3.00033e-12 0 3.56413e-16
759 12 0.001 -0.0315755 -0.00326718 -0.0487033 -2.81573e-12 4.18353e-13 -2.53077e-12 0 1.20231e-16
1151 14 0.001 -0.0152711 -0.00369651 -0.0477046 -3.24699e-12 2.68629e-12 -3.34701e-12 0 2.67903e-15
1150 14 0.001 -0.0161255 -0.00322634 -0.0474879 -2.80466e-12 3.20498e-12 -3.08557e-12 0 2.97119e-15
1152 14 0.001 -0.0143295 -0.00394253 -0.0479301 -3.38274e-12 2.08718e-12 -3.43455e-12 0 2.00242e-15
1153 14 0.001 -0.0133595 -0.00394994 -0.0481692 -3.39658e-12 1.50207e-12 -3.3064e-12 0 1.11785e-15
1154 14 0.001 -0.012422 -0.00371951 -0.0484261 -3.17814e-12 9.1377e-13 -2.99841e-12 0 3.56413e-16
1155 14 0.001 -0.0115755 -0.00326718 -0.0487033 -2.78751e-12 4.23455e-13 -2.53603e-12 0 1.20231e-16
1546 16 0.001 0.00387451 -0.00322634 -0.0474879 -2.86268e-12 3.20201e-12 -3.07438e-12 0 2.97119e-15
1547 16 0.001 0.00472891 -0.00369651 -0.0477046 -3.20732e-12 2.68696e-12 -3.35566e-12 0 2.67903e-15
1548 16 0.001 0.00567054 -0.00394253 -0.0479301 -3.40099e-12 2.09811e-12 -3.43017e-12 0 2.00242e-15
1549 16 0.001 0.00664047 -0.00394994 -0.0481692 -3.38651e-12 1.48615e-12 -3.30821e-12 0 1.11785e-15
1550 16 0.001 0.00757798 -0.00371951 -0.0484261 -3.18047e-12 9.23493e-13 -2.99848e-12 0 3.56413e-16
1551 16 0.001 0.00842449 -0.00326718 -0.0487033 -2.78999e-12 4.20608e-13 -2.53534e-12 0 1.20231e-16
1942 18 0.001 0.0238745 -0.00322634 -0.0474879 -2.8124e-12 3.20951e-12 -3.08289e-12 0 2.97119e-15
1943 18 0.001 0.0247289 -0.00369651 -0.0477046 -3.2291e-12 2.67656e-12 -3.35178e-12 0 2.67903e-15
1944 18 0.001 0.0256705 -0.00394253 -0.0479301 -3.42033e-12 2.10295e-12 -3.42616e-12 0 2.00242e-15
1945 18 0.001 0.0266405 -0.00394994 -0.0481692 -3.37223e-12 1.48676e-12 -3.3105e-12 0 1.11785e-15
1946 18 0.001 0.027578 -0.00371951 -0.0484261 -3.17863e-12 9.25301e-13 -3.00007e-12 0 3.56413e-16
1947 18 0.001 0.0284245 -0.00326718 -0.0487033 -2.79336e-12 4.1704e-13 -2.53364e-12 0 1.20231e-16
376 11 0.001 -0.0573683 -0.00174125 -0.0470588 -1.68838e-12 3.84055e-12 -2.05064e-12 0 2.47446e-15
377 11 0.001 -0.0568393 -0.00256084 -0.0472744 -2.30474e-12 3.57329e-12 -2.63868e-12 0 2.86747e-15
753 12 0.001 -0.0368393 -0.00256084 -0.0472744 -2.27105e-12 3.5895e-12 -2.64194e-12 0 2.86747e-15
752 12 0.001 -0.0373683 -0.00174125 -0.0470588 -1.69275e-12 3.82654e-12 -2.05272e-12 0 2.47446e-15
1149 14 0.001 -0.0168393 -0.00256084 -0.0472744 -2.36986e-12 3.59373e-12 -2.62613e-12 0 2.86747e-15
1148 14 0.001 -0.0173683 -0.00174125 -0.0470588 -1.66611e-12 3.82932e-12 -2.05577e-12 0 2.47446e-15
1544 16 0.001 0.00263172 -0.00174125 -0.0470588 -1.68742e-12 3.82779e-12 -2.05369e-12 0 2.47446e-15
1545 16 0.001 0.00316069 -0.00256084 -0.0472744 -2.3251e-12 3.59549e-12 -2.63306e-12 0 2.86747e-15
1941 18 0.001 0.0231607 -0.00256084 -0.0472744 -2.3599e-12 3.58917e-12 -2.62896e-12 0 2.86747e-15
1940 18 0.001 0.0226317 -0.00174125 -0.0470588 -1.66788e-12 3.83221e-12 -2.05434e-12 0 2.47446e-15
375 11 0.001 -0.0576799 -0.000818479 -0.0468366 -1.0138e-12 3.91354e-12 -1.40138e-12 0 1.94563e-15
751 12 0.001 -0.0376799 -0.000818479 -0.0468366 -9.94123e-13 3.91544e-12 -1.39986e-12 0 1.94563e-15
1147 14 0.001 -0.0176799 -0.000818479 -0.0468366 -9.97723e-13 3.91724e-12 -1.39995e-12 0 1.94563e-15
1543 16 0.001 0.00232009 -0.000818479 -0.0468366 -9.87563e-13 3.91558e-12 -1.4006e-12 0 1.94563e-15
1939 18 0.001 0.0223201 -0.000818479 -0.0468366 -1.00302e-12 3.91387e-12 -1.40084e-12 0 1.94563e-15
373 11 0.001 -0.0575912 0.00110473 -0.0463596 4.95602e-13 3.4779e-12 -1.638e-13 0 9.81809e-16
374 11 0.001 -0.0577555 0.000150176 -0.0466042 -2.20297e-13 3.75242e-12 -7.59523e-13 0 1.41886e-15
749 12 0.001 -0.0375912 0.00110473 -0.0463596 5.25583e-13 3.481e-12 -1.58768e-13 0 9.81809e-16
750 12 0.001 -0.0377555 0.000150176 -0.0466042 -2.57702e-13 3.75047e-12 -7.63221e-13 0 1.41886e-15
1145 14 0.001 -0.0175912 0.00110473 -0.0463596 4.80522e-13 3.47548e-12 -1.67215e-13 0 9.81809e-16
1146 14 0.001 -0.0177555 0.000150176 -0.0466042 -2.35725e-13 3.75037e-12 -7.60045e-13 0 1.41886e-15
1541 16 0.001 0.00240884 0.00110473 -0.0463596 4.92268e-13 3.4781e-12 -1.6541e-13 0 9.81809e-16
1542 16 0.001 0.00224449 0.000150176 -0.0466042 -2.47295e-13 3.7527e-12 -7.60472e-13 0 1.41886e-15
1937 18 0.001 0.0224088 0.00110473 -0.0463596 4.86202e-13 3.47368e-12 -1.66729e-13 0 9.81809e-16
1938 18 0.001 0.0222445 0.000150176 -0.0466042 -2.35169e-13 3.75285e-12 -7.5979e-13 0 1.41886e-15
372 11 0.001 -0.0571979 0.00198623 -0.0461021 1.14293e-12 3.01997e-12 2.91351e-13 0 6.67274e-16
748 12 0.001 -0.0371979 0.00198623 -0.0461021 1.12096e-12 3.01917e-12 2.86488e-13 0 6.67274e-16
1144 14 0.001 -0.0171979 0.00198623 -0.0461021 1.15204e-12 3.01875e-12 2.91969e-13 0 6.67274e-16
1540 16 0.001 0.00280214 0.00198623 -0.0461021 1.15704e-12 3.01348e-12 2.92427e-13 0 6.67274e-16
1936 18 0.001 0.0228021 0.00198623 -0.0461021 1.15586e-12 3.02714e-12 2.94495e-13 0 6.67274e-16
371 11 0.001 -0.0566007 0.00274039 -0.0458326 1.72661e-12 2.39813e-12 5.71963e-13 0 4.68728e-16
747 12 0.001 -0.0366007 0.00274039 -0.0458326 1.7494e-12 2.4005e-12 5.77658e-13 0 4.68728e-16
1143 14 0.001 -0.0166007 0.00274039 -0.0458326 1.76626e-12 2.40515e-12 5.83272e-13 0 4.68728e-16
1539 16 0.001 0.00339931 0.00274039 -0.0458326 1.74365e-12 2.41029e-12 5.78788e-13 0 4.68728e-16
1935 18 0.001 0.0233993 0.00274039 -0.0458326 1.74497e-12 2.39405e-12 5.76858e-13 0 4.68728e-16
370 11 0.001 -0.0558373 0.00332085 -0.0455528 2.27357e-12 1.69136e-12 6.88399e-13 0 3.62002e-16
369 11 0.001 -0.0549553 0.00369197 -0.0452656 2.51796e-12 9.16566e-13 5.67816e-13 0 3.22053e-16
368 11 0.001 -0.05401 0.00383098 -0.0449741 2.75969e-12 8.38267e-14 3.26528e-13 0 3.30007e-16
367 11 0.001 -0.0530602 0.00372937 -0.0446815 2.75625e-12 -7.4051e-13 -4.66593e-14 0 3.71824e-16
745 12 0.001 -0.0349553 0.00369197 -0.0452656 2.53256e-12 9.23653e-13 5.71686e-13 0 3.22053e-16
746 12 0.001 -0.0358373 0.00332085 -0.0455528 2.25836e-12 1.6884e-12 6.84671e-13 0 3.62002e-16
744 12 0.001 -0.03401 0.00383098 -0.0449741 2.72997e-12 7.89478e-14 3.18544e-13 0 3.30007e-16
743 12 0.001 -0.0330602 0.00372937 -0.0446815 2.76893e-12 -7.424e-13 -4.45314e-14 0 3.71824e-16
1142 14 0.001 -0.0158373 0.00332085 -0.0455528 2.22486e-12 1.69713e-12 6.76412e-13 0 3.62002e-16
1140 14 0.001 -0.01401 0.00383098 -0.0449741 2.7179e-12 7.96255e-14 3.14042e-13 0 3.30007e-16
1141 14 0.001 -0.0149553 0.00369197 -0.0452656 2.55682e-12 9.0915e-13 5.78192e-13 0 3.22053e-16
1139 14 0.001 -0.0130602 0.00372937 -0.0446815 2.8036e-12 -7.34936e-13 -3.26028e-14 0 3.71824e-16
1538 16 0.001 0.00416275 0.00332085 -0.0455528 2.23998e-12 1.68733e-12 6.78886e-13 0 3.62002e-16
1537 16 0.001 0.00504468 0.00369197 -0.0452656 2.54856e-12 9.16169e-13 5.76796e-13 0 3.22053e-16
1536 16 0.001 0.00599005 0.00383098 -0.0449741 2.73221e-12 8.25751e-14 3.17759e-13 0 3.30007e-16
1535 16 0.001 0.0069398 0.00372937 -0.0446815 2.79223e-12 -7.41087e-13 -3.54872e-14 0 3.71824e-16
1933 18 0.001 0.0250447 0.00369197 -0.0452656 2.59429e-12 9.03457e-13 5.909e-13 0 3.22053e-16
1934 18 0.001 0.0241627 0.00332085 -0.0455528 2.22213e-12 1.70019e-12 6.74011e-13 0 3.62002e-16
1932 18 0.001 0.02599 0.00383098 -0.0449741 2.69285e-12 9.3113e-14 3.05556e-13 0 3.30007e-16
1931 18 0.001 0.0269398 0.00372937 -0.0446815 2.80203e-12 -7.4819e-13 -3.17692e-14 0 3.71824e-16
361 11 0.001 -0.0501838 -0.000650688 -0.043013 -2.2678e-13 -3.13472e-12 -1.45758e-12 0 5.15849e-16
737 12 0.001 -0.0301838 -0.000650688 -0.043013 -2.52775e-13 -3.13916e-12 -1.45475e-12 0 5.15849e-16
1133 14 0.001 -0.0101838 -0.000650688 -0.043013 -2.62799e-13 -3.13873e-12 -1.45607e-12 0 5.15849e-16
1529 16 0.001 0.00981619 -0.000650688 -0.043013 -2.77309e-13 -3.13416e-12 -1.45635e-12 0 5.15849e-16
1925 18 0.001 0.0298162 -0.000650688 -0.043013 -2.69614e-13 -3.13989e-12 -1.45492e-12 0 5.15849e-16
362 11 0.001 -0.0501401 0.000311768 -0.0432771 4.07562e-13 -3.17177e-12 -1.53148e-12 0 5.58112e-16
363 11 0.001 -0.050336 0.0012536 -0.0435465 1.12871e-12 -3.0673e-12 -1.44651e-12 0 5.7081e-16
738 12 0.001 -0.0301401 0.000311768 -0.0432771 4.13796e-13 -3.17864e-12 -1.53216e-12 0 5.58112e-16
739 12 0.001 -0.030336 0.0012536 -0.0435465 1.13536e-12 -3.06247e-12 -1.4442e-12 0 5.7081e-16
1134 14 0.001 -0.0101401 0.000311768 -0.0432771 4.35992e-13 -3.1805e-12 -1.52838e-12 0 5.58112e-16
1135 14 0.001 -0.010336 0.0012536 -0.0435465 1.10994e-12 -3.05567e-12 -1.45125e-12 0 5.7081e-16
1530 16 0.001 0.00985994 0.000311768 -0.0432771 4.42785e-13 -3.18525e-12 -1.52725e-12 0 5.58112e-16
1531 16 0.001 0.00966398 0.0012536 -0.0435465 1.10115e-12 -3.05226e-12 -1.45335e-12 0 5.7081e-16
1926 18 0.001 0.0298599 0.000311768 -0.0432771 4.37785e-13 -3.18022e-12 -1.52859e-12 0 5.58112e-16
1927 18 0.001 0.029664 0.0012536 -0.0435465 1.11507e-12 -3.05559e-12 -1.4505e-12 0 5.7081e-16
365 11 0.001 -0.0513819 0.00284419 -0.0441035 2.22342e-12 -2.16128e-12 -8.92537e-13 0 4.98665e-16
364 11 0.001 -0.050759 0.00211573 -0.0438219 1.72287e-12 -2.69984e-12 -1.23166e-12 0 5.49139e-16
740 12 0.001 -0.030759 0.00211573 -0.0438219 1.71167e-12 -2.69676e-12 -1.23532e-12 0 5.49139e-16
741 12 0.001 -0.0313819 0.00284419 -0.0441035 2.21631e-12 -2.16085e-12 -8.95959e-13 0 4.98665e-16
1136 14 0.001 -0.010759 0.00211573 -0.0438219 1.73574e-12 -2.70486e-12 -1.22878e-12 0 5.49139e-16
1137 14 0.001 -0.0113819 0.00284419 -0.0441035 2.22885e-12 -2.1602e-12 -8.90546e-13 0 4.98665e-16
1533 16 0.001 0.00861806 0.00284419 -0.0441035 2.22243e-12 -2.16237e-12 -8.91823e-13 0 4.98665e-16
1532 16 0.001 0.00924103 0.00211573 -0.0438219 1.74771e-12 -2.70547e-12 -1.22611e-12 0 5.49139e-16
1928 18 0.001 0.029241 0.00211573 -0.0438219 1.72075e-12 -2.69746e-12 -1.23293e-12 0 5.49139e-16
1929 18 0.001 0.0286181 0.00284419 -0.0441035 2.23686e-12 -2.17473e-12 -8.868e-13 0 4.98665e-16
366 11 0.001 -0.0521655 0.00339348 -0.0443905 2.57522e-12 -1.50167e-12 -4.78543e-13 0 4.33596e-16
742 12 0.001 -0.0321655 0.00339348 -0.0443905 2.59501e-12 -1.5047e-12 -4.70172e-13 0 4.33596e-16
1138 14 0.001 -0.0121655 0.00339348 -0.0443905 2.53633e-12 -1.50183e-12 -4.90149e-13 0 4.33596e-16
1534 16 0.001 0.00783453 0.00339348 -0.0443905 2.54104e-12 -1.49842e-12 -4.88983e-13 0 4.33596e-16
1930 18 0.001 0.0278345 0.00339348 -0.0443905 2.54474e-12 -1.48863e-12 -4.89277e-13 0 4.33596e-16
355 11 0.001 -0.054384 -0.00384502 -0.0414645 -2.3525e-12 3.34946e-13 -1.86708e-13 0 3.52973e-16
356 11 0.001 -0.0534196 -0.00382062 -0.0417241 -2.35313e-12 -4.17397e-13 -2.68409e-13 0 3.20842e-16
357 11 0.001 -0.0524908 -0.00355823 -0.041982 -2.21455e-12 -1.15807e-12 -4.47524e-13 0 3.20499e-16
358 11 0.001 -0.0516555 -0.00307411 -0.0422387 -1.92151e-12 -1.8412e-12 -7.11563e-13 0 3.47564e-16
731 12 0.001 -0.034384 -0.00384502 -0.0414645 -2.35069e-12 3.35743e-13 -1.85603e-13 0 3.52973e-16
732 12 0.001 -0.0334196 -0.00382062 -0.0417241 -2.35615e-12 -4.17016e-13 -2.68902e-13 0 3.20842e-16
733 12 0.001 -0.0324908 -0.00355823 -0.041982 -2.2398e-12 -1.16443e-12 -4.40774e-13 0 3.20499e-16
734 12 0.001 -0.0316555 -0.00307411 -0.0422387 -1.88531e-12 -1.83625e-12 -7.18621e-13 0 3.47564e-16
1127 14 0.001 -0.014384 -0.00384502 -0.0414645 -2.36662e-12 3.41023e-13 -1.83099e-13 0 3.52973e-16
1128 14 0.001 -0.0134196 -0.00382062 -0.0417241 -2.34509e-12 -4.19513e-13 -2.70727e-13 0 3.20842e-16
1129 14 0.001 -0.0124908 -0.00355823 -0.041982 -2.23574e-12 -1.16005e-12 -4.41817e-13 0 3.20499e-16
1130 14 0.001 -0.0116555 -0.00307411 -0.0422387 -1.9098e-12 -1.83969e-12 -7.13595e-13 0 3.47564e-16
1523 16 0.001 0.005616 -0.00384502 -0.0414645 -2.36334e-12 3.39682e-13 -1.83343e-13 0 3.52973e-16
1524 16 0.001 0.00658037 -0.00382062 -0.0417241 -2.35358e-12 -4.24058e-13 -2.69451e-13 0 3.20842e-16
1525 16 0.001 0.00750917 -0.00355823 -0.041982 -2.22109e-12 -1.16081e-12 -4.44369e-13 0 3.20499e-16
1526 16 0.001 0.00834448 -0.00307411 -0.0422387 -1.92243e-12 -1.83603e-12 -7.1153e-13 0 3.47564e-16
1919 18 0.001 0.025616 -0.00384502 -0.0414645 -2.33073e-12 3.35431e-13 -1.93549e-13 0 3.52973e-16
1920 18 0.001 0.0265804 -0.00382062 -0.0417241 -2.3589e-12 -4.24538e-13 -2.67275e-13 0 3.20842e-16
1921 18 0.001 0.0275092 -0.00355823 -0.041982 -2.23656e-12 -1.15263e-12 -4.41222e-13 0 3.20499e-16
1922 18 0.001 0.0283445 -0.00307411 -0.0422387 -1.89786e-12 -1.84168e-12 -7.17753e-13 0 3.47564e-16
359 11 0.001 -0.0509658 -0.00239841 -0.0424952 -1.47041e-12 -2.42468e-12 -1.00016e-12 0 3.96096e-16
360 11 0.001 -0.0504649 -0.00157337 -0.0427528 -9.38142e-13 -2.86116e-12 -1.26777e-12 0 4.56693e-16
735 12 0.001 -0.0309658 -0.00239841 -0.0424952 -1.49603e-12 -2.41794e-12 -9.99444e-13 0 3.96096e-16
736 12 0.001 -0.0304649 -0.00157337 -0.0427528 -9.09163e-13 -2.85978e-12 -1.26955e-12 0 4.56693e-16
1131 14 0.001 -0.0109658 -0.00239841 -0.0424952 -1.47614e-12 -2.4175e-12 -1.00258e-12 0 3.96096e-16
1132 14 0.001 -0.0104649 -0.00157337 -0.0427528 -9.16498e-13 -2.86398e-12 -1.26713e-12 0 4.56693e-16
1527 16 0.001 0.00903416 -0.00239841 -0.0424952 -1.47699e-12 -2.41662e-12 -1.00333e-12 0 3.96096e-16
1528 16 0.001 0.00953514 -0.00157337 -0.0427528 -9.00383e-13 -2.86668e-12 -1.26783e-12 0 4.56693e-16
1923 18 0.001 0.0290342 -0.00239841 -0.0424952 -1.48953e-12 -2.4217e-12 -9.97384e-13 0 3.96096e-16
1924 18 0.001 0.0295351 -0.00157337 -0.0427528 -9.06077e-13 -2.85955e-12 -1.2707e-12 0 4.56693e-16
353 11 0.001 -0.0561808 -0.00318918 -0.0409395 -1.91425e-12 1.73937e-12 -3.80185e-13 0 5.26869e-16
354 11 0.001 -0.0553239 -0.00363003 -0.0412029 -2.17873e-12 1.08458e-12 -2.33716e-13 0 4.20795e-16
729 12 0.001 -0.0361808 -0.00318918 -0.0409395 -1.92746e-12 1.75227e-12 -3.7378e-13 0 5.26869e-16
730 12 0.001 -0.0353239 -0.00363003 -0.0412029 -2.16232e-12 1.08011e-12 -2.39755e-13 0 4.20795e-16
1125 14 0.001 -0.0161808 -0.00318918 -0.0409395 -1.82288e-12 1.76088e-12 -3.955e-13 0 5.26869e-16
1126 14 0.001 -0.0153239 -0.00363003 -0.0412029 -2.16939e-12 1.06281e-12 -2.38886e-13 0 4.20795e-16
1521 16 0.001 0.00381921 -0.00318918 -0.0409395 -1.86029e-12 1.75658e-12 -3.88164e-13 0 5.26869e-16
1522 16 0.001 0.00467612 -0.00363003 -0.0412029 -2.15966e-12 1.07243e-12 -2.40397e-13 0 4.20795e-16
1917 18 0.001 0.0238192 -0.00318918 -0.0409395 -1.84831e-12 1.75829e-12 -3.92136e-13 0 5.26869e-16
1918 18 0.001 0.0246761 -0.00363003 -0.0412029 -2.19393e-12 1.07694e-12 -2.29241e-13 0 4.20795e-16
351 11 0.001 -0.057441 -0.0017523 -0.0404091 -9.03289e-13 2.78096e-12 -8.86836e-13 0 8.42258e-16
352 11 0.001 -0.0569014 -0.00254998 -0.0406748 -1.2994e-12 2.32841e-12 -6.47984e-13 0 6.69915e-16
727 12 0.001 -0.037441 -0.0017523 -0.0404091 -8.96701e-13 2.78584e-12 -8.87092e-13 0 8.42258e-16
728 12 0.001 -0.0369014 -0.00254998 -0.0406748 -1.30606e-12 2.31575e-12 -6.50079e-13 0 6.69915e-16
1123 14 0.001 -0.017441 -0.0017523 -0.0404091 -8.50546e-13 2.78787e-12 -8.95644e-13 0 8.42258e-16
1124 14 0.001 -0.0169014 -0.00254998 -0.0406748 -1.43911e-12 2.32152e-12 -6.23154e-13 0 6.69915e-16
1519 16 0.001 0.00255897 -0.0017523 -0.0404091 -8.61412e-13 2.78529e-12 -8.9454e-13 0 8.42258e-16
1520 16 0.001 0.00309856 -0.00254998 -0.0406748 -1.40369e-12 2.32109e-12 -6.29846e-13 0 6.69915e-16
1915 18 0.001 0.022559 -0.0017523 -0.0404091 -8.42328e-13 2.78344e-12 -8.97242e-13 0 8.42258e-16
1916 18 0.001 0.0230986 -0.00254998 -0.0406748 -1.41327e-12 2.31803e-12 -6.28333e-13 0 6.69915e-16
350 11 0.001 -0.057766 -0.000845827 -0.0401432 -2.62818e-13 3.06803e-12 -1.15764e-12 0 1.02899e-15
726 12 0.001 -0.037766 -0.000845827 -0.0401432 -2.46491e-13 3.06582e-12 -1.15833e-12 0 1.02899e-15
1122 14 0.001 -0.017766 -0.000845827 -0.0401432 -2.26796e-13 3.06524e-12 -1.15836e-12 0 1.02899e-15
1518 16 0.001 0.002234 -0.000845827 -0.0401432 -2.22342e-13 3.0663e-12 -1.15821e-12 0 1.02899e-15
1914 18 0.001 0.022234 -0.000845827 -0.0401432 -2.41532e-13 3.06557e-12 -1.15723e-12 0 1.02899e-15
348 11 0.001 -0.0577057 0.0010643 -0.0396122 1.03568e-12 3.09304e-12 -1.46113e-12 0 1.36363e-15
349 11 0.001 -0.0578561 0.000112962 -0.0398774 4.9171e-13 3.15504e-12 -1.365e-12 0 1.20988e-15
724 12 0.001 -0.0377057 0.0010643 -0.0396122 1.0656e-12 3.08009e-12 -1.46206e-12 0 1.36363e-15
725 12 0.001 -0.0378561 0.000112962 -0.0398774 4.64208e-13 3.15977e-12 -1.36379e-12 0 1.20988e-15
1120 14 0.001 -0.0177057 0.0010643 -0.0396122 1.08089e-12 3.08088e-12 -1.4611e-12 0 1.36363e-15
1121 14 0.001 -0.0178561 0.000112962 -0.0398774 4.37263e-13 3.15637e-12 -1.36449e-12 0 1.20988e-15
1516 16 0.001 0.00229433 0.0010643 -0.0396122 1.07866e-12 3.08613e-12 -1.46042e-12 0 1.36363e-15
1517 16 0.001 0.00214391 0.000112962 -0.0398774 4.30622e-13 3.15491e-12 -1.36485e-12 0 1.20988e-15
1912 18 0.001 0.0222943 0.0010643 -0.0396122 1.06337e-12 3.08332e-12 -1.4622e-12 0 1.36363e-15
1913 18 0.001 0.0221439 0.000112962 -0.0398774 4.46157e-13 3.15667e-12 -1.36437e-12 0 1.20988e-15
347 11 0.001 -0.0573241 0.00194885 -0.0393477 1.71411e-12 2.7957e-12 -1.46671e-12 0 1.47307e-15
346 11 0.001 -0.0567351 0.0027114 -0.0390838 2.11919e-12 2.38827e-12 -1.34674e-12 0 1.52931e-15
722 12 0.001 -0.0367351 0.0027114 -0.0390838 2.20017e-12 2.368e-12 -1.33638e-12 0 1.52931e-15
723 12 0.001 -0.0373241 0.00194885 -0.0393477 1.65609e-12 2.81156e-12 -1.47166e-12 0 1.47307e-15
1118 14 0.001 -0.0167351 0.0027114 -0.0390838 2.18353e-12 2.38071e-12 -1.3379e-12 0 1.52931e-15
1119 14 0.001 -0.0173241 0.00194885 -0.0393477 1.6467e-12 2.80518e-12 -1.47396e-12 0 1.47307e-15
1515 16 0.001 0.00267591 0.00194885 -0.0393477 1.66971e-12 2.80352e-12 -1.47112e-12 0 1.47307e-15
1514 16 0.001 0.00326489 0.0027114 -0.0390838 2.15e-12 2.37436e-12 -1.34449e-12 0 1.52931e-15
1910 18 0.001 0.0232649 0.0027114 -0.0390838 2.15612e-12 2.37975e-12 -1.34229e-12 0 1.52931e-15
1911 18 0.001 0.0226759 0.00194885 -0.0393477 1.68008e-12 2.8061e-12 -1.46923e-12 0 1.47307e-15
345 11 0.001 -0.0559755 0.00330434 -0.0388204 2.4727e-12 1.80463e-12 -1.15171e-12 0 1.53339e-15
344 11 0.001 -0.0550926 0.00369063 -0.0385572 2.7522e-12 1.18491e-12 -8.63342e-13 0 1.49502e-15
720 12 0.001 -0.0350926 0.00369063 -0.0385572 2.74138e-12 1.16265e-12 -8.71203e-13 0 1.49502e-15
721 12 0.001 -0.0359755 0.00330434 -0.0388204 2.43471e-12 1.8372e-12 -1.15254e-12 0 1.53339e-15
1117 14 0.001 -0.0159755 0.00330434 -0.0388204 2.4856e-12 1.81746e-12 -1.14404e-12 0 1.53339e-15
1116 14 0.001 -0.0150926 0.00369063 -0.0385572 2.69444e-12 1.18448e-12 -8.79233e-13 0 1.49502e-15
1513 16 0.001 0.00402454 0.00330434 -0.0388204 2.50054e-12 1.8257e-12 -1.14076e-12 0 1.53339e-15
1512 16 0.001 0.00490744 0.00369063 -0.0385572 2.69585e-12 1.17631e-12 -8.78876e-13 0 1.49502e-15
1908 18 0.001 0.0249074 0.00369063 -0.0385572 2.70119e-12 1.18026e-12 -8.77626e-13 0 1.49502e-15
1909 18 0.001 0.0240245 0.00330434 -0.0388204 2.48637e-12 1.81855e-12 -1.14465e-12 0 1.53339e-15
338 11 0.001 -0.0503837 0.00133553 -0.0369689 6.79851e-13 -2.21677e-12 -2.62661e-13 0 1.18151e-15
714 12 0.001 -0.0303837 0.00133553 -0.0369689 7.62921e-13 -2.20499e-12 -2.58005e-13 0 1.18151e-15
1110 14 0.001 -0.0103837 0.00133553 -0.0369689 7.52426e-13 -2.20307e-12 -2.59043e-13 0 1.18151e-15
1506 16 0.001 0.00961631 0.00133553 -0.0369689 7.4828e-13 -2.20794e-12 -2.58342e-13 0 1.18151e-15
1902 18 0.001 0.0296163 0.00133553 -0.0369689 7.26292e-13 -2.20789e-12 -2.60429e-13 0 1.18151e-15
340 11 0.001 -0.0514721 0.00290606 -0.0375008 1.85527e-12 -1.40614e-12 -1.19227e-13 0 1.22477e-15
339 11 0.001 -0.050829 0.00218925 -0.0372351 1.38336e-12 -1.83558e-12 -1.48559e-13 0 1.19057e-15
715 12 0.001 -0.030829 0.00218925 -0.0372351 1.32475e-12 -1.85075e-12 -1.52754e-13 0 1.19057e-15
716 12 0.001 -0.0314721 0.00290606 -0.0375008 1.86874e-12 -1.39024e-12 -1.20221e-13 0 1.22477e-15
1111 14 0.001 -0.010829 0.00218925 -0.0372351 1.32627e-12 -1.85408e-12 -1.51946e-13 0 1.19057e-15
1112 14 0.001 -0.0114721 0.00290606 -0.0375008 1.8842e-12 -1.39698e-12 -1.16191e-13 0 1.22477e-15
1508 16 0.001 0.0085279 0.00290606 -0.0375008 1.87903e-12 -1.39441e-12 -1.17089e-13 0 1.22477e-15
1507 16 0.001 0.00917103 0.00218925 -0.0372351 1.33206e-12 -1.85026e-12 -1.51987e-13 0 1.19057e-15
1903 18 0.001 0.029171 0.00218925 -0.0372351 1.3628e-12 -1.85314e-12 -1.46829e-13 0 1.19057e-15
1904 18 0.001 0.0285279 0.00290606 -0.0375008 1.84371e-12 -1.39099e-12 -1.24613e-13 0 1.22477e-15
343 11 0.001 -0.0541415 0.00384615 -0.0382938 2.66278e-12 4.93423e-13 -6.18055e-13 0 1.42938e-15
342 11 0.001 -0.0531817 0.00376123 -0.0380301 2.60775e-12 -1.82618e-13 -3.58056e-13 0 1.35316e-15
341 11 0.001 -0.052273 0.00344119 -0.0377658 2.29056e-12 -8.30988e-13 -1.93641e-13 0 1.28124e-15
719 12 0.001 -0.0341415 0.00384615 -0.0382938 2.68109e-12 4.96115e-13 -6.11713e-13 0 1.42938e-15
718 12 0.001 -0.0331817 0.00376123 -0.0380301 2.59613e-12 -1.80947e-13 -3.61113e-13 0 1.35316e-15
717 12 0.001 -0.032273 0.00344119 -0.0377658 2.29791e-12 -8.39933e-13 -1.90936e-13 0 1.28124e-15
1115 14 0.001 -0.0141415 0.00384615 -0.0382938 2.71459e-12 4.89662e-13 -6.04549e-13 0 1.42938e-15
1113 14 0.001 -0.012273 0.00344119 -0.0377658 2.28212e-12 -8.27243e-13 -1.95704e-13 0 1.28124e-15
1114 14 0.001 -0.0131817 0.00376123 -0.0380301 2.58094e-12 -1.86663e-13 -3.64789e-13 0 1.35316e-15
1511 16 0.001 0.00585849 0.00384615 -0.0382938 2.71886e-12 4.9326e-13 -6.03608e-13 0 1.42938e-15
1510 16 0.001 0.00681831 0.00376123 -0.0380301 2.56828e-12 -1.79048e-13 -3.6822e-13 0 1.35316e-15
1509 16 0.001 0.00772701 0.00344119 -0.0377658 2.29268e-12 -8.38714e-13 -1.92303e-13 0 1.28124e-15
1907 18 0.001 0.0258585 0.00384615 -0.0382938 2.71068e-12 4.93435e-13 -6.05712e-13 0 1.42938e-15
1906 18 0.001 0.0268183 0.00376123 -0.0380301 2.58379e-12 -1.88919e-13 -3.63246e-13 0 1.35316e-15
1905 18 0.001 0.027727 0.00344119 -0.0377658 2.30238e-12 -8.29753e-13 -1.91488e-13 0 1.28124e-15
333 11 0.001 -0.0515927 -0.00301692 -0.0356367 -2.24699e-12 -1.62166e-12 -1.12754e-12 0 1.42553e-15
709 12 0.001 -0.0315927 -0.00301692 -0.0356367 -2.23109e-12 -1.61339e-12 -1.13265e-12 0 1.42553e-15
1105 14 0.001 -0.0115927 -0.00301692 -0.0356367 -2.22107e-12 -1.61919e-12 -1.13336e-12 0 1.42553e-15
1501 16 0.001 0.00840734 -0.00301692 -0.0356367 -2.20813e-12 -1.61911e-12 -1.13602e-12 0 1.42553e-15
1897 18 0.001 0.0284073 -0.00301692 -0.0356367 -2.22086e-12 -1.60254e-12 -1.13653e-12 0 1.42553e-15
334 11 0.001 -0.0509209 -0.00232692 -0.0359025 -1.74068e-12 -2.01488e-12 -1.04464e-12 0 1.35496e-15
710 12 0.001 -0.0309209 -0.00232692 -0.0359025 -1.7396e-12 -2.01682e-12 -1.0444e-12 0 1.35496e-15
1106 14 0.001 -0.0109209 -0.00232692 -0.0359025 -1.75385e-12 -2.01141e-12 -1.0429e-12 0 1.35496e-15
1502 16 0.001 0.00907908 -0.00232692 -0.0359025 -1.76454e-12 -2.00947e-12 -1.04187e-12 0 1.35496e-15
1898 18 0.001 0.0290791 -0.00232692 -0.0359025 -1.7398e-12 -2.02361e-12 -1.04258e-12 0 1.35496e-15
335 11 0.001 -0.0504413 -0.00149203 -0.0361689 -1.2079e-12 -2.29723e-12 -8.72527e-13 0 1.28927e-15
336 11 0.001 -0.0501836 -0.000564383 -0.0364355 -5.74099e-13 -2.42564e-12 -6.64813e-13 0 1.23472e-15
711 12 0.001 -0.0304413 -0.00149203 -0.0361689 -1.20564e-12 -2.29455e-12 -8.74137e-13 0 1.28927e-15
712 12 0.001 -0.0301836 -0.000564383 -0.0364355 -5.55409e-13 -2.42612e-12 -6.62976e-13 0 1.23472e-15
1107 14 0.001 -0.0104413 -0.00149203 -0.0361689 -1.20356e-12 -2.29773e-12 -8.73638e-13 0 1.28927e-15
1108 14 0.001 -0.0101836 -0.000564383 -0.0364355 -5.62563e-13 -2.42877e-12 -6.62514e-13 0 1.23472e-15
1503 16 0.001 0.00955873 -0.00149203 -0.0361689 -1.19204e-12 -2.30111e-12 -8.74136e-13 0 1.28927e-15
1504 16 0.001 0.00981639 -0.000564383 -0.0364355 -5.67782e-13 -2.42572e-12 -6.62902e-13 0 1.23472e-15
1899 18 0.001 0.0295587 -0.00149203 -0.0361689 -1.21641e-12 -2.29495e-12 -8.7265e-13 0 1.28927e-15
1900 18 0.001 0.0298164 -0.000564383 -0.0364355 -5.62542e-13 -2.42655e-12 -6.63703e-13 0 1.23472e-15
337 11 0.001 -0.050164 0.000398154 -0.0367022 1.23032e-13 -2.38546e-12 -4.48711e-13 0 1.1972e-15
713 12 0.001 -0.030164 0.000398154 -0.0367022 5.93581e-14 -2.39228e-12 -4.50812e-13 0 1.1972e-15
1109 14 0.001 -0.010164 0.000398154 -0.0367022 7.42245e-14 -2.39019e-12 -4.50985e-13 0 1.1972e-15
1505 16 0.001 0.00983599 0.000398154 -0.0367022 7.61929e-14 -2.38755e-12 -4.51609e-13 0 1.1972e-15
1901 18 0.001 0.029836 0.000398154 -0.0367022 8.96057e-14 -2.38916e-12 -4.50374e-13 0 1.1972e-15
328 11 0.001 -0.0561077 -0.00323142 -0.0343143 -2.1231e-12 1.19388e-12 -6.55144e-13 0 1.7119e-15
329 11 0.001 -0.0552415 -0.00365332 -0.0345782 -2.45445e-12 6.55756e-13 -8.23232e-13 0 1.66784e-15
330 11 0.001 -0.0542977 -0.00384745 -0.0348422 -2.71011e-12 9.25353e-14 -9.60124e-13 0 1.61776e-15
331 11 0.001 -0.0533354 -0.00380171 -0.0351066 -2.62753e-12 -5.11958e-13 -1.10762e-12 0 1.56018e-15
332 11 0.001 -0.0524146 -0.00351897 -0.0353714 -2.49147e-12 -1.08153e-12 -1.16462e-12 0 1.49535e-15
704 12 0.001 -0.0361077 -0.00323142 -0.0343143 -2.15115e-12 1.18535e-12 -6.50875e-13 0 1.7119e-15
705 12 0.001 -0.0352415 -0.00365332 -0.0345782 -2.45094e-12 6.64811e-13 -8.22993e-13 0 1.66784e-15
706 12 0.001 -0.0342977 -0.00384745 -0.0348422 -2.69771e-12 8.40417e-14 -9.63988e-13 0 1.61776e-15
707 12 0.001 -0.0333354 -0.00380171 -0.0351066 -2.61136e-12 -5.09377e-13 -1.11158e-12 0 1.56018e-15
708 12 0.001 -0.0324146 -0.00351897 -0.0353714 -2.52647e-12 -1.08882e-12 -1.15529e-12 0 1.49535e-15
1100 14 0.001 -0.0161077 -0.00323142 -0.0343143 -2.15159e-12 1.19353e-12 -6.51813e-13 0 1.7119e-15
1101 14 0.001 -0.0152415 -0.00365332 -0.0345782 -2.48975e-12 6.58318e-13 -8.11753e-13 0 1.66784e-15
1102 14 0.001 -0.0142977 -0.00384745 -0.0348422 -2.63388e-12 9.03749e-14 -9.80906e-13 0 1.61776e-15
1104 14 0.001 -0.0124146 -0.00351897 -0.0353714 -2.49131e-12 -1.08016e-12 -1.16508e-12 0 1.49535e-15
1103 14 0.001 -0.0133354 -0.00380171 -0.0351066 -2.6753e-12 -5.17267e-13 -1.09494e-12 0 1.56018e-15
1496 16 0.001 0.00389228 -0.00323142 -0.0343143 -2.16573e-12 1.18802e-12 -6.47001e-13 0 1.7119e-15
1497 16 0.001 0.00475853 -0.00365332 -0.0345782 -2.46886e-12 6.66334e-13 -8.1814e-13 0 1.66784e-15
1498 16 0.001 0.00570225 -0.00384745 -0.0348422 -2.64475e-12 8.36093e-14 -9.77699e-13 0 1.61776e-15
1499 16 0.001 0.00666457 -0.00380171 -0.0351066 -2.65997e-12 -5.13736e-13 -1.0988e-12 0 1.56018e-15
1500 16 0.001 0.00758541 -0.00351897 -0.0353714 -2.51544e-12 -1.08274e-12 -1.1591e-12 0 1.49535e-15
1892 18 0.001 0.0238923 -0.00323142 -0.0343143 -2.13907e-12 1.19256e-12 -6.52469e-13 0 1.7119e-15
1893 18 0.001 0.0247585 -0.00365332 -0.0345782 -2.49523e-12 6.61276e-13 -8.11603e-13 0 1.66784e-15
1894 18 0.001 0.0257023 -0.00384745 -0.0348422 -2.62611e-12 8.95297e-14 -9.82218e-13 0 1.61776e-15
1895 18 0.001 0.0266646 -0.00380171 -0.0351066 -2.66639e-12 -5.1238e-13 -1.09798e-12 0 1.56018e-15
1896 18 0.001 0.0275854 -0.00351897 -0.0353714 -2.50892e-12 -1.09422e-12 -1.15896e-12 0 1.49535e-15
327 11 0.001 -0.0568425 -0.00260806 -0.0340505 -1.75694e-12 1.60455e-12 -5.01614e-13 0 1.75251e-15
703 12 0.001 -0.0368425 -0.00260806 -0.0340505 -1.71437e-12 1.61885e-12 -5.04515e-13 0 1.75251e-15