ITEM: TIMESTEP
8800000
ITEM: NUMBER OF ATOMS
1970
ITEM: BOX BOUNDS ff ff ff
-6.0000000000000005e-02 6.0000000000000005e-02
-6.0000000000000001e-03 6.0000000000000001e-03
-5.5000000000000000e-02 5.5000000000000000e-02
ITEM: ATOMS id type radius x y z fx fy fz c_bendingE c_stretchingE
384 11 0.001 -0.0508112 -0.00264146 -0.0489986 -3.25592e-14 2.49608e-14 -2.48895e-14 0 1.75752e-17
385 11 0.001 -0.0503144 -0.00183709 -0.0493215 -2.19254e-13 5.19991e-14 1.19896e-14 0 9.98188e-15
760 12 0.001 -0.0308104 -0.00264138 -0.0489977 -1.45e-13 5.49792e-14 -1.20834e-14 0 1.68477e-17
761 12 0.001 -0.0303139 -0.00183696 -0.0493209 -1.30328e-13 2.5344e-14 1.35754e-14 0 9.85731e-15
1156 14 0.001 -0.0108104 -0.00264138 -0.0489977 -1.59432e-13 3.46316e-14 -3.4528e-16 0 1.68477e-17
1157 14 0.001 -0.0103139 -0.00183696 -0.0493209 -1.04123e-13 6.33546e-14 -7.34367e-15 0 9.85731e-15
1552 16 0.001 0.00918965 -0.00264138 -0.0489977 -1.60924e-13 3.29182e-14 2.07771e-15 0 1.68477e-17
1553 16 0.001 0.00968614 -0.00183696 -0.0493209 -1.08697e-13 6.18525e-14 -6.7204e-15 0 9.85731e-15
1948 18 0.001 0.0291896 -0.00264138 -0.0489977 -1.65955e-13 3.96658e-14 -1.32114e-15 0 1.68477e-17
1949 18 0.001 0.0296861 -0.00183696 -0.0493209 -9.6792e-14 4.49845e-14 3.67834e-16 0 9.85731e-15
2 2 0.001 -0.05 -4.31175e-17 -0.05 -2.22085e-06 2.35948e-06 1.86454e-06 0 9.03075e-15
386 11 0.001 -0.0500384 -0.000937458 -0.0496569 -7.91605e-15 7.62134e-16 4.00843e-15 0 1.90099e-14
762 12 0.001 -0.0300381 -0.000937347 -0.0496566 -4.82977e-14 -2.41225e-15 9.43078e-15 0 1.87432e-14
4 4 0.001 -0.03 -4.31175e-17 -0.05 -2.26362e-06 2.45251e-06 1.84592e-06 0 8.89063e-15
6 6 0.001 -0.01 -4.31175e-17 -0.05 -2.26362e-06 2.45251e-06 1.84592e-06 0 8.89063e-15
1158 14 0.001 -0.0100381 -0.000937347 -0.0496566 -5.39938e-14 -2.32229e-14 2.06011e-14 0 1.87432e-14
8 8 0.001 0.01 -4.31175e-17 -0.05 -2.26362e-06 2.45251e-06 1.84592e-06 0 8.89063e-15
1554 16 0.001 0.00996188 -0.000937347 -0.0496566 -5.55274e-14 -2.16398e-14 2.00234e-14 0 1.87432e-14
10 10 0.001 0.03 -4.31175e-17 -0.05 -2.26362e-06 2.45251e-06 1.84592e-06 0 8.89063e-15
1950 18 0.001 0.0299619 -0.000937347 -0.0496566 -6.62976e-14 -1.38037e-14 1.64321e-14 0 1.87432e-14
379 11 0.001 -0.0551728 -0.0037978 -0.0476503 -3.29754e-13 2.45084e-13 -1.70623e-13 0 7.29408e-16
380 11 0.001 -0.0542289 -0.00402596 -0.0478846 -2.68304e-13 2.24495e-13 -1.54327e-13 0 6.33006e-16
381 11 0.001 -0.0532618 -0.00401506 -0.048135 -2.49344e-13 1.72906e-13 -1.22473e-13 0 4.60578e-16
382 11 0.001 -0.0523321 -0.00376708 -0.0484038 -2.17354e-13 1.00313e-13 -7.74787e-14 0 2.61292e-16
383 11 0.001 -0.0514979 -0.00329897 -0.048692 -3.10289e-13 9.59371e-14 -2.62226e-14 0 9.59936e-17
755 12 0.001 -0.0351717 -0.00379868 -0.0476492 -2.33635e-13 2.53206e-13 -1.83357e-13 0 7.41344e-16
756 12 0.001 -0.0342276 -0.00402661 -0.0478834 -3.15134e-13 1.8847e-13 -1.32688e-13 0 6.38196e-16
757 12 0.001 -0.0332606 -0.00401548 -0.0481338 -2.38906e-13 1.72813e-13 -1.14752e-13 0 4.58871e-16
758 12 0.001 -0.032331 -0.00376729 -0.0484026 -2.58653e-13 1.19674e-13 -6.47444e-14 0 2.54858e-16
759 12 0.001 -0.0314969 -0.003299 -0.0486909 -1.82067e-13 7.3469e-14 -4.15014e-14 0 8.9356e-17
1151 14 0.001 -0.0151717 -0.00379868 -0.0476492 -2.56805e-13 2.44347e-13 -1.76784e-13 0 7.41344e-16
1152 14 0.001 -0.0142276 -0.00402661 -0.0478834 -2.81161e-13 2.01275e-13 -1.42176e-13 0 6.38196e-16
1153 14 0.001 -0.0132606 -0.00401548 -0.0481338 -2.48683e-13 1.72344e-13 -1.12642e-13 0 4.58871e-16
1154 14 0.001 -0.012331 -0.00376729 -0.0484026 -2.2625e-13 1.13738e-13 -7.07071e-14 0 2.54858e-16
1155 14 0.001 -0.0114969 -0.003299 -0.0486909 -2.15266e-13 7.48874e-14 -3.6151e-14 0 8.9356e-17
1547 16 0.001 0.00482834 -0.00379868 -0.0476492 -2.6425e-13 2.44126e-13 -1.74808e-13 0 7.41344e-16
1548 16 0.001 0.00577237 -0.00402661 -0.0478834 -2.74113e-13 2.07128e-13 -1.44175e-13 0 6.38196e-16
1549 16 0.001 0.00673943 -0.00401548 -0.0481338 -2.49773e-13 1.63408e-13 -1.11712e-13 0 4.58871e-16
1550 16 0.001 0.00766902 -0.00376729 -0.0484026 -2.39039e-13 1.20073e-13 -6.7748e-14 0 2.54858e-16
1551 16 0.001 0.00850307 -0.003299 -0.0486909 -1.98294e-13 7.64207e-14 -4.19294e-14 0 8.9356e-17
1943 18 0.001 0.0248283 -0.00379868 -0.0476492 -2.48244e-13 2.42345e-13 -1.7905e-13 0 7.41344e-16
1944 18 0.001 0.0257724 -0.00402661 -0.0478834 -2.70736e-13 2.01388e-13 -1.44463e-13 0 6.38196e-16
1945 18 0.001 0.0267394 -0.00401548 -0.0481338 -2.56062e-13 1.67965e-13 -1.12075e-13 0 4.58871e-16
1946 18 0.001 0.027669 -0.00376729 -0.0484026 -2.38777e-13 1.09256e-13 -6.40885e-14 0 2.54858e-16
1947 18 0.001 0.0285031 -0.003299 -0.0486909 -1.97004e-13 8.57791e-14 -4.4453e-14 0 8.9356e-17
378 11 0.001 -0.0560346 -0.00334374 -0.0474285 -2.08499e-13 3.12097e-13 -2.05432e-13 0 7.26695e-16
754 12 0.001 -0.0360336 -0.00334483 -0.0474275 -2.09889e-13 2.87719e-13 -1.97701e-13 0 7.43522e-16
1150 14 0.001 -0.0160336 -0.00334483 -0.0474275 -2.36459e-13 2.94754e-13 -1.92616e-13 0 7.43522e-16
1546 16 0.001 0.00396644 -0.00334483 -0.0474275 -2.40897e-13 2.90548e-13 -1.92652e-13 0 7.43522e-16
1942 18 0.001 0.0239664 -0.00334483 -0.0474275 -2.45526e-13 3.01738e-13 -1.89702e-13 0 7.43522e-16
376 11 0.001 -0.0573046 -0.00188054 -0.047004 -1.62734e-13 3.56369e-13 -1.82044e-13 0 4.787e-16
377 11 0.001 -0.0567603 -0.00269129 -0.0472147 -2.35904e-13 3.16887e-13 -2.01397e-13 0 6.32413e-16
753 12 0.001 -0.0367594 -0.00269255 -0.0472138 -2.43952e-13 3.2668e-13 -1.85976e-13 0 6.51436e-16
752 12 0.001 -0.0373041 -0.00188192 -0.0470034 -2.28258e-13 3.29693e-13 -1.79328e-13 0 4.97196e-16
1149 14 0.001 -0.0167594 -0.00269255 -0.0472138 -2.29362e-13 3.13981e-13 -1.91695e-13 0 6.51436e-16
1148 14 0.001 -0.0173041 -0.00188192 -0.0470034 -1.65657e-13 3.45975e-13 -1.78799e-13 0 4.97196e-16
1544 16 0.001 0.00269594 -0.00188192 -0.0470034 -1.80548e-13 3.44803e-13 -1.77473e-13 0 4.97196e-16
1545 16 0.001 0.00324056 -0.00269255 -0.0472138 -2.12142e-13 3.17319e-13 -1.93636e-13 0 6.51436e-16
1941 18 0.001 0.0232406 -0.00269255 -0.0472138 -2.41265e-13 3.14868e-13 -1.90157e-13 0 6.51436e-16
1940 18 0.001 0.0226959 -0.00188192 -0.0470034 -1.54995e-13 3.43604e-13 -1.80446e-13 0 4.97196e-16
375 11 0.001 -0.057634 -0.000961585 -0.0467917 -1.96001e-13 3.57109e-13 -1.5396e-13 0 3.0885e-16
751 12 0.001 -0.0376337 -0.000963024 -0.0467912 -1.5226e-14 3.67475e-13 -1.43019e-13 0 3.2464e-16
1147 14 0.001 -0.0176337 -0.000963024 -0.0467912 -1.47685e-13 3.59433e-13 -1.43075e-13 0 3.2464e-16
1543 16 0.001 0.00236631 -0.000963024 -0.0467912 -1.38482e-13 3.59162e-13 -1.43445e-13 0 3.2464e-16
1939 18 0.001 0.0223663 -0.000963024 -0.0467912 -1.43528e-13 3.57428e-13 -1.43401e-13 0 3.2464e-16
373 11 0.001 -0.0575821 0.000970382 -0.0463457 -8.85894e-14 3.41327e-13 -5.83488e-14 0 6.21542e-17
374 11 0.001 -0.0577282 8.72075e-06 -0.0465735 -1.21856e-14 3.5441e-13 -9.66804e-14 0 1.62084e-16
749 12 0.001 -0.0375824 0.000969026 -0.0463455 8.22454e-14 3.12317e-13 -3.72441e-14 0 6.93677e-17
750 12 0.001 -0.0377282 7.28907e-06 -0.0465731 -2.28936e-13 3.25388e-13 -1.11506e-13 0 1.73823e-16
1145 14 0.001 -0.0175824 0.000969026 -0.0463455 -3.40967e-14 3.34031e-13 -4.43667e-14 0 6.93677e-17
1146 14 0.001 -0.0177282 7.28907e-06 -0.0465731 -8.27533e-14 3.18356e-13 -1.07002e-13 0 1.73823e-16
1541 16 0.001 0.00241758 0.000969026 -0.0463455 -4.44627e-14 3.35715e-13 -4.58814e-14 0 6.93677e-17
1542 16 0.001 0.00227176 7.28907e-06 -0.0465731 -8.81505e-14 3.17654e-13 -1.07272e-13 0 1.73823e-16
1937 18 0.001 0.0224176 0.000969026 -0.0463455 -1.68912e-14 3.28191e-13 -4.36991e-14 0 6.93677e-17
1938 18 0.001 0.0222718 7.28907e-06 -0.0465731 -9.59897e-14 3.22195e-13 -1.06997e-13 0 1.73823e-16
372 11 0.001 -0.0572054 0.00186405 -0.046106 -5.47576e-14 2.82061e-13 -1.28192e-15 0 1.31901e-17
748 12 0.001 -0.037206 0.00186284 -0.0461059 -1.19167e-13 3.07695e-13 -1.16684e-14 0 1.61582e-17
1144 14 0.001 -0.017206 0.00186284 -0.0461059 -4.89905e-14 2.79302e-13 -6.0738e-15 0 1.61582e-17
1540 16 0.001 0.00279402 0.00186284 -0.0461059 -1.22497e-14 2.74843e-13 9.5162e-17 0 1.61582e-17
1936 18 0.001 0.022794 0.00186284 -0.0461059 -5.91893e-14 2.84171e-13 -6.35373e-15 0 1.61582e-17
371 11 0.001 -0.0566222 0.00263474 -0.0458532 1.54723e-13 2.68112e-13 8.37118e-14 0 3.08362e-18
747 12 0.001 -0.036623 0.00263372 -0.0458532 1.20642e-13 2.2112e-13 7.74421e-14 0 2.64319e-18
1143 14 0.001 -0.016623 0.00263372 -0.0458532 8.56718e-14 2.55076e-13 7.42318e-14 0 2.64319e-18
1539 16 0.001 0.003377 0.00263372 -0.0458532 4.55809e-14 2.64504e-13 6.70768e-14 0 2.64319e-18
1935 18 0.001 0.023377 0.00263372 -0.0458532 1.00104e-13 2.51233e-13 7.68567e-14 0 2.64319e-18
370 11 0.001 -0.0558693 0.00323514 -0.0455873 -4.58831e-14 2.08167e-13 7.87142e-14 0 1.18781e-17
369 11 0.001 -0.0549941 0.00362859 -0.0453094 1.83415e-13 1.38677e-13 1.56304e-13 0 2.1225e-17
368 11 0.001 -0.0540513 0.0037912 -0.0450217 4.99206e-16 8.26347e-14 1.14568e-13 0 2.1214e-17
367 11 0.001 -0.0531 0.00371335 -0.044727 3.10882e-14 1.14736e-14 1.09418e-13 0 1.24411e-17
745 12 0.001 -0.0349952 0.00362812 -0.0453094 1.60078e-13 1.04229e-13 1.52181e-13 0 1.75682e-17
746 12 0.001 -0.0358703 0.00323438 -0.0455873 -2.52127e-14 2.32004e-13 7.95788e-14 0 9.19531e-18
744 12 0.001 -0.0340525 0.00379105 -0.0450217 2.5517e-14 9.39979e-14 1.17173e-13 0 1.77462e-17
743 12 0.001 -0.0331012 0.00371352 -0.0447269 9.70257e-14 4.1765e-15 1.33918e-13 0 1.00513e-17
1142 14 0.001 -0.0158703 0.00323438 -0.0455873 3.07565e-14 2.00816e-13 9.3119e-14 0 9.19531e-18
1140 14 0.001 -0.0140525 0.00379105 -0.0450217 7.92673e-14 7.87324e-14 1.35281e-13 0 1.77462e-17
1141 14 0.001 -0.0149952 0.00362812 -0.0453094 7.30065e-14 1.26211e-13 1.25935e-13 0 1.75682e-17
1139 14 0.001 -0.0131012 0.00371352 -0.0447269 7.077e-14 2.1899e-14 1.22645e-13 0 1.00513e-17
1538 16 0.001 0.00412967 0.00323438 -0.0455873 5.16067e-14 1.94843e-13 9.77345e-14 0 9.19531e-18
1537 16 0.001 0.00500476 0.00362812 -0.0453094 6.66616e-14 1.28849e-13 1.2368e-13 0 1.75682e-17
1536 16 0.001 0.00594746 0.00379105 -0.0450217 7.80299e-14 7.46568e-14 1.35494e-13 0 1.77462e-17
1535 16 0.001 0.00689883 0.00371352 -0.0447269 7.53788e-14 2.07011e-14 1.23803e-13 0 1.00513e-17
1933 18 0.001 0.0250048 0.00362812 -0.0453094 9.57094e-14 1.20916e-13 1.30911e-13 0 1.75682e-17
1934 18 0.001 0.0241297 0.00323438 -0.0455873 -5.71909e-15 2.05839e-13 8.44669e-14 0 9.19531e-18
1932 18 0.001 0.0259475 0.00379105 -0.0450217 9.59083e-14 7.89212e-14 1.41068e-13 0 1.77462e-17
1931 18 0.001 0.0268988 0.00371352 -0.0447269 3.69394e-14 1.9394e-14 1.12599e-13 0 1.00513e-17
361 11 0.001 -0.0501444 -0.000579978 -0.0429752 -2.23577e-14 -2.2353e-13 -1.59272e-13 0 1.35428e-16
737 12 0.001 -0.0301442 -0.000578786 -0.0429748 -1.20154e-13 -2.19595e-13 -1.51835e-13 0 1.39492e-16
1133 14 0.001 -0.0101442 -0.000578786 -0.0429748 -9.18195e-14 -2.21104e-13 -1.5099e-13 0 1.39492e-16
1529 16 0.001 0.00985575 -0.000578786 -0.0429748 -9.13242e-14 -2.21284e-13 -1.51087e-13 0 1.39492e-16
1925 18 0.001 0.0298558 -0.000578786 -0.0429748 -1.09055e-13 -2.23143e-13 -1.51158e-13 0 1.39492e-16
362 11 0.001 -0.0501185 0.000379095 -0.0432536 -7.89761e-14 -2.28433e-13 -1.00408e-13 0 9.76221e-17
363 11 0.001 -0.0503318 0.00131224 -0.0435395 -2.13302e-14 -1.82777e-13 -6.18053e-14 0 5.57875e-17
738 12 0.001 -0.0301187 0.000380288 -0.0432533 -4.91141e-14 -2.09464e-13 -1.02357e-13 0 1.0154e-16
739 12 0.001 -0.0303323 0.00131336 -0.0435392 -1.49687e-14 -1.76951e-13 -5.7789e-14 0 5.91661e-17
1134 14 0.001 -0.0101187 0.000380288 -0.0432533 -7.04163e-14 -2.15018e-13 -1.01265e-13 0 1.0154e-16
1135 14 0.001 -0.0103323 0.00131336 -0.0435392 -2.64663e-14 -1.55444e-13 -6.53296e-14 0 5.91661e-17
1530 16 0.001 0.00988132 0.000380288 -0.0432533 -6.85871e-14 -2.1407e-13 -1.01613e-13 0 1.0154e-16
1531 16 0.001 0.0096677 0.00131336 -0.0435392 -2.53058e-14 -1.596e-13 -6.37692e-14 0 5.91661e-17
1926 18 0.001 0.0298813 0.000380288 -0.0432533 -4.37433e-14 -2.08088e-13 -1.0142e-13 0 1.0154e-16
1927 18 0.001 0.0296677 0.00131336 -0.0435392 -5.20134e-14 -1.67709e-13 -6.66963e-14 0 5.91661e-17
365 11 0.001 -0.0514064 0.00287171 -0.044129 7.41228e-14 -1.16382e-13 5.82024e-14 0 4.24217e-18
364 11 0.001 -0.0507705 0.00216086 -0.0438319 -1.54414e-15 -1.4702e-13 6.83486e-16 0 2.19776e-17
740 12 0.001 -0.0307712 0.00216182 -0.0438317 2.6887e-14 -1.57775e-13 8.83152e-15 0 2.43323e-17
741 12 0.001 -0.0314073 0.00287246 -0.0441288 -1.30035e-14 -8.96403e-14 3.79939e-14 0 5.13444e-18
1136 14 0.001 -0.0107712 0.00216182 -0.0438317 1.70703e-14 -1.72131e-13 8.06949e-15 0 2.43323e-17
1137 14 0.001 -0.0114073 0.00287246 -0.0441288 5.5802e-14 -8.7538e-14 5.562e-14 0 5.13444e-18
1533 16 0.001 0.00859265 0.00287246 -0.0441288 4.2987e-14 -8.56618e-14 5.11143e-14 0 5.13444e-18
1532 16 0.001 0.00922882 0.00216182 -0.0438317 1.9092e-14 -1.71024e-13 8.59921e-15 0 2.43323e-17
1928 18 0.001 0.0292288 0.00216182 -0.0438317 6.81032e-14 -1.6267e-13 1.84756e-14 0 2.43323e-17
1929 18 0.001 0.0285927 0.00287246 -0.0441288 -1.75506e-14 -9.50704e-14 3.72625e-14 0 5.13444e-18
366 11 0.001 -0.0521995 0.00340027 -0.0444284 1.20947e-13 -4.29451e-14 1.15857e-13 0 3.2898e-18
742 12 0.001 -0.0322006 0.00340074 -0.0444282 8.93893e-14 -4.19013e-14 9.96449e-14 0 2.4876e-18
1138 14 0.001 -0.0122006 0.00340074 -0.0444282 6.0439e-14 -5.89055e-14 9.57672e-14 0 2.4876e-18
1534 16 0.001 0.00779937 0.00340074 -0.0444282 6.66491e-14 -5.57329e-14 9.77334e-14 0 2.4876e-18
1930 18 0.001 0.0277994 0.00340074 -0.0444282 1.14633e-13 -4.80171e-14 1.09942e-13 0 2.4876e-18
356 11 0.001 -0.0533264 -0.00380118 -0.0416798 -2.74279e-13 -1.11466e-13 -1.21342e-13 0 7.29483e-17
357 11 0.001 -0.0524003 -0.0035223 -0.0419302 -2.15196e-13 -1.1229e-13 -1.76458e-13 0 1.08804e-16
358 11 0.001 -0.0515725 -0.00302368 -0.0421833 -2.13209e-13 -1.78199e-13 -1.88794e-13 0 1.40831e-16
732 12 0.001 -0.0333252 -0.00380101 -0.0416795 -1.69405e-13 -8.96659e-14 -1.40396e-13 0 7.62935e-17
733 12 0.001 -0.0323992 -0.00352183 -0.0419298 -2.82828e-13 -1.27417e-13 -1.53592e-13 0 1.12363e-16
734 12 0.001 -0.0315715 -0.00302294 -0.0421829 -1.47124e-13 -1.69259e-13 -1.96194e-13 0 1.44525e-16
1128 14 0.001 -0.0133252 -0.00380101 -0.0416795 -2.31737e-13 -9.25371e-14 -1.27401e-13 0 7.62935e-17
1129 14 0.001 -0.0123992 -0.00352183 -0.0419298 -2.16991e-13 -1.33952e-13 -1.66238e-13 0 1.12363e-16
1130 14 0.001 -0.0115715 -0.00302294 -0.0421829 -2.01303e-13 -1.70801e-13 -1.85155e-13 0 1.44525e-16
1524 16 0.001 0.00667481 -0.00380101 -0.0416795 -2.42465e-13 -9.07089e-14 -1.24607e-13 0 7.62935e-17
1525 16 0.001 0.00760077 -0.00352183 -0.0419298 -2.10871e-13 -1.31345e-13 -1.67924e-13 0 1.12363e-16
1526 16 0.001 0.00842846 -0.00302294 -0.0421829 -2.02577e-13 -1.70296e-13 -1.85207e-13 0 1.44525e-16
1920 18 0.001 0.0266748 -0.00380101 -0.0416795 -2.27973e-13 -9.41341e-14 -1.28095e-13 0 7.62935e-17
1921 18 0.001 0.0276008 -0.00352183 -0.0419298 -2.21586e-13 -1.25816e-13 -1.66176e-13 0 1.12363e-16
1922 18 0.001 0.0284285 -0.00302294 -0.0421829 -1.93907e-13 -1.72035e-13 -1.86973e-13 0 1.44525e-16
359 11 0.001 -0.0508944 -0.00233669 -0.0424409 -1.06737e-13 -2.21884e-13 -1.98801e-13 0 1.59535e-16
360 11 0.001 -0.0504084 -0.00150465 -0.0427044 -2.74813e-13 -2.01112e-13 -1.76927e-13 0 1.58063e-16
735 12 0.001 -0.0308937 -0.00233574 -0.0424405 -2.01351e-13 -1.99982e-13 -1.87477e-13 0 1.63367e-16
736 12 0.001 -0.0304079 -0.00150354 -0.0427041 -1.37512e-13 -2.16236e-13 -1.77503e-13 0 1.62046e-16
1131 14 0.001 -0.0108937 -0.00233574 -0.0424405 -1.81776e-13 -1.92609e-13 -1.92366e-13 0 1.63367e-16
1132 14 0.001 -0.0104079 -0.00150354 -0.0427041 -1.49708e-13 -2.18131e-13 -1.76829e-13 0 1.62046e-16
1527 16 0.001 0.00910628 -0.00233574 -0.0424405 -1.79321e-13 -1.96393e-13 -1.91803e-13 0 1.63367e-16
1528 16 0.001 0.00959206 -0.00150354 -0.0427041 -1.52877e-13 -2.15483e-13 -1.77198e-13 0 1.62046e-16
1923 18 0.001 0.0291063 -0.00233574 -0.0424405 -1.76849e-13 -1.95051e-13 -1.92155e-13 0 1.63367e-16
1924 18 0.001 0.0295921 -0.00150354 -0.0427041 -1.54216e-13 -2.19853e-13 -1.75378e-13 0 1.62046e-16
353 11 0.001 -0.0561073 -0.00321871 -0.040928 -1.82879e-13 5.08704e-14 -4.98943e-15 0 7.39037e-18
355 11 0.001 -0.0542928 -0.00384276 -0.0414304 -1.87733e-13 -4.94098e-14 -9.96647e-14 0 4.16703e-17
354 11 0.001 -0.0552395 -0.00364446 -0.0411802 -2.0271e-13 9.01105e-16 -4.58268e-14 0 1.96817e-17
729 12 0.001 -0.0361063 -0.00321945 -0.0409277 -1.69917e-13 3.42684e-14 -2.16124e-15 0 9.13029e-18
730 12 0.001 -0.0352383 -0.00364491 -0.0411799 -1.40672e-13 -1.80313e-14 -5.70986e-14 0 2.2089e-17
731 12 0.001 -0.0342916 -0.00384291 -0.04143 -2.8092e-13 -4.83852e-14 -7.55886e-14 0 4.46394e-17
1125 14 0.001 -0.0161063 -0.00321945 -0.0409277 -1.60905e-13 2.32993e-14 -6.10735e-15 0 9.13029e-18
1126 14 0.001 -0.0152383 -0.00364491 -0.0411799 -1.93972e-13 -1.10437e-14 -4.35828e-14 0 2.2089e-17
1127 14 0.001 -0.0142916 -0.00384291 -0.04143 -2.05099e-13 -4.2297e-14 -9.3352e-14 0 4.46394e-17
1521 16 0.001 0.00389368 -0.00321945 -0.0409277 -1.53454e-13 1.77501e-14 -7.64939e-15 0 9.13029e-18
1523 16 0.001 0.00570836 -0.00384291 -0.04143 -2.02472e-13 -4.91665e-14 -9.41099e-14 0 4.46394e-17
1522 16 0.001 0.00476166 -0.00364491 -0.0411799 -1.93337e-13 -3.62448e-15 -4.33831e-14 0 2.2089e-17
1917 18 0.001 0.0238937 -0.00321945 -0.0409277 -1.39677e-13 3.58306e-14 -7.73877e-15 0 9.13029e-18
1918 18 0.001 0.0247617 -0.00364491 -0.0411799 -1.93929e-13 -1.72429e-14 -4.46664e-14 0 2.2089e-17
1919 18 0.001 0.0257084 -0.00384291 -0.04143 -2.13929e-13 -4.27351e-14 -9.06973e-14 0 4.46394e-17
351 11 0.001 -0.0573992 -0.00180403 -0.0404143 -6.26335e-14 1.06932e-13 3.8327e-14 0 7.07363e-19
352 11 0.001 -0.0568424 -0.00259218 -0.0406729 -1.23232e-13 2.35335e-14 2.07959e-14 0 2.18538e-18
727 12 0.001 -0.0373986 -0.0018052 -0.0404139 -1.02587e-13 9.57318e-14 5.73704e-14 0 1.55426e-18
728 12 0.001 -0.0368416 -0.00259316 -0.0406725 -1.18357e-13 6.90767e-14 2.05169e-14 0 3.32974e-18
1123 14 0.001 -0.0173986 -0.0018052 -0.0404139 -1.34496e-13 9.18596e-14 5.92806e-14 0 1.55426e-18
1124 14 0.001 -0.0168416 -0.00259316 -0.0406725 -1.04335e-13 7.86712e-14 2.11071e-14 0 3.32974e-18
1519 16 0.001 0.00260136 -0.0018052 -0.0404139 -7.47938e-14 9.74724e-14 5.55606e-14 0 1.55426e-18
1520 16 0.001 0.00315837 -0.00259316 -0.0406725 -1.32647e-13 7.77732e-14 2.37641e-14 0 3.32974e-18
1915 18 0.001 0.0226014 -0.0018052 -0.0404139 -6.59048e-14 1.03644e-13 5.45518e-14 0 1.55426e-18
1916 18 0.001 0.0231584 -0.00259316 -0.0406725 -1.55899e-13 6.22569e-14 2.5123e-14 0 3.32974e-18
350 11 0.001 -0.0577431 -0.000903451 -0.0401522 -2.25117e-14 1.19719e-13 5.78109e-14 0 9.22218e-19
726 12 0.001 -0.0377429 -0.000904736 -0.0401518 3.68033e-14 8.16495e-14 3.46769e-14 0 1.97056e-18
1122 14 0.001 -0.0177429 -0.000904736 -0.0401518 5.65745e-14 8.62235e-14 3.38487e-14 0 1.97056e-18
1518 16 0.001 0.00225713 -0.000904736 -0.0401518 -2.14574e-14 8.16635e-14 3.60084e-14 0 1.97056e-18
1914 18 0.001 0.0222571 -0.000904736 -0.0401518 9.78377e-15 8.15806e-14 3.63583e-14 0 1.97056e-18
348 11 0.001 -0.0577223 0.00100697 -0.0396193 9.87939e-14 1.27143e-13 2.03297e-14 0 9.30431e-18
349 11 0.001 -0.057853 5.34214e-05 -0.039887 -1.02984e-14 1.15775e-13 3.78782e-14 0 3.08545e-18
724 12 0.001 -0.0377227 0.00100569 -0.0396189 1.16921e-13 1.03299e-13 1.28406e-14 0 1.2537e-17
725 12 0.001 -0.0378531 5.2097e-05 -0.0398866 -5.9348e-14 1.457e-13 5.50832e-14 0 4.93936e-18
1120 14 0.001 -0.0177227 0.00100569 -0.0396189 1.36889e-13 9.7409e-14 1.33573e-14 0 1.2537e-17
1121 14 0.001 -0.0178531 5.2097e-05 -0.0398866 -6.18562e-14 1.3995e-13 5.35671e-14 0 4.93936e-18
1516 16 0.001 0.00227732 0.00100569 -0.0396189 7.85905e-14 1.03509e-13 1.16546e-14 0 1.2537e-17
1517 16 0.001 0.00214689 5.2097e-05 -0.0398866 1.73894e-14 1.39558e-13 5.44004e-14 0 4.93936e-18
1912 18 0.001 0.0222773 0.00100569 -0.0396189 1.38865e-13 1.00571e-13 1.55038e-14 0 1.2537e-17
1913 18 0.001 0.0221469 5.2097e-05 -0.0398866 -4.91886e-14 1.41013e-13 5.27382e-14 0 4.93936e-18
347 11 0.001 -0.0573591 0.00189779 -0.0393499 1.54214e-13 1.14546e-13 1.75296e-15 0 2.20638e-17
346 11 0.001 -0.0567863 0.00267037 -0.0390796 1.1821e-13 5.33373e-14 -6.75156e-14 0 4.25042e-17
722 12 0.001 -0.0367873 0.0026694 -0.0390792 2.2563e-13 9.11111e-14 -3.27539e-14 0 4.94677e-17
723 12 0.001 -0.0373598 0.00189663 -0.0393495 1.04974e-13 7.93904e-14 -1.49777e-14 0 2.70844e-17
1118 14 0.001 -0.0167873 0.0026694 -0.0390792 1.66057e-13 9.12086e-14 -4.7086e-14 0 4.94677e-17
1119 14 0.001 -0.0173598 0.00189663 -0.0393495 9.99329e-14 9.12852e-14 -1.03376e-14 0 2.70844e-17
1515 16 0.001 0.00264016 0.00189663 -0.0393495 1.22104e-13 8.65521e-14 -9.68432e-15 0 2.70844e-17
1514 16 0.001 0.0032127 0.0026694 -0.0390792 1.66488e-13 9.01674e-14 -4.6907e-14 0 4.94677e-17
1910 18 0.001 0.0232127 0.0026694 -0.0390792 1.74526e-13 8.60857e-14 -4.51895e-14 0 4.94677e-17
1911 18 0.001 0.0226402 0.00189663 -0.0393495 9.37357e-14 8.96923e-14 -1.33692e-14 0 2.70844e-17
345 11 0.001 -0.0560396 0.00327651 -0.0388094 2.25961e-13 7.91994e-14 -6.79164e-14 0 6.92802e-17
344 11 0.001 -0.0551656 0.00367836 -0.0385398 2.48274e-13 4.29681e-15 -1.08194e-13 0 9.85122e-17
721 12 0.001 -0.0360408 0.0032758 -0.038809 1.61036e-13 8.53597e-14 -8.02895e-14 0 7.80639e-17
720 12 0.001 -0.035167 0.00367795 -0.0385394 2.13541e-13 -1.59091e-14 -1.17797e-13 0 1.0876e-16
1117 14 0.001 -0.0160408 0.0032758 -0.038809 2.21388e-13 6.00076e-14 -6.97396e-14 0 7.80639e-17
1116 14 0.001 -0.015167 0.00367795 -0.0385394 2.05986e-13 7.20614e-15 -1.16836e-13 0 1.0876e-16
1513 16 0.001 0.00395919 0.0032758 -0.038809 2.11118e-13 5.8024e-14 -7.20176e-14 0 7.80639e-17
1512 16 0.001 0.00483305 0.00367795 -0.0385394 2.22292e-13 1.54293e-14 -1.12315e-13 0 1.0876e-16
1909 18 0.001 0.0239592 0.0032758 -0.038809 2.11381e-13 6.24062e-14 -7.20327e-14 0 7.80639e-17
1908 18 0.001 0.024833 0.00367795 -0.0385394 2.18842e-13 1.34477e-14 -1.12981e-13 0 1.0876e-16
338 11 0.001 -0.0504181 0.0014045 -0.0369494 2.06325e-13 -1.66525e-13 -5.72039e-14 0 1.08339e-16
714 12 0.001 -0.0304186 0.00140574 -0.036949 1.44256e-13 -1.65873e-13 -6.29527e-14 0 1.1782e-16
1110 14 0.001 -0.0104186 0.00140574 -0.036949 1.40203e-13 -1.65699e-13 -6.3193e-14 0 1.1782e-16
1506 16 0.001 0.0095814 0.00140574 -0.036949 1.37029e-13 -1.68627e-13 -6.25091e-14 0 1.1782e-16
1902 18 0.001 0.0295814 0.00140574 -0.036949 1.29755e-13 -1.68999e-13 -6.29796e-14 0 1.1782e-16
340 11 0.001 -0.0515346 0.00295737 -0.0374749 1.95656e-13 -1.16283e-13 -1.24477e-13 0 1.44711e-16
339 11 0.001 -0.0508787 0.00225126 -0.0372118 1.45317e-13 -1.62675e-13 -9.6818e-14 0 1.2956e-16
716 12 0.001 -0.0315357 0.00295821 -0.0374745 2.60075e-13 -1.30659e-13 -1.00154e-13 0 1.5581e-16
715 12 0.001 -0.0308795 0.00225233 -0.0372115 1.33555e-13 -1.26485e-13 -1.08994e-13 0 1.39928e-16
1111 14 0.001 -0.0108795 0.00225233 -0.0372115 1.5113e-13 -1.24581e-13 -1.05477e-13 0 1.39928e-16
1112 14 0.001 -0.0115357 0.00295821 -0.0374745 2.06801e-13 -1.29325e-13 -1.12612e-13 0 1.5581e-16
1508 16 0.001 0.00846434 0.00295821 -0.0374745 2.1936e-13 -1.28931e-13 -1.11214e-13 0 1.5581e-16
1507 16 0.001 0.00912051 0.00225233 -0.0372115 1.37565e-13 -1.21423e-13 -1.07825e-13 0 1.39928e-16
1904 18 0.001 0.0284643 0.00295821 -0.0374745 2.18015e-13 -1.28404e-13 -1.11593e-13 0 1.5581e-16
1903 18 0.001 0.0291205 0.00225233 -0.0372115 1.38741e-13 -1.21034e-13 -1.0805e-13 0 1.39928e-16
343 11 0.001 -0.0542189 0.00385076 -0.0382714 2.24423e-13 -1.33653e-14 -1.33412e-13 0 1.24836e-16
342 11 0.001 -0.0532586 0.00378283 -0.0380044 2.54292e-13 -6.66259e-14 -1.34616e-13 0 1.43087e-16
341 11 0.001 -0.0523448 0.00347873 -0.037739 2.21889e-13 -8.5432e-14 -1.37786e-13 0 1.49915e-16
719 12 0.001 -0.0342203 0.00385066 -0.038271 2.40711e-13 -1.53083e-14 -1.25034e-13 0 1.36046e-16
718 12 0.001 -0.03326 0.00378307 -0.0380041 2.90038e-13 -5.65815e-14 -1.22757e-13 0 1.54719e-16
717 12 0.001 -0.0323461 0.00347929 -0.0377386 1.48756e-13 -9.43084e-14 -1.53249e-13 0 1.61475e-16
1115 14 0.001 -0.0142203 0.00385066 -0.038271 2.52964e-13 -1.44805e-14 -1.21837e-13 0 1.36046e-16
1113 14 0.001 -0.0123461 0.00347929 -0.0377386 2.23745e-13 -9.99612e-14 -1.33554e-13 0 1.61475e-16
1114 14 0.001 -0.01326 0.00378307 -0.0380041 2.33346e-13 -5.81408e-14 -1.38419e-13 0 1.54719e-16
1511 16 0.001 0.0057797 0.00385066 -0.038271 2.4493e-13 -2.00517e-14 -1.24296e-13 0 1.36046e-16
1510 16 0.001 0.00674001 0.00378307 -0.0380041 2.2922e-13 -5.77187e-14 -1.39346e-13 0 1.54719e-16
1509 16 0.001 0.00765394 0.00347929 -0.0377386 2.24488e-13 -1.00679e-13 -1.32603e-13 0 1.61475e-16
1907 18 0.001 0.0257797 0.00385066 -0.038271 2.43599e-13 -2.20163e-14 -1.25007e-13 0 1.36046e-16
1906 18 0.001 0.02674 0.00378307 -0.0380041 2.29561e-13 -5.71589e-14 -1.38705e-13 0 1.54719e-16
1905 18 0.001 0.0276539 0.00347929 -0.0377386 2.29878e-13 -9.99668e-14 -1.31523e-13 0 1.61475e-16
333 11 0.001 -0.0515494 -0.00297337 -0.0356332 6.99536e-14 -5.22249e-14 -3.08678e-15 0 2.84328e-17
334 11 0.001 -0.0508901 -0.00227106 -0.0358979 -1.52548e-13 -1.29267e-13 4.58192e-14 0 3.56089e-17
709 12 0.001 -0.0315484 -0.00297254 -0.0356329 1.60658e-14 -8.22725e-14 8.84531e-15 0 3.42163e-17
710 12 0.001 -0.0308893 -0.00226999 -0.0358975 -5.92116e-14 -1.1014e-13 2.56885e-14 0 4.1773e-17
1105 14 0.001 -0.0115484 -0.00297254 -0.0356329 -7.90846e-14 -8.36725e-14 3.0887e-14 0 3.42163e-17
1106 14 0.001 -0.0108893 -0.00226999 -0.0358975 -5.61094e-14 -1.1317e-13 2.35784e-14 0 4.1773e-17
1501 16 0.001 0.00845165 -0.00297254 -0.0356329 -9.06854e-14 -8.39222e-14 3.19518e-14 0 3.42163e-17
1502 16 0.001 0.00911074 -0.00226999 -0.0358975 -4.16985e-14 -1.08378e-13 2.0251e-14 0 4.1773e-17
1897 18 0.001 0.0284516 -0.00297254 -0.0356329 -8.03649e-14 -8.23247e-14 2.84041e-14 0 3.42163e-17
1898 18 0.001 0.0291107 -0.00226999 -0.0358975 -1.8402e-14 -1.06997e-13 1.7463e-14 0 4.1773e-17
335 11 0.001 -0.0504253 -0.00142702 -0.0361616 3.70398e-14 -1.48264e-13 9.51296e-15 0 4.75176e-17
336 11 0.001 -0.0501841 -0.000493926 -0.0364247 4.06784e-14 -1.67681e-13 -8.11389e-16 0 6.43787e-17
711 12 0.001 -0.0304248 -0.00142579 -0.0361613 -4.21501e-14 -1.32498e-13 2.5232e-14 0 5.43179e-17
712 12 0.001 -0.0301839 -0.000492607 -0.0364243 9.02707e-14 -1.38475e-13 -2.3622e-14 0 7.19962e-17
1107 14 0.001 -0.0104248 -0.00142579 -0.0361613 4.30686e-16 -1.35281e-13 2.23537e-14 0 5.43179e-17
1108 14 0.001 -0.0101839 -0.000492607 -0.0364243 4.76626e-14 -1.37187e-13 -2.18665e-14 0 7.19962e-17
1503 16 0.001 0.00957524 -0.00142579 -0.0361613 1.17864e-14 -1.37028e-13 2.23586e-14 0 5.43179e-17
1504 16 0.001 0.00981608 -0.000492607 -0.0364243 2.25595e-14 -1.36401e-13 -2.12037e-14 0 7.19962e-17
1899 18 0.001 0.0295752 -0.00142579 -0.0361613 -2.3163e-14 -1.36253e-13 2.59394e-14 0 5.43179e-17
1900 18 0.001 0.0298161 -0.000492607 -0.0364243 3.6138e-14 -1.37895e-13 -2.2252e-14 0 7.19962e-17
337 11 0.001 -0.0501817 0.000469982 -0.0366871 2.97911e-14 -1.5155e-13 -4.75425e-14 0 8.5399e-17
713 12 0.001 -0.0301818 0.000471301 -0.0366868 5.03963e-14 -1.83175e-13 -2.3691e-14 0 9.39363e-17
1109 14 0.001 -0.0101818 0.000471301 -0.0366868 7.1429e-14 -1.80747e-13 -2.46863e-14 0 9.39363e-17
1505 16 0.001 0.00981818 0.000471301 -0.0366868 9.10587e-14 -1.80786e-13 -2.43715e-14 0 9.39363e-17
1901 18 0.001 0.0298182 0.000471301 -0.0366868 9.60352e-14 -1.81468e-13 -2.37362e-14 0 9.39363e-17
328 11 0.001 -0.0560571 -0.0032675 -0.034302 -1.38829e-13 1.4546e-13 -5.89671e-14 0 4.63086e-17
329 11 0.001 -0.0551845 -0.00367428 -0.0345685 -6.55995e-14 7.7634e-14 -6.37069e-14 0 3.65624e-17
330 11 0.001 -0.0542382 -0.00385187 -0.0348352 -1.61734e-13 5.40121e-14 -2.80489e-15 0 2.96488e-17
331 11 0.001 -0.0532775 -0.0037892 -0.0351017 -1.22851e-13 -1.24363e-14 2.16219e-15 0 2.58669e-17
332 11 0.001 -0.0523621 -0.00349016 -0.0353678 -1.79504e-13 -3.36604e-14 3.70264e-14 0 2.53666e-17
704 12 0.001 -0.0360559 -0.00326832 -0.0343015 -3.14204e-14 1.2107e-13 -8.59396e-14 0 5.48642e-17
705 12 0.001 -0.0351831 -0.00367477 -0.0345681 -1.67233e-13 9.18371e-14 -3.48156e-14 0 4.40528e-17
706 12 0.001 -0.0342368 -0.00385202 -0.0348348 -1.80567e-13 4.90042e-14 -1.58257e-15 0 3.6255e-17
707 12 0.001 -0.0332761 -0.003789 -0.0351013 2.76072e-14 4.41528e-15 -3.76572e-14 0 3.18633e-17
708 12 0.001 -0.0323609 -0.00348962 -0.0353674 -2.66285e-13 -4.10813e-14 6.4697e-14 0 3.10845e-17
1100 14 0.001 -0.0160559 -0.00326832 -0.0343015 -1.42341e-13 1.34782e-13 -5.88399e-14 0 5.48642e-17
1101 14 0.001 -0.0151831 -0.00367477 -0.0345681 -1.01849e-13 8.07954e-14 -5.33926e-14 0 4.40528e-17
1102 14 0.001 -0.0142368 -0.00385202 -0.0348348 -1.2827e-13 5.30254e-14 -1.37725e-14 0 3.6255e-17
1104 14 0.001 -0.0123609 -0.00348962 -0.0353674 -1.01897e-13 -3.56017e-14 2.46365e-14 0 3.10845e-17
1103 14 0.001 -0.0132761 -0.003789 -0.0351013 -1.31153e-13 5.26946e-16 2.24591e-15 0 3.18633e-17
1496 16 0.001 0.00394412 -0.00326832 -0.0343015 -1.40099e-13 1.43702e-13 -5.75864e-14 0 5.48642e-17
1497 16 0.001 0.0048169 -0.00367477 -0.0345681 -1.0126e-13 7.82841e-14 -5.34073e-14 0 4.40528e-17
1498 16 0.001 0.0057632 -0.00385202 -0.0348348 -1.18708e-13 5.23052e-14 -1.71802e-14 0 3.6255e-17
1499 16 0.001 0.00672393 -0.003789 -0.0351013 -1.31937e-13 7.33299e-16 2.86262e-15 0 3.18633e-17
1500 16 0.001 0.00763913 -0.00348962 -0.0353674 -1.08528e-13 -3.88626e-14 2.7591e-14 0 3.10845e-17
1892 18 0.001 0.0239441 -0.00326832 -0.0343015 -1.30027e-13 1.43235e-13 -5.96521e-14 0 5.48642e-17
1893 18 0.001 0.0248169 -0.00367477 -0.0345681 -9.25498e-14 7.79309e-14 -5.63921e-14 0 4.40528e-17
1894 18 0.001 0.0257632 -0.00385202 -0.0348348 -1.35667e-13 5.15332e-14 -1.13285e-14 0 3.6255e-17
1895 18 0.001 0.0267239 -0.003789 -0.0351013 -1.23589e-13 7.82456e-16 -1.04763e-15 0 3.18633e-17
1896 18 0.001 0.0276391 -0.00348962 -0.0353674 -1.22158e-13 -3.98066e-14 3.2142e-14 0 3.10845e-17
327 11 0.001 -0.0568016 -0.00265694 -0.0340357 -1.36606e-13 1.50247e-13 -8.25486e-14 0 5.81863e-17
703 12 0.001 -0.0368006 -0.00265804 -0.0340353 -2.07788e-13 1.47561e-13 -7.0345e-14 0 6.78751e-17
1099 14 0.001 -0.0168006 -0.00265804 -0.0340353 -7.96238e-14 1.58873e-13 -9.08325e-14 0 6.78751e-17