ITEM: TIMESTEP
3300000
ITEM: NUMBER OF ATOMS
1970
ITEM: BOX BOUNDS ff ff ff
-6.0000000000000005e-02 6.0000000000000005e-02
-6.0000000000000001e-03 6.0000000000000001e-03
-5.5000000000000000e-02 5.5000000000000000e-02
ITEM: ATOMS id type radius x y z fx fy fz c_bendingE c_stretchingE
384 11 0.001 -0.0508632 -0.0026244 -0.0489972 -1.94614e-12 6.24566e-14 -1.60059e-12 0 4.69282e-16
385 11 0.001 -0.0503504 -0.00182881 -0.0493168 -1.2597e-12 -1.36416e-13 -1.07884e-12 0 5.66739e-15
760 12 0.001 -0.0308632 -0.0026244 -0.0489972 -1.85054e-12 5.41412e-14 -1.61139e-12 0 4.69282e-16
761 12 0.001 -0.0303504 -0.00182881 -0.0493168 -1.3328e-12 -1.2497e-13 -1.07333e-12 0 5.66739e-15
1156 14 0.001 -0.0108632 -0.0026244 -0.0489972 -1.87078e-12 4.56459e-14 -1.6073e-12 0 4.69282e-16
1157 14 0.001 -0.0103504 -0.00182881 -0.0493168 -1.3077e-12 -1.24044e-13 -1.07565e-12 0 5.66739e-15
1552 16 0.001 0.00913683 -0.0026244 -0.0489972 -1.86738e-12 4.67618e-14 -1.60835e-12 0 4.69282e-16
1553 16 0.001 0.00964961 -0.00182881 -0.0493168 -1.30866e-12 -1.27811e-13 -1.07416e-12 0 5.66739e-15
1948 18 0.001 0.0291368 -0.0026244 -0.0489972 -1.87068e-12 5.19023e-14 -1.60948e-12 0 4.69282e-16
1949 18 0.001 0.0296496 -0.00182881 -0.0493168 -1.31063e-12 -1.30613e-13 -1.07312e-12 0 5.66739e-15
2 2 0.001 -0.05 -4.31175e-17 -0.05 -5.38397e-06 7.2129e-06 1.79509e-06 0 3.61304e-15
386 11 0.001 -0.0500567 -0.000934938 -0.0496526 -6.73596e-13 -1.27083e-13 -5.33367e-13 0 8.85263e-15
762 12 0.001 -0.0300567 -0.000934938 -0.0496526 -6.56887e-13 -1.46561e-13 -5.28968e-13 0 8.85263e-15
4 4 0.001 -0.03 -4.31175e-17 -0.05 -5.38397e-06 7.2129e-06 1.79509e-06 0 3.61304e-15
6 6 0.001 -0.01 -4.31175e-17 -0.05 -5.38397e-06 7.2129e-06 1.79509e-06 0 3.61304e-15
1158 14 0.001 -0.0100567 -0.000934938 -0.0496526 -6.68574e-13 -1.4204e-13 -5.30111e-13 0 8.85263e-15
8 8 0.001 0.01 -4.31175e-17 -0.05 -5.38397e-06 7.2129e-06 1.79509e-06 0 3.61304e-15
1554 16 0.001 0.00994326 -0.000934938 -0.0496526 -6.68568e-13 -1.40606e-13 -5.30469e-13 0 8.85263e-15
10 10 0.001 0.03 -4.31175e-17 -0.05 -5.38397e-06 7.2129e-06 1.79509e-06 0 3.61304e-15
1950 18 0.001 0.0299433 -0.000934938 -0.0496526 -6.67839e-13 -1.38935e-13 -5.31119e-13 0 8.85263e-15
378 11 0.001 -0.0561123 -0.00324209 -0.0474767 -2.46865e-12 2.68676e-12 -2.54449e-12 0 2.58289e-15
379 11 0.001 -0.0552566 -0.00370991 -0.0476934 -2.60785e-12 2.23874e-12 -2.79396e-12 0 2.38042e-15
380 11 0.001 -0.0543144 -0.00395331 -0.0479194 -2.94413e-12 1.74018e-12 -2.80344e-12 0 1.83195e-15
381 11 0.001 -0.0533447 -0.00395803 -0.0481597 -2.80041e-12 1.24609e-12 -2.72933e-12 0 1.07649e-15
382 11 0.001 -0.0524083 -0.00372505 -0.0484182 -2.68129e-12 7.66676e-13 -2.45985e-12 0 3.84605e-16
383 11 0.001 -0.0515636 -0.00327048 -0.0486972 -2.29179e-12 3.31075e-13 -2.08256e-12 0 8.91806e-17
754 12 0.001 -0.0361123 -0.00324209 -0.0474767 -2.41402e-12 2.66325e-12 -2.55656e-12 0 2.58289e-15
755 12 0.001 -0.0352566 -0.00370991 -0.0476934 -2.62374e-12 2.24011e-12 -2.79251e-12 0 2.38042e-15
756 12 0.001 -0.0343144 -0.00395331 -0.0479194 -3.00547e-12 1.74655e-12 -2.78631e-12 0 1.83194e-15
757 12 0.001 -0.0333447 -0.00395803 -0.0481597 -2.71614e-12 1.25e-12 -2.75168e-12 0 1.07649e-15
758 12 0.001 -0.0324083 -0.00372505 -0.0484182 -2.72552e-12 7.56691e-13 -2.44638e-12 0 3.84605e-16
759 12 0.001 -0.0315636 -0.00327048 -0.0486972 -2.32553e-12 3.44211e-13 -2.08202e-12 0 8.91806e-17
1151 14 0.001 -0.0152566 -0.00370991 -0.0476934 -2.71047e-12 2.24878e-12 -2.77249e-12 0 2.38042e-15
1150 14 0.001 -0.0161123 -0.00324209 -0.0474767 -2.37925e-12 2.6697e-12 -2.56266e-12 0 2.58289e-15
1152 14 0.001 -0.0143144 -0.00395331 -0.0479194 -2.86932e-12 1.73567e-12 -2.81843e-12 0 1.83194e-15
1153 14 0.001 -0.0133447 -0.00395803 -0.0481597 -2.83966e-12 1.25594e-12 -2.72307e-12 0 1.07649e-15
1154 14 0.001 -0.0124083 -0.00372505 -0.0484182 -2.66148e-12 7.45287e-13 -2.45871e-12 0 3.84605e-16
1155 14 0.001 -0.0115636 -0.00327048 -0.0486972 -2.33733e-12 3.59299e-13 -2.08216e-12 0 8.91806e-17
1546 16 0.001 0.00388772 -0.00324209 -0.0474767 -2.39942e-12 2.67358e-12 -2.5587e-12 0 2.58289e-15
1547 16 0.001 0.00474343 -0.00370991 -0.0476934 -2.69548e-12 2.24143e-12 -2.77575e-12 0 2.38042e-15
1548 16 0.001 0.0056856 -0.00395331 -0.0479194 -2.88184e-12 1.74952e-12 -2.81572e-12 0 1.83194e-15
1549 16 0.001 0.00665525 -0.00395803 -0.0481597 -2.83068e-12 1.24471e-12 -2.72445e-12 0 1.07649e-15
1550 16 0.001 0.00759169 -0.00372505 -0.0484182 -2.66876e-12 7.50288e-13 -2.45782e-12 0 3.84605e-16
1551 16 0.001 0.0084364 -0.00327048 -0.0486972 -2.33604e-12 3.5899e-13 -2.08245e-12 0 8.91806e-17
1942 18 0.001 0.0238877 -0.00324209 -0.0474767 -2.36814e-12 2.67668e-12 -2.56348e-12 0 2.58289e-15
1943 18 0.001 0.0247434 -0.00370991 -0.0476934 -2.72155e-12 2.24066e-12 -2.77125e-12 0 2.38042e-15
1944 18 0.001 0.0256856 -0.00395331 -0.0479194 -2.86384e-12 1.74494e-12 -2.8192e-12 0 1.83194e-15
1945 18 0.001 0.0266553 -0.00395803 -0.0481597 -2.85037e-12 1.2429e-12 -2.71841e-12 0 1.07649e-15
1946 18 0.001 0.0275917 -0.00372505 -0.0484182 -2.65366e-12 7.64123e-13 -2.46545e-12 0 3.84605e-16
1947 18 0.001 0.0284364 -0.00327048 -0.0486972 -2.33468e-12 3.47144e-13 -2.07871e-12 0 8.91806e-17
376 11 0.001 -0.0573596 -0.00176009 -0.04705 -1.45578e-12 3.23682e-12 -1.74018e-12 0 2.05387e-15
377 11 0.001 -0.0568281 -0.00257846 -0.047264 -1.95348e-12 3.01601e-12 -2.20566e-12 0 2.44041e-15
753 12 0.001 -0.0368281 -0.00257846 -0.047264 -1.97717e-12 3.03365e-12 -2.20048e-12 0 2.44041e-15
752 12 0.001 -0.0373596 -0.00176009 -0.04705 -1.44735e-12 3.22819e-12 -1.7403e-12 0 2.05387e-15
1149 14 0.001 -0.0168281 -0.00257846 -0.047264 -1.99891e-12 3.03055e-12 -2.19801e-12 0 2.44041e-15
1148 14 0.001 -0.0173596 -0.00176009 -0.04705 -1.44168e-12 3.22224e-12 -1.74232e-12 0 2.05387e-15
1544 16 0.001 0.00264044 -0.00176009 -0.04705 -1.44937e-12 3.22583e-12 -1.74073e-12 0 2.05387e-15
1545 16 0.001 0.00317191 -0.00257846 -0.047264 -1.97915e-12 3.02525e-12 -2.20171e-12 0 2.44041e-15
1941 18 0.001 0.0231719 -0.00257846 -0.047264 -2.00512e-12 3.02159e-12 -2.19894e-12 0 2.44041e-15
1940 18 0.001 0.0226404 -0.00176009 -0.04705 -1.43452e-12 3.22517e-12 -1.74235e-12 0 2.05387e-15
375 11 0.001 -0.057674 -0.000837788 -0.0468298 -8.67321e-13 3.27358e-12 -1.22302e-12 0 1.56242e-15
751 12 0.001 -0.037674 -0.000837788 -0.0468298 -8.77455e-13 3.27782e-12 -1.2232e-12 0 1.56242e-15
1147 14 0.001 -0.017674 -0.000837788 -0.0468298 -8.49934e-13 3.28551e-12 -1.22172e-12 0 1.56242e-15
1543 16 0.001 0.00232596 -0.000837788 -0.0468298 -8.51559e-13 3.28434e-12 -1.2221e-12 0 1.56242e-15
1939 18 0.001 0.022326 -0.000837788 -0.0468298 -8.56462e-13 3.28614e-12 -1.22147e-12 0 1.56242e-15
373 11 0.001 -0.0575912 0.00108692 -0.0463578 2.92756e-13 2.94368e-12 -2.12827e-13 0 7.07333e-16
374 11 0.001 -0.0577526 0.000131214 -0.0465999 -1.88914e-13 3.20542e-12 -6.80515e-13 0 1.08855e-15
749 12 0.001 -0.0375912 0.00108692 -0.0463578 3.41019e-13 2.95682e-12 -2.05208e-13 0 7.07333e-16
750 12 0.001 -0.0377526 0.000131214 -0.0465999 -2.07936e-13 3.20792e-12 -6.813e-13 0 1.08855e-15
1145 14 0.001 -0.0175912 0.00108692 -0.0463578 3.60394e-13 2.94031e-12 -2.071e-13 0 7.07333e-16
1146 14 0.001 -0.0177526 0.000131214 -0.0465999 -2.44908e-13 3.20725e-12 -6.82879e-13 0 1.08855e-15
1541 16 0.001 0.0024088 0.00108692 -0.0463578 3.60372e-13 2.9427e-12 -2.05263e-13 0 7.07333e-16
1542 16 0.001 0.00224738 0.000131214 -0.0465999 -2.37488e-13 3.20591e-12 -6.82845e-13 0 1.08855e-15
1937 18 0.001 0.0224088 0.00108692 -0.0463578 3.49209e-13 2.94651e-12 -2.07554e-13 0 7.07333e-16
1938 18 0.001 0.0222474 0.000131214 -0.0465999 -2.36465e-13 3.20544e-12 -6.82493e-13 0 1.08855e-15
372 11 0.001 -0.0572006 0.00197031 -0.0461028 9.85576e-13 2.57014e-12 2.00543e-13 0 4.42862e-16
748 12 0.001 -0.0372006 0.00197031 -0.0461028 9.60884e-13 2.55598e-12 1.96399e-13 0 4.42862e-16
1144 14 0.001 -0.0172006 0.00197031 -0.0461028 9.63879e-13 2.57092e-12 1.99437e-13 0 4.42862e-16
1540 16 0.001 0.00279942 0.00197031 -0.0461028 9.38409e-13 2.56945e-12 1.92797e-13 0 4.42862e-16
1936 18 0.001 0.0227994 0.00197031 -0.0461028 9.71625e-13 2.56578e-12 2.00684e-13 0 4.42862e-16
371 11 0.001 -0.0566057 0.00272701 -0.0458353 1.40703e-12 2.07919e-12 4.50499e-13 0 2.83317e-16
747 12 0.001 -0.0366057 0.00272701 -0.0458353 1.38569e-12 2.07846e-12 4.43456e-13 0 2.83317e-16
1143 14 0.001 -0.0166057 0.00272701 -0.0458353 1.37364e-12 2.07259e-12 4.41296e-13 0 2.83317e-16
1539 16 0.001 0.00339429 0.00272701 -0.0458353 1.41936e-12 2.07306e-12 4.52466e-13 0 2.83317e-16
1935 18 0.001 0.0233943 0.00272701 -0.0458353 1.37106e-12 2.07537e-12 4.39894e-13 0 2.83317e-16
370 11 0.001 -0.0558441 0.00331051 -0.045557 1.81072e-12 1.4631e-12 5.57529e-13 0 2.02232e-16
369 11 0.001 -0.0549634 0.00368503 -0.0452704 2.09207e-12 8.13638e-13 5.10686e-13 0 1.75147e-16
368 11 0.001 -0.0540186 0.00382761 -0.0449788 2.26465e-12 1.29253e-13 3.40068e-13 0 1.86538e-16
367 11 0.001 -0.0530687 0.00372958 -0.0446853 2.21187e-12 -5.68658e-13 3.00265e-14 0 2.27805e-16
745 12 0.001 -0.0349634 0.00368503 -0.0452704 2.13437e-12 8.19859e-13 5.23142e-13 0 1.75147e-16
746 12 0.001 -0.0358441 0.00331051 -0.045557 1.82322e-12 1.46247e-12 5.61074e-13 0 2.02232e-16
744 12 0.001 -0.0340186 0.00382761 -0.0449788 2.18147e-12 1.2873e-13 3.1556e-13 0 1.86538e-16
743 12 0.001 -0.0330687 0.00372958 -0.0446853 2.2681e-12 -5.786e-13 4.75863e-14 0 2.27805e-16
1142 14 0.001 -0.0158441 0.00331051 -0.045557 1.8512e-12 1.46948e-12 5.67808e-13 0 2.02232e-16
1140 14 0.001 -0.0140186 0.00382761 -0.0449788 2.21707e-12 1.30904e-13 3.24639e-13 0 1.86538e-16
1141 14 0.001 -0.0149634 0.00368503 -0.0452704 2.0915e-12 8.12572e-13 5.11783e-13 0 1.75147e-16
1139 14 0.001 -0.0130687 0.00372958 -0.0446853 2.25128e-12 -5.76869e-13 4.35385e-14 0 2.27805e-16
1538 16 0.001 0.00415592 0.00331051 -0.045557 1.80872e-12 1.46858e-12 5.56717e-13 0 2.02232e-16
1537 16 0.001 0.00503665 0.00368503 -0.0452704 2.10035e-12 8.16286e-13 5.13974e-13 0 1.75147e-16
1536 16 0.001 0.00598144 0.00382761 -0.0449788 2.23329e-12 1.19587e-13 3.29467e-13 0 1.86538e-16
1535 16 0.001 0.00693131 0.00372958 -0.0446853 2.24638e-12 -5.61886e-13 4.15006e-14 0 2.27805e-16
1933 18 0.001 0.0250366 0.00368503 -0.0452704 2.08753e-12 8.12036e-13 5.10087e-13 0 1.75147e-16
1934 18 0.001 0.0241559 0.00331051 -0.045557 1.85437e-12 1.472e-12 5.69738e-13 0 2.02232e-16
1932 18 0.001 0.0259814 0.00382761 -0.0449788 2.21428e-12 1.23743e-13 3.23624e-13 0 1.86538e-16
1931 18 0.001 0.0269313 0.00372958 -0.0446853 2.25434e-12 -5.68444e-13 4.42398e-14 0 2.27805e-16
361 11 0.001 -0.05018 -0.00063837 -0.0430065 -2.6378e-13 -2.63276e-12 -1.26477e-12 0 4.61628e-16
737 12 0.001 -0.03018 -0.00063837 -0.0430065 -2.66798e-13 -2.64189e-12 -1.26134e-12 0 4.61628e-16
1133 14 0.001 -0.01018 -0.00063837 -0.0430065 -2.49482e-13 -2.63927e-12 -1.26256e-12 0 4.61628e-16
1529 16 0.001 0.00981996 -0.00063837 -0.0430065 -2.61728e-13 -2.64131e-12 -1.26207e-12 0 4.61628e-16
1925 18 0.001 0.02982 -0.00063837 -0.0430065 -2.68187e-13 -2.63939e-12 -1.26232e-12 0 4.61628e-16
362 11 0.001 -0.0501391 0.00032388 -0.0432719 3.4969e-13 -2.66563e-12 -1.27353e-12 0 4.84896e-16
363 11 0.001 -0.0503378 0.00126465 -0.043543 8.10288e-13 -2.53401e-12 -1.1801e-12 0 4.74478e-16
738 12 0.001 -0.0301391 0.00032388 -0.0432719 3.13641e-13 -2.66781e-12 -1.27787e-12 0 4.84896e-16
739 12 0.001 -0.0303378 0.00126465 -0.043543 9.077e-13 -2.54799e-12 -1.16025e-12 0 4.74478e-16
1134 14 0.001 -0.0101391 0.00032388 -0.0432719 3.03352e-13 -2.67079e-12 -1.27727e-12 0 4.84896e-16
1135 14 0.001 -0.0103378 0.00126465 -0.043543 9.00169e-13 -2.54286e-12 -1.16315e-12 0 4.74478e-16
1530 16 0.001 0.0098609 0.00032388 -0.0432719 3.22194e-13 -2.6712e-12 -1.27637e-12 0 4.84896e-16
1531 16 0.001 0.00966221 0.00126465 -0.043543 8.88043e-13 -2.54228e-12 -1.16435e-12 0 4.74478e-16
1926 18 0.001 0.0298609 0.00032388 -0.0432719 3.25959e-13 -2.6679e-12 -1.27684e-12 0 4.84896e-16
1927 18 0.001 0.0296622 0.00126465 -0.043543 8.78778e-13 -2.54714e-12 -1.16436e-12 0 4.74478e-16
365 11 0.001 -0.0513882 0.00285087 -0.044104 1.78012e-12 -1.79513e-12 -6.51568e-13 0 3.64202e-16
364 11 0.001 -0.0507632 0.00212494 -0.0438204 1.47395e-12 -2.23964e-12 -9.3301e-13 0 4.30805e-16
740 12 0.001 -0.0307632 0.00212494 -0.0438204 1.35933e-12 -2.22416e-12 -9.59198e-13 0 4.30805e-16
741 12 0.001 -0.0313882 0.00285087 -0.044104 1.81641e-12 -1.78772e-12 -6.4476e-13 0 3.64202e-16
1136 14 0.001 -0.0107632 0.00212494 -0.0438204 1.3806e-12 -2.22684e-12 -9.54625e-13 0 4.30805e-16
1137 14 0.001 -0.0113882 0.00285087 -0.044104 1.81118e-12 -1.79213e-12 -6.4443e-13 0 3.64202e-16
1533 16 0.001 0.00861181 0.00285087 -0.044104 1.83902e-12 -1.79391e-12 -6.37592e-13 0 3.64202e-16
1532 16 0.001 0.00923679 0.00212494 -0.0438204 1.37138e-12 -2.22397e-12 -9.57388e-13 0 4.30805e-16
1928 18 0.001 0.0292368 0.00212494 -0.0438204 1.39467e-12 -2.22734e-12 -9.52502e-13 0 4.30805e-16
1929 18 0.001 0.0286118 0.00285087 -0.044104 1.80689e-12 -1.78546e-12 -6.46088e-13 0 3.64202e-16
366 11 0.001 -0.0521732 0.0033971 -0.0443929 2.09271e-12 -1.20786e-12 -2.97887e-13 0 2.91053e-16
742 12 0.001 -0.0321732 0.0033971 -0.0443929 2.09386e-12 -1.20868e-12 -2.98064e-13 0 2.91053e-16
1138 14 0.001 -0.0121732 0.0033971 -0.0443929 2.09071e-12 -1.20694e-12 -2.99774e-13 0 2.91053e-16
1534 16 0.001 0.00782683 0.0033971 -0.0443929 2.07186e-12 -1.21463e-12 -3.03918e-13 0 2.91053e-16
1930 18 0.001 0.0278268 0.0033971 -0.0443929 2.09122e-12 -1.21597e-12 -2.98669e-13 0 2.91053e-16
355 11 0.001 -0.054372 -0.00384498 -0.0414613 -1.98418e-12 2.08448e-13 -1.97274e-13 0 2.45906e-16
356 11 0.001 -0.0534074 -0.00381769 -0.0417197 -2.00704e-12 -4.21018e-13 -3.06866e-13 0 2.41015e-16
357 11 0.001 -0.0524791 -0.0035525 -0.0419764 -1.87983e-12 -1.04644e-12 -4.94797e-13 0 2.60473e-16
358 11 0.001 -0.0516449 -0.00306587 -0.0422322 -1.65088e-12 -1.58762e-12 -7.1838e-13 0 3.00665e-16
731 12 0.001 -0.034372 -0.00384498 -0.0414613 -1.97523e-12 2.01108e-13 -2.00517e-13 0 2.45906e-16
732 12 0.001 -0.0334074 -0.00381769 -0.0417197 -2.00662e-12 -4.22025e-13 -3.05103e-13 0 2.41015e-16
733 12 0.001 -0.0324791 -0.0035525 -0.0419764 -1.90537e-12 -1.0456e-12 -4.8889e-13 0 2.60473e-16
734 12 0.001 -0.0316449 -0.00306587 -0.0422322 -1.62188e-12 -1.58746e-12 -7.26125e-13 0 3.00665e-16
1127 14 0.001 -0.014372 -0.00384498 -0.0414613 -1.97122e-12 2.05232e-13 -2.01046e-13 0 2.45906e-16
1128 14 0.001 -0.0134074 -0.00381769 -0.0417197 -2.00629e-12 -4.2737e-13 -3.06451e-13 0 2.41015e-16
1129 14 0.001 -0.0124791 -0.0035525 -0.0419764 -1.89074e-12 -1.0414e-12 -4.91574e-13 0 2.60473e-16
1130 14 0.001 -0.0116449 -0.00306587 -0.0422322 -1.6423e-12 -1.59445e-12 -7.21084e-13 0 3.00665e-16
1523 16 0.001 0.00562798 -0.00384498 -0.0414613 -1.98625e-12 2.01628e-13 -1.95755e-13 0 2.45906e-16
1524 16 0.001 0.0065926 -0.00381769 -0.0417197 -1.99752e-12 -4.22391e-13 -3.09786e-13 0 2.41015e-16
1525 16 0.001 0.00752093 -0.0035525 -0.0419764 -1.88736e-12 -1.04456e-12 -4.91596e-13 0 2.60473e-16
1526 16 0.001 0.00835507 -0.00306587 -0.0422322 -1.65601e-12 -1.58922e-12 -7.19656e-13 0 3.00665e-16
1919 18 0.001 0.025628 -0.00384498 -0.0414613 -1.98453e-12 2.06084e-13 -1.96116e-13 0 2.45906e-16
1920 18 0.001 0.0265926 -0.00381769 -0.0417197 -1.98088e-12 -4.27008e-13 -3.1394e-13 0 2.41015e-16
1921 18 0.001 0.0275209 -0.0035525 -0.0419764 -1.90463e-12 -1.0407e-12 -4.88102e-13 0 2.60473e-16
1922 18 0.001 0.0283551 -0.00306587 -0.0422322 -1.63402e-12 -1.59873e-12 -7.21916e-13 0 3.00665e-16
359 11 0.001 -0.0509571 -0.00238813 -0.0424882 -1.26689e-12 -2.08296e-12 -9.54181e-13 0 3.55268e-16
360 11 0.001 -0.0504584 -0.00156169 -0.0427458 -8.11937e-13 -2.43433e-12 -1.14497e-12 0 4.13668e-16
735 12 0.001 -0.0309571 -0.00238813 -0.0424882 -1.28987e-12 -2.08196e-12 -9.49659e-13 0 3.55268e-16
736 12 0.001 -0.0304584 -0.00156169 -0.0427458 -7.90422e-13 -2.42367e-12 -1.14982e-12 0 4.13668e-16
1131 14 0.001 -0.0109571 -0.00238813 -0.0424882 -1.27885e-12 -2.07907e-12 -9.5166e-13 0 3.55268e-16
1132 14 0.001 -0.0104584 -0.00156169 -0.0427458 -8.04655e-13 -2.42433e-12 -1.14868e-12 0 4.13668e-16
1527 16 0.001 0.00904293 -0.00238813 -0.0424882 -1.25939e-12 -2.08436e-12 -9.53561e-13 0 3.55268e-16
1528 16 0.001 0.00954158 -0.00156169 -0.0427458 -8.10994e-13 -2.42104e-12 -1.14827e-12 0 4.13668e-16
1923 18 0.001 0.0290429 -0.00238813 -0.0424882 -1.28764e-12 -2.07306e-12 -9.51625e-13 0 3.55268e-16
1924 18 0.001 0.0295416 -0.00156169 -0.0427458 -7.92146e-13 -2.42718e-12 -1.14901e-12 0 4.13668e-16
353 11 0.001 -0.0561713 -0.00319452 -0.0409383 -1.58193e-12 1.38937e-12 -2.48899e-13 0 3.40135e-16
354 11 0.001 -0.0553128 -0.00363281 -0.0412008 -1.81552e-12 7.96913e-13 -1.85086e-13 0 2.78024e-16
729 12 0.001 -0.0361713 -0.00319452 -0.0409383 -1.50764e-12 1.3861e-12 -2.62608e-13 0 3.40135e-16
730 12 0.001 -0.0353128 -0.00363281 -0.0412008 -1.8419e-12 8.04227e-13 -1.79975e-13 0 2.78024e-16
1125 14 0.001 -0.0161713 -0.00319452 -0.0409383 -1.56774e-12 1.37135e-12 -2.53831e-13 0 3.40135e-16
1126 14 0.001 -0.0153128 -0.00363281 -0.0412008 -1.83118e-12 8.10859e-13 -1.81058e-13 0 2.78024e-16
1521 16 0.001 0.00382867 -0.00319452 -0.0409383 -1.55058e-12 1.36844e-12 -2.5701e-13 0 3.40135e-16
1522 16 0.001 0.00468715 -0.00363281 -0.0412008 -1.82803e-12 8.10465e-13 -1.83213e-13 0 2.78024e-16
1917 18 0.001 0.0238287 -0.00319452 -0.0409383 -1.54805e-12 1.37146e-12 -2.57458e-13 0 3.40135e-16
1918 18 0.001 0.0246872 -0.00363281 -0.0412008 -1.84557e-12 8.10425e-13 -1.78869e-13 0 2.78024e-16
351 11 0.001 -0.0574362 -0.00176152 -0.0404085 -6.69225e-13 2.24308e-12 -6.10621e-13 0 5.55939e-16
352 11 0.001 -0.0568941 -0.00255751 -0.040674 -1.15166e-12 1.83606e-12 -4.17765e-13 0 4.33598e-16
727 12 0.001 -0.0374362 -0.00176152 -0.0404085 -6.44005e-13 2.23606e-12 -6.16408e-13 0 5.55939e-16
728 12 0.001 -0.0368941 -0.00255751 -0.040674 -1.22839e-12 1.8398e-12 -4.04055e-13 0 4.33598e-16
1123 14 0.001 -0.0174362 -0.00176152 -0.0404085 -7.24721e-13 2.23892e-12 -6.05298e-13 0 5.55939e-16
1124 14 0.001 -0.0168941 -0.00255751 -0.040674 -1.12849e-12 1.84696e-12 -4.18716e-13 0 4.33598e-16
1519 16 0.001 0.00256377 -0.00176152 -0.0404085 -7.0506e-13 2.22419e-12 -6.11298e-13 0 5.55939e-16
1520 16 0.001 0.0031059 -0.00255751 -0.040674 -1.16012e-12 1.85907e-12 -4.11498e-13 0 4.33598e-16
1915 18 0.001 0.0225638 -0.00176152 -0.0404085 -7.44504e-13 2.22993e-12 -6.04839e-13 0 5.55939e-16
1916 18 0.001 0.0231059 -0.00255751 -0.040674 -1.13304e-12 1.84988e-12 -4.17439e-13 0 4.33598e-16
350 11 0.001 -0.057764 -0.000856134 -0.0401423 -2.01803e-13 2.45746e-12 -8.26882e-13 0 6.98887e-16
726 12 0.001 -0.037764 -0.000856134 -0.0401423 -2.00141e-13 2.46852e-12 -8.24513e-13 0 6.98887e-16
1122 14 0.001 -0.017764 -0.000856134 -0.0401423 -1.74939e-13 2.46609e-12 -8.275e-13 0 6.98887e-16
1518 16 0.001 0.00223599 -0.000856134 -0.0401423 -1.60493e-13 2.47503e-12 -8.25197e-13 0 6.98887e-16
1914 18 0.001 0.022236 -0.000856134 -0.0401423 -1.33736e-13 2.47411e-12 -8.28477e-13 0 6.98887e-16
348 11 0.001 -0.0577096 0.00105383 -0.0396101 9.40803e-13 2.52537e-12 -1.14159e-12 0 9.86503e-16
349 11 0.001 -0.0578571 0.000102228 -0.039876 4.06594e-13 2.564e-12 -1.0179e-12 0 8.48298e-16
724 12 0.001 -0.0377096 0.00105383 -0.0396101 9.25139e-13 2.51809e-12 -1.14648e-12 0 9.86503e-16
725 12 0.001 -0.0378571 0.000102228 -0.039876 4.16256e-13 2.56426e-12 -1.01599e-12 0 8.48298e-16
1120 14 0.001 -0.0177096 0.00105383 -0.0396101 8.93398e-13 2.51551e-12 -1.14925e-12 0 9.86503e-16
1121 14 0.001 -0.0178571 0.000102228 -0.039876 4.27471e-13 2.56681e-12 -1.0151e-12 0 8.48298e-16
1516 16 0.001 0.00229044 0.00105383 -0.0396101 9.38318e-13 2.50582e-12 -1.14822e-12 0 9.86503e-16
1517 16 0.001 0.00214295 0.000102228 -0.039876 3.87139e-13 2.56853e-12 -1.01563e-12 0 8.48298e-16
1912 18 0.001 0.0222904 0.00105383 -0.0396101 9.29293e-13 2.51306e-12 -1.14851e-12 0 9.86503e-16
1913 18 0.001 0.0221429 0.000102228 -0.039876 3.7815e-13 2.56443e-12 -1.01546e-12 0 8.48298e-16
347 11 0.001 -0.0573307 0.00193933 -0.0393448 1.42826e-12 2.29627e-12 -1.20318e-12 0 1.09639e-15
346 11 0.001 -0.056744 0.00270345 -0.0390803 1.83627e-12 1.94378e-12 -1.16846e-12 0 1.16568e-15
722 12 0.001 -0.036744 0.00270345 -0.0390803 1.82232e-12 1.96496e-12 -1.16866e-12 0 1.16568e-15
723 12 0.001 -0.0373307 0.00193933 -0.0393448 1.44128e-12 2.29088e-12 -1.20036e-12 0 1.09639e-15
1118 14 0.001 -0.016744 0.00270345 -0.0390803 1.86902e-12 1.96612e-12 -1.15716e-12 0 1.16568e-15
1119 14 0.001 -0.0173307 0.00193933 -0.0393448 1.45901e-12 2.29016e-12 -1.20029e-12 0 1.09639e-15
1515 16 0.001 0.00266932 0.00193933 -0.0393448 1.43397e-12 2.3002e-12 -1.20069e-12 0 1.09639e-15
1514 16 0.001 0.00325598 0.00270345 -0.0390803 1.85383e-12 1.95789e-12 -1.16228e-12 0 1.16568e-15
1910 18 0.001 0.023256 0.00270345 -0.0390803 1.86842e-12 1.96568e-12 -1.15819e-12 0 1.16568e-15
1911 18 0.001 0.0226693 0.00193933 -0.0393448 1.45163e-12 2.29686e-12 -1.19833e-12 0 1.09639e-15
345 11 0.001 -0.0559862 0.00329848 -0.0388165 2.19941e-12 1.5297e-12 -1.03055e-12 0 1.1899e-15
344 11 0.001 -0.0551044 0.00368723 -0.0385531 2.27955e-12 9.74076e-13 -8.74067e-13 0 1.17283e-15
720 12 0.001 -0.0351044 0.00368723 -0.0385531 2.28845e-12 9.87694e-13 -8.71461e-13 0 1.17283e-15
721 12 0.001 -0.0359862 0.00329848 -0.0388165 2.20155e-12 1.50419e-12 -1.03346e-12 0 1.1899e-15
1117 14 0.001 -0.0159862 0.00329848 -0.0388165 2.12403e-12 1.51064e-12 -1.05058e-12 0 1.1899e-15
1116 14 0.001 -0.0151044 0.00368723 -0.0385531 2.33148e-12 9.82188e-13 -8.6057e-13 0 1.17283e-15
1513 16 0.001 0.00401383 0.00329848 -0.0388165 2.15014e-12 1.50828e-12 -1.04548e-12 0 1.1899e-15
1512 16 0.001 0.0048956 0.00368723 -0.0385531 2.32998e-12 9.86791e-13 -8.59515e-13 0 1.17283e-15
1908 18 0.001 0.0248956 0.00368723 -0.0385531 2.34343e-12 9.8411e-13 -8.58047e-13 0 1.17283e-15
1909 18 0.001 0.0240138 0.00329848 -0.0388165 2.11162e-12 1.50147e-12 -1.05397e-12 0 1.1899e-15
338 11 0.001 -0.0503884 0.001345 -0.0369671 7.03789e-13 -1.76683e-12 -1.438e-13 0 8.61088e-16
714 12 0.001 -0.0303884 0.001345 -0.0369671 6.15385e-13 -1.75617e-12 -1.55382e-13 0 8.61087e-16
1110 14 0.001 -0.0103884 0.001345 -0.0369671 6.75405e-13 -1.74587e-12 -1.52001e-13 0 8.61087e-16
1506 16 0.001 0.0096116 0.001345 -0.0369671 6.88336e-13 -1.74571e-12 -1.51008e-13 0 8.61087e-16
1902 18 0.001 0.0296116 0.001345 -0.0369671 6.59407e-13 -1.75392e-12 -1.52288e-13 0 8.61087e-16
340 11 0.001 -0.0514814 0.00291265 -0.0374981 1.63581e-12 -1.11752e-12 -1.4643e-13 0 9.30169e-16
339 11 0.001 -0.0508362 0.00219756 -0.0372329 1.16162e-12 -1.48117e-12 -1.144e-13 0 8.85447e-16
715 12 0.001 -0.0308362 0.00219756 -0.0372329 1.2318e-12 -1.48746e-12 -1.03261e-13 0 8.85447e-16
716 12 0.001 -0.0314814 0.00291265 -0.0374981 1.63619e-12 -1.12678e-12 -1.41719e-13 0 9.30169e-16
1111 14 0.001 -0.0108362 0.00219756 -0.0372329 1.17708e-12 -1.50143e-12 -1.07375e-13 0 8.85447e-16
1112 14 0.001 -0.0114814 0.00291265 -0.0374981 1.65472e-12 -1.11033e-12 -1.42275e-13 0 9.30169e-16
1508 16 0.001 0.00851858 0.00291265 -0.0374981 1.64064e-12 -1.11292e-12 -1.44987e-13 0 9.30169e-16
1507 16 0.001 0.00916384 0.00219756 -0.0372329 1.17399e-12 -1.49961e-12 -1.0772e-13 0 8.85447e-16
1903 18 0.001 0.0291638 0.00219756 -0.0372329 1.21732e-12 -1.49272e-12 -1.0274e-13 0 8.85447e-16
1904 18 0.001 0.0285186 0.00291265 -0.0374981 1.60841e-12 -1.11629e-12 -1.50325e-13 0 9.30169e-16
343 11 0.001 -0.0541538 0.00384541 -0.0382898 2.33825e-12 4.36049e-13 -6.52653e-13 0 1.12482e-15
342 11 0.001 -0.0531936 0.00376315 -0.0380264 2.22686e-12 -1.44709e-13 -4.36939e-13 0 1.05956e-15
341 11 0.001 -0.0522839 0.00344562 -0.0377626 2.01791e-12 -6.47535e-13 -2.5489e-13 0 9.9086e-16
719 12 0.001 -0.0341538 0.00384541 -0.0382898 2.33277e-12 4.26466e-13 -6.51993e-13 0 1.12482e-15
718 12 0.001 -0.0331936 0.00376315 -0.0380264 2.25897e-12 -1.31694e-13 -4.31089e-13 0 1.05956e-15
717 12 0.001 -0.0322839 0.00344562 -0.0377626 1.96177e-12 -6.45932e-13 -2.69946e-13 0 9.9086e-16
1115 14 0.001 -0.0141538 0.00384541 -0.0382898 2.3335e-12 4.24226e-13 -6.5376e-13 0 1.12482e-15
1113 14 0.001 -0.0122839 0.00344562 -0.0377626 1.96429e-12 -6.53486e-13 -2.68475e-13 0 9.9086e-16
1114 14 0.001 -0.0131936 0.00376315 -0.0380264 2.24747e-12 -1.29665e-13 -4.32459e-13 0 1.05956e-15
1511 16 0.001 0.00584623 0.00384541 -0.0382898 2.32485e-12 4.29082e-13 -6.56058e-13 0 1.12482e-15
1510 16 0.001 0.00680636 0.00376315 -0.0380264 2.24299e-12 -1.35335e-13 -4.33576e-13 0 1.05956e-15
1509 16 0.001 0.00771607 0.00344562 -0.0377626 1.98325e-12 -6.50375e-13 -2.64287e-13 0 9.9086e-16
1907 18 0.001 0.0258462 0.00384541 -0.0382898 2.33504e-12 4.29007e-13 -6.51453e-13 0 1.12482e-15
1906 18 0.001 0.0268064 0.00376315 -0.0380264 2.2341e-12 -1.29122e-13 -4.37775e-13 0 1.05956e-15
1905 18 0.001 0.0277161 0.00344562 -0.0377626 1.99475e-12 -6.53887e-13 -2.60816e-13 0 9.9086e-16
333 11 0.001 -0.051585 -0.00301076 -0.0356347 -1.83905e-12 -1.26348e-12 -8.73477e-13 0 1.01885e-15
709 12 0.001 -0.031585 -0.00301076 -0.0356347 -1.84138e-12 -1.26029e-12 -8.6877e-13 0 1.01885e-15
1105 14 0.001 -0.011585 -0.00301076 -0.0356347 -1.81494e-12 -1.25699e-12 -8.75625e-13 0 1.01885e-15
1501 16 0.001 0.00841505 -0.00301076 -0.0356347 -1.80516e-12 -1.26108e-12 -8.76485e-13 0 1.01885e-15
1897 18 0.001 0.028415 -0.00301076 -0.0356347 -1.826e-12 -1.27183e-12 -8.68925e-13 0 1.01885e-15
334 11 0.001 -0.0509152 -0.00231896 -0.0359009 -1.38468e-12 -1.60079e-12 -7.57204e-13 0 9.61413e-16
710 12 0.001 -0.0309152 -0.00231896 -0.0359009 -1.43205e-12 -1.60785e-12 -7.51292e-13 0 9.61413e-16
1106 14 0.001 -0.0109152 -0.00231896 -0.0359009 -1.42125e-12 -1.60799e-12 -7.51902e-13 0 9.61413e-16
1502 16 0.001 0.00908482 -0.00231896 -0.0359009 -1.44279e-12 -1.6047e-12 -7.492e-13 0 9.61413e-16
1898 18 0.001 0.0290848 -0.00231896 -0.0359009 -1.47217e-12 -1.60188e-12 -7.45943e-13 0 9.61413e-16
335 11 0.001 -0.0504379 -0.0014828 -0.0361674 -9.83299e-13 -1.83342e-12 -5.81791e-13 0 9.12209e-16
336 11 0.001 -0.0501829 -0.000554441 -0.0364341 -4.09902e-13 -1.93207e-12 -4.12603e-13 0 8.76448e-16
711 12 0.001 -0.0304379 -0.0014828 -0.0361674 -9.3616e-13 -1.83357e-12 -5.84938e-13 0 9.12209e-16
712 12 0.001 -0.0301829 -0.000554441 -0.0364341 -4.57877e-13 -1.93858e-12 -4.10686e-13 0 8.76447e-16
1107 14 0.001 -0.0104379 -0.0014828 -0.0361674 -9.75568e-13 -1.83136e-12 -5.81352e-13 0 9.12209e-16
1108 14 0.001 -0.0101829 -0.000554441 -0.0364341 -4.22936e-13 -1.94576e-12 -4.10702e-13 0 8.76447e-16
1503 16 0.001 0.0095621 -0.0014828 -0.0361674 -9.61785e-13 -1.83169e-12 -5.83425e-13 0 9.12209e-16
1504 16 0.001 0.00981712 -0.000554441 -0.0364341 -4.19727e-13 -1.94535e-12 -4.10548e-13 0 8.76447e-16
1899 18 0.001 0.0295621 -0.0014828 -0.0361674 -9.13439e-13 -1.83735e-12 -5.87764e-13 0 9.12209e-16
1900 18 0.001 0.0298171 -0.000554441 -0.0364341 -4.53201e-13 -1.93763e-12 -4.09769e-13 0 8.76447e-16
337 11 0.001 -0.050166 0.000408177 -0.0367008 1.00432e-13 -1.91609e-12 -2.57001e-13 0 8.58438e-16
713 12 0.001 -0.030166 0.000408177 -0.0367008 1.72144e-13 -1.90967e-12 -2.5512e-13 0 8.58438e-16
1109 14 0.001 -0.010166 0.000408177 -0.0367008 1.31987e-13 -1.9133e-12 -2.55806e-13 0 8.58438e-16
1505 16 0.001 0.00983398 0.000408177 -0.0367008 1.20563e-13 -1.91386e-12 -2.56115e-13 0 8.58438e-16
1901 18 0.001 0.029834 0.000408177 -0.0367008 1.38839e-13 -1.91233e-12 -2.56463e-13 0 8.58438e-16
328 11 0.001 -0.056099 -0.00323704 -0.0343112 -1.8838e-12 1.00118e-12 -6.5803e-13 0 1.27076e-15
329 11 0.001 -0.0552317 -0.00365672 -0.034575 -2.0925e-12 6.03751e-13 -7.96944e-13 0 1.23404e-15
330 11 0.001 -0.0542875 -0.0038484 -0.0348392 -2.24564e-12 1.00701e-13 -8.92335e-13 0 1.18947e-15
331 11 0.001 -0.0533254 -0.00380014 -0.0351039 -2.20392e-12 -3.69851e-13 -9.61884e-13 0 1.13717e-15
332 11 0.001 -0.0524054 -0.00351498 -0.035369 -2.11037e-12 -8.55546e-13 -9.36763e-13 0 1.07908e-15
704 12 0.001 -0.036099 -0.00323704 -0.0343112 -1.85141e-12 1.02148e-12 -6.6331e-13 0 1.27076e-15
705 12 0.001 -0.0352317 -0.00365672 -0.034575 -2.16214e-12 5.77995e-13 -7.79534e-13 0 1.23404e-15
706 12 0.001 -0.0342875 -0.0038484 -0.0348392 -2.14952e-12 1.23827e-13 -9.19923e-13 0 1.18947e-15
707 12 0.001 -0.0333254 -0.00380014 -0.0351039 -2.28436e-12 -3.81142e-13 -9.37396e-13 0 1.13717e-15
708 12 0.001 -0.0324054 -0.00351498 -0.035369 -2.0555e-12 -8.54087e-13 -9.54208e-13 0 1.07908e-15
1100 14 0.001 -0.016099 -0.00323704 -0.0343112 -1.86582e-12 1.01851e-12 -6.58356e-13 0 1.27076e-15
1101 14 0.001 -0.0152317 -0.00365672 -0.034575 -2.07883e-12 5.85795e-13 -7.99709e-13 0 1.23404e-15
1102 14 0.001 -0.0142875 -0.0038484 -0.0348392 -2.22251e-12 1.16807e-13 -9.01505e-13 0 1.18947e-15
1104 14 0.001 -0.0124054 -0.00351498 -0.035369 -2.08449e-12 -8.5286e-13 -9.46936e-13 0 1.07908e-15
1103 14 0.001 -0.0133254 -0.00380014 -0.0351039 -2.24732e-12 -3.80276e-13 -9.47182e-13 0 1.13717e-15
1496 16 0.001 0.00390095 -0.00323704 -0.0343112 -1.84716e-12 1.01449e-12 -6.64582e-13 0 1.27076e-15
1497 16 0.001 0.00476827 -0.00365672 -0.034575 -2.10491e-12 5.8566e-13 -7.9315e-13 0 1.23404e-15
1498 16 0.001 0.00571245 -0.0038484 -0.0348392 -2.21782e-12 1.18896e-13 -9.02519e-13 0 1.18947e-15
1499 16 0.001 0.00667457 -0.00380014 -0.0351039 -2.24497e-12 -3.80957e-13 -9.47777e-13 0 1.13717e-15
1500 16 0.001 0.00759457 -0.00351498 -0.035369 -2.08673e-12 -8.51894e-13 -9.46538e-13 0 1.07908e-15
1892 18 0.001 0.023901 -0.00323704 -0.0343112 -1.83584e-12 1.0235e-12 -6.64624e-13 0 1.27076e-15
1893 18 0.001 0.0247683 -0.00365672 -0.034575 -2.09848e-12 5.79402e-13 -7.96323e-13 0 1.23404e-15
1894 18 0.001 0.0257125 -0.0038484 -0.0348392 -2.23991e-12 1.20348e-13 -8.95994e-13 0 1.18947e-15
1895 18 0.001 0.0266746 -0.00380014 -0.0351039 -2.23043e-12 -3.80464e-13 -9.51529e-13 0 1.13717e-15
1896 18 0.001 0.0275946 -0.00351498 -0.035369 -2.05866e-12 -8.43407e-13 -9.55141e-13 0 1.07908e-15
327 11 0.001 -0.0568354 -0.00261554 -0.0340474 -1.43365e-12 1.37455e-12 -5.37087e-13 0 1.30109e-15
703 12 0.001 -0.0368354 -0.00261554 -0.0340474 -1.43873e-12 1.35934e-12 -5.39063e-13 0 1.30109e-15
1099 14 0.001 -0.0168354 -0.00261554 -0.0340474 -1.509e-12 1.35694e-12 -5.28635e-13 0 1.30109e-15