ITEM: TIMESTEP
9300000
ITEM: NUMBER OF ATOMS
1970
ITEM: BOX BOUNDS ff ff ff
-6.0000000000000005e-02 6.0000000000000005e-02
-6.0000000000000001e-03 6.0000000000000001e-03
-5.5000000000000000e-02 5.5000000000000000e-02
ITEM: ATOMS id type radius x y z fx fy fz c_bendingE c_stretchingE
384 11 0.001 -0.0508093 -0.00264263 -0.0490002 -8.47103e-14 2.66642e-14 1.5868e-15 0 1.6443e-17
385 11 0.001 -0.0503132 -0.00183779 -0.0493228 -1.53495e-13 5.54899e-14 1.47494e-14 0 1.00773e-14
760 12 0.001 -0.0308083 -0.00264252 -0.0489991 -1.25039e-13 3.70481e-14 6.58226e-15 0 1.55788e-17
761 12 0.001 -0.0303125 -0.00183763 -0.049322 -1.14712e-13 1.65012e-14 1.85753e-14 0 9.94887e-15
1156 14 0.001 -0.0108083 -0.00264252 -0.0489991 -1.47374e-13 3.35236e-14 9.69125e-15 0 1.55788e-17
1157 14 0.001 -0.0103125 -0.00183763 -0.049322 -8.73862e-14 1.73457e-14 1.57554e-14 0 9.94887e-15
1552 16 0.001 0.00919166 -0.00264252 -0.0489991 -1.41681e-13 3.22394e-14 9.35476e-15 0 1.55788e-17
1553 16 0.001 0.00968752 -0.00183763 -0.049322 -9.26533e-14 1.83332e-14 1.61879e-14 0 9.94887e-15
1948 18 0.001 0.0291917 -0.00264252 -0.0489991 -1.43756e-13 3.37614e-14 9.21777e-15 0 1.55788e-17
1949 18 0.001 0.0296875 -0.00183763 -0.049322 -9.3714e-14 1.56042e-14 1.69068e-14 0 9.94887e-15
2 2 0.001 -0.05 -4.31175e-17 -0.05 -2.10477e-06 2.23888e-06 1.82145e-06 0 9.16991e-15
386 11 0.001 -0.0500378 -0.000937764 -0.0496577 -3.75276e-15 -6.54291e-15 1.46935e-14 0 1.92451e-14
762 12 0.001 -0.0300374 -0.000937631 -0.0496573 -3.88643e-14 7.36149e-15 1.37939e-14 0 1.89696e-14
4 4 0.001 -0.03 -4.31175e-17 -0.05 -2.1506e-06 2.33534e-06 1.80401e-06 0 9.02459e-15
6 6 0.001 -0.01 -4.31175e-17 -0.05 -2.1506e-06 2.33534e-06 1.80401e-06 0 9.02459e-15
1158 14 0.001 -0.0100374 -0.000937631 -0.0496573 -5.03903e-14 7.85766e-15 1.44852e-14 0 1.89696e-14
8 8 0.001 0.01 -4.31175e-17 -0.05 -2.1506e-06 2.33534e-06 1.80401e-06 0 9.02459e-15
1554 16 0.001 0.00996258 -0.000937631 -0.0496573 -5.17788e-14 6.67795e-15 1.47538e-14 0 1.89696e-14
10 10 0.001 0.03 -4.31175e-17 -0.05 -2.1506e-06 2.33534e-06 1.80401e-06 0 9.02459e-15
1950 18 0.001 0.0299626 -0.000937631 -0.0496573 -4.77793e-14 8.80595e-15 1.39069e-14 0 1.89696e-14
379 11 0.001 -0.0551697 -0.00380193 -0.0476502 -1.95019e-13 2.23629e-13 -1.4723e-13 0 6.75129e-16
380 11 0.001 -0.0542257 -0.00402948 -0.0478851 -2.31807e-13 1.79217e-13 -1.15871e-13 0 5.85253e-16
381 11 0.001 -0.0532588 -0.00401795 -0.048136 -2.11244e-13 1.49694e-13 -7.8805e-14 0 4.25996e-16
382 11 0.001 -0.0523294 -0.00376935 -0.0484052 -1.93296e-13 1.08406e-13 -5.3978e-14 0 2.42487e-16
383 11 0.001 -0.0514956 -0.00330066 -0.0486936 -2.15412e-13 6.34771e-14 -1.0205e-15 0 9.00508e-17
755 12 0.001 -0.0351683 -0.00380301 -0.0476488 -2.33904e-13 2.43499e-13 -1.37279e-13 0 6.8807e-16
756 12 0.001 -0.0342242 -0.00403028 -0.0478836 -2.15227e-13 1.62636e-13 -1.16044e-13 0 5.91457e-16
757 12 0.001 -0.0332573 -0.00401847 -0.0481345 -2.08195e-13 1.47322e-13 -8.11333e-14 0 4.25176e-16
758 12 0.001 -0.032328 -0.00376962 -0.0484038 -2.18458e-13 1.06682e-13 -4.48941e-14 0 2.36684e-16
759 12 0.001 -0.0314944 -0.00330071 -0.0486923 -1.51016e-13 8.1459e-14 -2.48698e-14 0 8.36907e-17
1151 14 0.001 -0.0151683 -0.00380301 -0.0476488 -2.16542e-13 2.237e-13 -1.40839e-13 0 6.8807e-16
1152 14 0.001 -0.0142242 -0.00403028 -0.0478836 -2.22027e-13 1.717e-13 -1.17934e-13 0 5.91457e-16
1153 14 0.001 -0.0132573 -0.00401847 -0.0481345 -2.33221e-13 1.37918e-13 -7.09616e-14 0 4.25176e-16
1154 14 0.001 -0.012328 -0.00376962 -0.0484038 -1.80824e-13 1.1783e-13 -5.80494e-14 0 2.36684e-16
1155 14 0.001 -0.0114944 -0.00330071 -0.0486923 -1.6589e-13 7.56285e-14 -1.83917e-14 0 8.36907e-17
1547 16 0.001 0.00483175 -0.00380301 -0.0476488 -2.26009e-13 2.19841e-13 -1.40359e-13 0 6.8807e-16
1548 16 0.001 0.0057758 -0.00403028 -0.0478836 -2.25701e-13 1.69255e-13 -1.1448e-13 0 5.91457e-16
1549 16 0.001 0.00674272 -0.00401847 -0.0481345 -2.23904e-13 1.45886e-13 -7.53611e-14 0 4.25176e-16
1550 16 0.001 0.00767201 -0.00376962 -0.0484038 -1.90751e-13 1.13035e-13 -5.45807e-14 0 2.36684e-16
1551 16 0.001 0.00850563 -0.00330071 -0.0486923 -1.61031e-13 7.87605e-14 -2.03836e-14 0 8.36907e-17
1943 18 0.001 0.0248317 -0.00380301 -0.0476488 -2.44961e-13 2.17794e-13 -1.34832e-13 0 6.8807e-16
1944 18 0.001 0.0257758 -0.00403028 -0.0478836 -2.00952e-13 1.767e-13 -1.22337e-13 0 5.91457e-16
1945 18 0.001 0.0267427 -0.00401847 -0.0481345 -2.34166e-13 1.38119e-13 -7.13128e-14 0 4.25176e-16
1946 18 0.001 0.027672 -0.00376962 -0.0484038 -1.90072e-13 1.14557e-13 -5.50138e-14 0 2.36684e-16
1947 18 0.001 0.0285056 -0.00330071 -0.0486923 -1.61236e-13 7.90962e-14 -2.03845e-14 0 8.36907e-17
378 11 0.001 -0.0560316 -0.00334842 -0.0474278 -2.53896e-13 2.58099e-13 -1.4908e-13 0 6.73963e-16
754 12 0.001 -0.0360303 -0.00334976 -0.0474266 -2.29349e-13 2.233e-13 -1.54703e-13 0 6.91661e-16
1150 14 0.001 -0.0160303 -0.00334976 -0.0474266 -2.16903e-13 2.48388e-13 -1.55481e-13 0 6.91661e-16
1546 16 0.001 0.00396965 -0.00334976 -0.0474266 -2.02391e-13 2.5068e-13 -1.57509e-13 0 6.91661e-16
1942 18 0.001 0.0239697 -0.00334976 -0.0474266 -2.01271e-13 2.5251e-13 -1.5821e-13 0 6.91661e-16
376 11 0.001 -0.0573024 -0.00188602 -0.0470028 -1.12609e-13 2.99932e-13 -1.5563e-13 0 4.46411e-16
377 11 0.001 -0.0567576 -0.00269643 -0.0472137 -1.93274e-13 2.71782e-13 -1.66747e-13 0 5.88035e-16
753 12 0.001 -0.0367566 -0.00269798 -0.0472126 -1.72946e-13 2.93239e-13 -1.63786e-13 0 6.07713e-16
752 12 0.001 -0.0373017 -0.00188771 -0.047002 -1.2594e-13 2.75845e-13 -1.54605e-13 0 4.65317e-16
1149 14 0.001 -0.0167566 -0.00269798 -0.0472126 -1.60415e-13 2.7109e-13 -1.6606e-13 0 6.07713e-16
1148 14 0.001 -0.0173017 -0.00188771 -0.047002 -2.00121e-13 2.95711e-13 -1.46053e-13 0 4.65317e-16
1544 16 0.001 0.00269834 -0.00188771 -0.047002 -1.49017e-13 2.98411e-13 -1.49411e-13 0 4.65317e-16
1545 16 0.001 0.00324343 -0.00269798 -0.0472126 -1.89915e-13 2.70834e-13 -1.62941e-13 0 6.07713e-16
1941 18 0.001 0.0232434 -0.00269798 -0.0472126 -1.7345e-13 2.69225e-13 -1.64985e-13 0 6.07713e-16
1940 18 0.001 0.0226983 -0.00188771 -0.047002 -1.7459e-13 2.96142e-13 -1.47461e-13 0 4.65317e-16
375 11 0.001 -0.0576322 -0.000967234 -0.0467906 -1.61885e-13 3.07619e-13 -1.23584e-13 0 2.88873e-16
751 12 0.001 -0.0376318 -0.000968999 -0.04679 -1.61798e-13 3.20754e-13 -1.21386e-13 0 3.04857e-16
1147 14 0.001 -0.0176318 -0.000968999 -0.04679 -6.75684e-14 3.10639e-13 -1.24984e-13 0 3.04857e-16
1543 16 0.001 0.00236815 -0.000968999 -0.04679 -1.18015e-13 3.05838e-13 -1.24659e-13 0 3.04857e-16
1939 18 0.001 0.0223682 -0.000968999 -0.04679 -9.87096e-14 3.10227e-13 -1.24864e-13 0 3.04857e-16
373 11 0.001 -0.0575814 0.000964925 -0.0463453 -3.67338e-14 2.74783e-13 -4.19425e-14 0 5.82729e-17
374 11 0.001 -0.057727 3.0774e-06 -0.0465726 -6.28854e-14 3.02524e-13 -9.25261e-14 0 1.51962e-16
749 12 0.001 -0.0375818 0.000963261 -0.046345 -1.30795e-13 2.62932e-13 -5.75446e-14 0 6.54514e-17
750 12 0.001 -0.037727 1.32153e-06 -0.0465721 -1.73009e-14 2.87028e-13 -8.60778e-14 0 1.63743e-16
1145 14 0.001 -0.0175818 0.000963261 -0.046345 -1.3933e-14 2.79846e-13 -3.87537e-14 0 6.54514e-17
1146 14 0.001 -0.017727 1.32153e-06 -0.0465721 -1.27062e-13 2.90913e-13 -9.24814e-14 0 1.63743e-16
1541 16 0.001 0.00241825 0.000963261 -0.046345 -4.29362e-14 2.68353e-13 -4.54664e-14 0 6.54514e-17
1542 16 0.001 0.00227301 1.32153e-06 -0.0465721 -8.7214e-14 2.94167e-13 -8.96297e-14 0 1.63743e-16
1937 18 0.001 0.0224182 0.000963261 -0.046345 -3.97788e-14 2.75771e-13 -4.12828e-14 0 6.54514e-17
1938 18 0.001 0.022273 1.32153e-06 -0.0465721 -9.23518e-14 2.91225e-13 -9.04839e-14 0 1.63743e-16
372 11 0.001 -0.0572051 0.00185895 -0.0461062 -1.77393e-14 2.71148e-13 7.08643e-15 0 1.22747e-17
748 12 0.001 -0.0372058 0.00185746 -0.046106 3.41932e-14 2.75194e-13 1.33371e-14 0 1.51876e-17
1144 14 0.001 -0.0172058 0.00185746 -0.046106 -1.61162e-14 2.5064e-13 -3.04206e-16 0 1.51876e-17
1540 16 0.001 0.00279417 0.00185746 -0.046106 6.50608e-15 2.67028e-13 8.51668e-15 0 1.51876e-17
1936 18 0.001 0.0227942 0.00185746 -0.046106 -3.0859e-14 2.49647e-13 -5.19654e-15 0 1.51876e-17
371 11 0.001 -0.0566223 0.00263013 -0.045854 1.44246e-14 1.96127e-13 4.73418e-14 0 3.10441e-18
747 12 0.001 -0.0366233 0.00262889 -0.045854 8.72345e-14 2.11868e-13 6.73306e-14 0 2.61179e-18
1143 14 0.001 -0.0166233 0.00262889 -0.045854 3.50957e-14 2.14018e-13 5.65816e-14 0 2.61179e-18
1539 16 0.001 0.00337673 0.00262889 -0.045854 -3.76064e-15 2.02369e-13 4.41782e-14 0 2.61179e-18
1935 18 0.001 0.0233767 0.00262889 -0.045854 7.4019e-14 2.16452e-13 6.5831e-14 0 2.61179e-18
370 11 0.001 -0.0558697 0.00323115 -0.0455888 -1.21028e-14 1.88755e-13 7.47568e-14 0 1.2159e-17
369 11 0.001 -0.0549946 0.00362529 -0.0453115 9.87168e-14 1.13271e-13 1.29058e-13 0 2.19148e-17
368 11 0.001 -0.0540518 0.00378863 -0.0450242 1.40272e-13 7.53752e-14 1.49492e-13 0 2.25163e-17
367 11 0.001 -0.0531003 0.00371152 -0.0447297 -7.09692e-14 3.20645e-14 7.61789e-14 0 1.40262e-17
745 12 0.001 -0.034996 0.00362471 -0.0453115 -6.06418e-14 1.07684e-13 7.63626e-14 0 1.81659e-17
746 12 0.001 -0.0358709 0.00323022 -0.0455888 -2.04294e-15 1.83336e-13 7.86634e-14 0 9.41755e-18
744 12 0.001 -0.0340533 0.00378844 -0.0450242 1.81836e-13 5.62458e-14 1.58636e-13 0 1.88995e-17
743 12 0.001 -0.0331018 0.00371172 -0.0447296 3.88253e-14 3.436e-14 1.08845e-13 0 1.14286e-17
1142 14 0.001 -0.0158709 0.00323022 -0.0455888 1.52441e-14 1.74081e-13 8.05648e-14 0 9.41755e-18
1140 14 0.001 -0.0140533 0.00378844 -0.0450242 7.53055e-14 5.85711e-14 1.27256e-13 0 1.88995e-17
1141 14 0.001 -0.014996 0.00362471 -0.0453115 4.63442e-14 1.22744e-13 1.08814e-13 0 1.81659e-17
1139 14 0.001 -0.0131018 0.00371172 -0.0447296 3.61569e-14 3.32368e-14 1.08316e-13 0 1.14286e-17
1538 16 0.001 0.00412911 0.00323022 -0.0455888 5.53471e-14 1.75972e-13 9.16418e-14 0 9.41755e-18
1537 16 0.001 0.00500405 0.00362471 -0.0453115 4.25808e-14 1.25766e-13 1.08302e-13 0 1.81659e-17
1536 16 0.001 0.00594673 0.00378844 -0.0450242 6.80403e-14 5.85903e-14 1.25166e-13 0 1.88995e-17
1535 16 0.001 0.00689823 0.00371172 -0.0447296 3.78357e-14 3.6336e-14 1.08287e-13 0 1.14286e-17
1933 18 0.001 0.025004 0.00362471 -0.0453115 7.90516e-14 1.20961e-13 1.15868e-13 0 1.81659e-17
1934 18 0.001 0.0241291 0.00323022 -0.0455888 -5.27908e-15 1.80209e-13 7.73947e-14 0 9.41755e-18
1932 18 0.001 0.0259467 0.00378844 -0.0450242 9.54002e-15 5.55321e-14 1.09799e-13 0 1.88995e-17
1931 18 0.001 0.0268982 0.00371172 -0.0447296 8.71817e-14 3.2393e-14 1.22367e-13 0 1.14286e-17
361 11 0.001 -0.0501422 -0.000578748 -0.0429747 -2.13939e-13 -2.01439e-13 -1.22784e-13 0 1.24565e-16
737 12 0.001 -0.030142 -0.000577301 -0.0429743 -1.03892e-13 -1.95999e-13 -1.21365e-13 0 1.28771e-16
1133 14 0.001 -0.010142 -0.000577301 -0.0429743 -9.12509e-14 -2.04603e-13 -1.1851e-13 0 1.28771e-16
1529 16 0.001 0.00985797 -0.000577301 -0.0429743 -8.08652e-14 -2.04003e-13 -1.19046e-13 0 1.28771e-16
1925 18 0.001 0.029858 -0.000577301 -0.0429743 -1.19313e-13 -2.01339e-13 -1.19083e-13 0 1.28771e-16
362 11 0.001 -0.0501169 0.000380106 -0.0432539 5.8696e-14 -1.56281e-13 -8.4887e-14 0 8.76272e-17
363 11 0.001 -0.0503307 0.00131289 -0.0435406 -8.54435e-14 -1.56683e-13 -4.47611e-14 0 4.82616e-17
738 12 0.001 -0.0301171 0.000381554 -0.0432535 -4.37153e-14 -1.52296e-13 -9.27584e-14 0 9.15971e-17
739 12 0.001 -0.0303313 0.00131424 -0.0435403 -6.4947e-14 -1.5354e-13 -4.09298e-14 0 5.15819e-17
1134 14 0.001 -0.0101171 0.000381554 -0.0432535 -7.40534e-14 -1.55064e-13 -9.48535e-14 0 9.15971e-17
1135 14 0.001 -0.0103313 0.00131424 -0.0435403 -1.54365e-14 -1.35923e-13 -3.82078e-14 0 5.15819e-17
1530 16 0.001 0.00988293 0.000381554 -0.0432535 -7.3554e-14 -1.55927e-13 -9.42082e-14 0 9.15971e-17
1531 16 0.001 0.00966872 0.00131424 -0.0435403 -2.57228e-14 -1.37796e-13 -3.91912e-14 0 5.15819e-17
1926 18 0.001 0.0298829 0.000381554 -0.0432535 -4.1851e-14 -1.67483e-13 -9.04239e-14 0 9.15971e-17
1927 18 0.001 0.0296687 0.00131424 -0.0435403 -3.57169e-14 -1.31326e-13 -4.0038e-14 0 5.15819e-17
365 11 0.001 -0.0514062 0.00287128 -0.0441313 -1.31705e-14 -8.38667e-14 4.50035e-14 0 3.07791e-18
364 11 0.001 -0.0507698 0.00216101 -0.0438337 2.05918e-14 -1.04389e-13 1.20636e-14 0 1.77383e-17
740 12 0.001 -0.0307707 0.00216218 -0.0438334 1.68485e-14 -1.09267e-13 1.71729e-15 0 1.99326e-17
741 12 0.001 -0.0314073 0.00287217 -0.0441311 8.22689e-14 -9.10167e-14 7.76131e-14 0 3.7439e-18
1136 14 0.001 -0.0107707 0.00216218 -0.0438334 -1.3494e-14 -1.23375e-13 1.15406e-16 0 1.99326e-17
1137 14 0.001 -0.0114073 0.00287217 -0.0441311 3.00742e-14 -7.30375e-14 6.06256e-14 0 3.7439e-18
1533 16 0.001 0.00859267 0.00287217 -0.0441311 2.80879e-14 -7.52162e-14 6.10617e-14 0 3.7439e-18
1532 16 0.001 0.0092293 0.00216218 -0.0438334 -8.09879e-16 -1.21101e-13 1.66895e-15 0 1.99326e-17
1928 18 0.001 0.0292293 0.00216218 -0.0438334 -4.66111e-15 -1.1764e-13 -1.18033e-15 0 1.99326e-17
1929 18 0.001 0.0285927 0.00287217 -0.0441311 6.36698e-15 -6.82565e-14 5.47707e-14 0 3.7439e-18
366 11 0.001 -0.0521997 0.00339916 -0.044431 1.17763e-13 -3.49896e-14 1.1706e-13 0 4.16104e-18
742 12 0.001 -0.032201 0.00339972 -0.0444308 -1.33165e-14 -3.48509e-14 7.20586e-14 0 3.11817e-18
1138 14 0.001 -0.012201 0.00339972 -0.0444308 7.236e-14 -4.97886e-14 9.70658e-14 0 3.11817e-18
1534 16 0.001 0.00779902 0.00339972 -0.0444308 6.5825e-14 -5.13655e-14 9.52825e-14 0 3.11817e-18
1930 18 0.001 0.027799 0.00339972 -0.0444308 7.70441e-14 -5.55726e-14 9.89684e-14 0 3.11817e-18
356 11 0.001 -0.0533225 -0.0038009 -0.0416776 -1.89427e-13 -5.90563e-14 -1.26952e-13 0 7.22915e-17
357 11 0.001 -0.0523965 -0.00352164 -0.0419279 -1.50692e-13 -1.43168e-13 -1.56567e-13 0 1.06539e-16
358 11 0.001 -0.0515689 -0.00302268 -0.0421811 -2.04107e-13 -1.34879e-13 -1.62504e-13 0 1.36064e-16
732 12 0.001 -0.0333211 -0.00380069 -0.0416772 -1.80386e-13 -7.26422e-14 -1.22617e-13 0 7.57265e-17
733 12 0.001 -0.0323952 -0.00352106 -0.0419274 -1.70065e-13 -1.10439e-13 -1.57697e-13 0 1.10224e-16
734 12 0.001 -0.0315678 -0.00302178 -0.0421806 -1.98402e-13 -1.49017e-13 -1.57767e-13 0 1.39926e-16
1128 14 0.001 -0.0133211 -0.00380069 -0.0416772 -1.87406e-13 -6.51395e-14 -1.22566e-13 0 7.57265e-17
1129 14 0.001 -0.0123952 -0.00352106 -0.0419274 -1.71851e-13 -1.18907e-13 -1.5366e-13 0 1.10224e-16
1130 14 0.001 -0.0115678 -0.00302178 -0.0421806 -1.98012e-13 -1.4569e-13 -1.60373e-13 0 1.39926e-16
1524 16 0.001 0.00667893 -0.00380069 -0.0416772 -1.96446e-13 -8.41297e-14 -1.17768e-13 0 7.57265e-17
1525 16 0.001 0.00760477 -0.00352106 -0.0419274 -1.80392e-13 -9.99555e-14 -1.56042e-13 0 1.10224e-16
1526 16 0.001 0.00843219 -0.00302178 -0.0421806 -1.82915e-13 -1.55846e-13 -1.60479e-13 0 1.39926e-16
1920 18 0.001 0.0266789 -0.00380069 -0.0416772 -1.87238e-13 -7.8741e-14 -1.20472e-13 0 7.57265e-17
1921 18 0.001 0.0276048 -0.00352106 -0.0419274 -1.7722e-13 -1.06613e-13 -1.55894e-13 0 1.10224e-16
1922 18 0.001 0.0284322 -0.00302178 -0.0421806 -1.89842e-13 -1.53655e-13 -1.59212e-13 0 1.39926e-16
359 11 0.001 -0.0508913 -0.00233548 -0.0424391 -1.83295e-13 -1.62782e-13 -1.6936e-13 0 1.51925e-16
360 11 0.001 -0.0504057 -0.00150336 -0.0427032 -6.05682e-14 -1.79469e-13 -1.60508e-13 0 1.48139e-16
735 12 0.001 -0.0308904 -0.00233432 -0.0424386 -1.56755e-13 -1.67461e-13 -1.69185e-13 0 1.55951e-16
736 12 0.001 -0.0304051 -0.00150201 -0.0427028 -1.2331e-13 -1.78298e-13 -1.5515e-13 0 1.52312e-16
1131 14 0.001 -0.0108904 -0.00233432 -0.0424386 -1.5669e-13 -1.62235e-13 -1.6958e-13 0 1.55951e-16
1132 14 0.001 -0.0104051 -0.00150201 -0.0427028 -1.23192e-13 -1.78088e-13 -1.55981e-13 0 1.52312e-16
1527 16 0.001 0.0091096 -0.00233432 -0.0424386 -1.54413e-13 -1.59646e-13 -1.70202e-13 0 1.55951e-16
1528 16 0.001 0.00959486 -0.00150201 -0.0427028 -1.38354e-13 -1.78043e-13 -1.54883e-13 0 1.52312e-16
1923 18 0.001 0.0291096 -0.00233432 -0.0424386 -1.6532e-13 -1.60279e-13 -1.69341e-13 0 1.55951e-16
1924 18 0.001 0.0295949 -0.00150201 -0.0427028 -1.06581e-13 -1.76531e-13 -1.57267e-13 0 1.52312e-16
353 11 0.001 -0.0561041 -0.00321961 -0.0409272 -1.77801e-13 2.71994e-14 -5.05206e-15 0 7.17913e-18
355 11 0.001 -0.054289 -0.00384291 -0.0414285 -2.2185e-13 -4.04274e-14 -7.59124e-14 0 4.16587e-17
354 11 0.001 -0.0552359 -0.00364501 -0.0411788 -1.42445e-13 -1.58981e-14 -4.83314e-14 0 1.96691e-17
729 12 0.001 -0.0361029 -0.0032205 -0.0409268 -9.87784e-14 5.18742e-14 -1.56163e-15 0 8.90497e-18
730 12 0.001 -0.0352345 -0.00364555 -0.0411784 -1.67543e-13 -2.32237e-14 -5.31061e-14 0 2.2107e-17
731 12 0.001 -0.0342876 -0.00384307 -0.041428 -2.16584e-13 -4.11807e-14 -7.32351e-14 0 4.46879e-17
1125 14 0.001 -0.0161029 -0.0032205 -0.0409268 -1.66365e-13 4.86643e-14 1.31525e-14 0 8.90497e-18
1126 14 0.001 -0.0152345 -0.00364555 -0.0411784 -1.25401e-13 -1.0928e-14 -6.22549e-14 0 2.2107e-17
1127 14 0.001 -0.0142876 -0.00384307 -0.041428 -2.2105e-13 -5.49543e-14 -7.2109e-14 0 4.46879e-17
1521 16 0.001 0.00389712 -0.0032205 -0.0409268 -1.68493e-13 4.61284e-14 9.91803e-15 0 8.90497e-18
1523 16 0.001 0.00571241 -0.00384307 -0.041428 -2.046e-13 -4.14128e-14 -7.70474e-14 0 4.46879e-17
1522 16 0.001 0.00476549 -0.00364555 -0.0411784 -1.40442e-13 -1.82272e-14 -5.74981e-14 0 2.2107e-17
1917 18 0.001 0.0238971 -0.0032205 -0.0409268 -1.68207e-13 3.75687e-14 8.44465e-15 0 8.90497e-18
1918 18 0.001 0.0247655 -0.00364555 -0.0411784 -1.43144e-13 -1.6428e-14 -5.66309e-14 0 2.2107e-17
1919 18 0.001 0.0257124 -0.00384307 -0.041428 -2.15122e-13 -3.97666e-14 -7.40908e-14 0 4.46879e-17
351 11 0.001 -0.0573969 -0.0018054 -0.0404147 -9.60114e-14 8.38927e-14 4.05568e-14 0 3.78122e-19
352 11 0.001 -0.0568396 -0.00259336 -0.0406727 -7.95558e-14 3.32926e-14 2.28223e-14 0 1.87489e-18
727 12 0.001 -0.0373963 -0.00180681 -0.0404143 -5.36559e-14 5.9432e-14 3.6527e-14 0 1.03272e-18
728 12 0.001 -0.0368387 -0.00259455 -0.0406723 -1.70367e-13 2.13085e-14 2.0742e-14 0 2.93207e-18
1123 14 0.001 -0.0173963 -0.00180681 -0.0404143 -9.43892e-15 7.2115e-14 3.85055e-14 0 1.03272e-18
1124 14 0.001 -0.0168387 -0.00259455 -0.0406723 -1.38427e-13 2.16604e-14 1.23711e-14 0 2.93207e-18
1519 16 0.001 0.0026037 -0.00180681 -0.0404143 -6.66623e-14 6.02272e-14 4.09031e-14 0 1.03272e-18
1520 16 0.001 0.00316131 -0.00259455 -0.0406723 -1.00637e-13 3.04667e-14 1.10444e-14 0 2.93207e-18
1915 18 0.001 0.0226037 -0.00180681 -0.0404143 -1.00683e-13 6.54928e-14 4.58007e-14 0 1.03272e-18
1916 18 0.001 0.0231613 -0.00259455 -0.0406723 -7.84213e-14 3.30609e-14 8.07204e-15 0 2.93207e-18
350 11 0.001 -0.0577415 -0.000904899 -0.0401532 2.9845e-14 3.69065e-14 4.46413e-14 0 3.4289e-19
726 12 0.001 -0.0377412 -0.000906444 -0.0401528 3.83485e-14 9.09685e-14 5.12782e-14 0 1.07229e-18
1122 14 0.001 -0.0177412 -0.000906444 -0.0401528 -6.89952e-14 7.4134e-14 5.02148e-14 0 1.07229e-18
1518 16 0.001 0.00225879 -0.000906444 -0.0401528 -1.74828e-14 8.63248e-14 5.09537e-14 0 1.07229e-18
1914 18 0.001 0.0222588 -0.000906444 -0.0401528 1.48434e-15 8.22139e-14 4.7936e-14 0 1.07229e-18
348 11 0.001 -0.0577219 0.00100569 -0.0396209 1.13345e-13 7.65537e-14 3.49145e-14 0 5.99493e-18
349 11 0.001 -0.057852 5.20041e-05 -0.0398884 -6.50926e-14 1.29922e-13 4.78381e-14 0 1.60537e-18
724 12 0.001 -0.0377224 0.00100415 -0.0396204 7.03022e-14 8.58642e-14 2.34558e-14 0 8.68557e-18
725 12 0.001 -0.0378521 5.04114e-05 -0.0398879 -6.48225e-14 1.00295e-13 4.48971e-14 0 3.01462e-18
1120 14 0.001 -0.0177224 0.00100415 -0.0396204 2.6968e-14 8.66421e-14 2.66967e-14 0 8.68557e-18
1121 14 0.001 -0.0178521 5.04114e-05 -0.0398879 5.18064e-14 1.00011e-13 4.4581e-14 0 3.01462e-18
1516 16 0.001 0.00227759 0.00100415 -0.0396204 5.76122e-14 7.76603e-14 2.66258e-14 0 8.68557e-18
1517 16 0.001 0.00214785 5.04114e-05 -0.0398879 8.27958e-15 9.79196e-14 4.33273e-14 0 3.01462e-18
1912 18 0.001 0.0222776 0.00100415 -0.0396204 5.15561e-14 9.33209e-14 2.95389e-14 0 8.68557e-18
1913 18 0.001 0.0221479 5.04114e-05 -0.0398879 1.21692e-14 9.46986e-14 4.32768e-14 0 3.01462e-18
347 11 0.001 -0.0573594 0.00189676 -0.0393515 8.94882e-14 6.94199e-14 -5.23138e-15 0 1.60503e-17
346 11 0.001 -0.0567871 0.00266968 -0.039081 1.64301e-13 7.76979e-14 -1.66512e-14 0 3.334e-17
722 12 0.001 -0.0367883 0.00266851 -0.0390805 8.05492e-14 9.85799e-14 -3.48532e-14 0 3.97314e-17
723 12 0.001 -0.0373602 0.00189536 -0.039351 1.72043e-13 5.72995e-14 9.50125e-15 0 2.04828e-17
1118 14 0.001 -0.0167883 0.00266851 -0.0390805 1.45739e-13 8.3198e-14 -2.40889e-14 0 3.97315e-17
1119 14 0.001 -0.0173602 0.00189536 -0.039351 1.22481e-13 6.76647e-14 -6.78642e-16 0 2.04828e-17
1515 16 0.001 0.00263976 0.00189536 -0.039351 1.07564e-13 7.95528e-14 3.29546e-17 0 2.04828e-17
1514 16 0.001 0.00321171 0.00266851 -0.0390805 1.46883e-13 7.04441e-14 -2.63368e-14 0 3.97315e-17
1910 18 0.001 0.0232117 0.00266851 -0.0390805 1.21308e-13 9.3735e-14 -2.70263e-14 0 3.97315e-17
1911 18 0.001 0.0226398 0.00189536 -0.039351 1.21573e-13 5.61397e-14 -2.03308e-15 0 2.04828e-17
345 11 0.001 -0.0560409 0.00327625 -0.0388104 1.01971e-13 8.23704e-15 -7.98565e-14 0 5.71951e-17
344 11 0.001 -0.0551673 0.00367859 -0.0385404 2.35608e-13 3.15089e-14 -7.33002e-14 0 8.44248e-17
721 12 0.001 -0.0360423 0.00327539 -0.03881 1.95372e-13 2.52612e-14 -5.4815e-14 0 6.54808e-17
720 12 0.001 -0.0351688 0.00367809 -0.03854 1.638e-13 -5.64746e-15 -9.81108e-14 0 9.42882e-17
1117 14 0.001 -0.0160423 0.00327539 -0.03881 1.61818e-13 3.16782e-14 -6.12872e-14 0 6.54808e-17
1116 14 0.001 -0.0151688 0.00367809 -0.03854 1.85123e-13 -6.08673e-15 -9.30074e-14 0 9.42882e-17
1513 16 0.001 0.00395769 0.00327539 -0.03881 1.7023e-13 3.8092e-14 -5.79245e-14 0 6.54808e-17
1512 16 0.001 0.00483116 0.00367809 -0.03854 1.89977e-13 3.75444e-15 -9.12894e-14 0 9.42882e-17
1909 18 0.001 0.0239577 0.00327539 -0.03881 1.88181e-13 2.5183e-14 -5.68919e-14 0 6.54808e-17
1908 18 0.001 0.0248312 0.00367809 -0.03854 1.72638e-13 -2.45796e-15 -9.52583e-14 0 9.42882e-17
338 11 0.001 -0.0504191 0.00140731 -0.0369483 9.07319e-14 -1.4314e-13 -6.25394e-14 0 1.03179e-16
714 12 0.001 -0.0304197 0.00140879 -0.0369479 1.26853e-13 -1.21261e-13 -6.51825e-14 0 1.12692e-16
1110 14 0.001 -0.0104197 0.00140879 -0.0369479 1.06982e-13 -1.24606e-13 -6.49621e-14 0 1.12692e-16
1506 16 0.001 0.00958031 0.00140879 -0.0369479 9.72903e-14 -1.24174e-13 -6.59377e-14 0 1.12692e-16
1902 18 0.001 0.0295803 0.00140879 -0.0369479 1.13074e-13 -1.23861e-13 -6.56433e-14 0 1.12692e-16
340 11 0.001 -0.0515363 0.00295961 -0.0374739 2.16194e-13 -1.04297e-13 -9.88653e-14 0 1.35211e-16
339 11 0.001 -0.0508801 0.00225385 -0.0372107 1.21477e-13 -1.32237e-13 -9.5342e-14 0 1.22483e-16
716 12 0.001 -0.0315376 0.00296062 -0.0374735 1.68384e-13 -1.22742e-13 -1.05411e-13 0 1.46323e-16
715 12 0.001 -0.030881 0.00225513 -0.0372103 1.57182e-13 -1.42329e-13 -8.49921e-14 0 1.32888e-16
1111 14 0.001 -0.010881 0.00225513 -0.0372103 1.49862e-13 -1.3857e-13 -8.73672e-14 0 1.32888e-16
1112 14 0.001 -0.0115376 0.00296062 -0.0374735 1.71296e-13 -1.21348e-13 -1.05263e-13 0 1.46323e-16
1508 16 0.001 0.00846244 0.00296062 -0.0374735 1.75749e-13 -1.18699e-13 -1.04718e-13 0 1.46323e-16
1507 16 0.001 0.00911897 0.00225513 -0.0372103 1.50642e-13 -1.3932e-13 -8.76677e-14 0 1.32888e-16
1904 18 0.001 0.0284624 0.00296062 -0.0374735 1.52428e-13 -1.18228e-13 -1.08777e-13 0 1.46323e-16
1903 18 0.001 0.029119 0.00225513 -0.0372103 1.70597e-13 -1.38619e-13 -8.41043e-14 0 1.32888e-16
343 11 0.001 -0.0542208 0.00385152 -0.0382716 1.86781e-13 -4.69468e-14 -1.12986e-13 0 1.10119e-16
342 11 0.001 -0.0532606 0.00378413 -0.0380042 2.20047e-13 -4.36921e-14 -1.12743e-13 0 1.2918e-16
341 11 0.001 -0.0523467 0.00348053 -0.0377383 1.55041e-13 -9.2759e-14 -1.27019e-13 0 1.37936e-16
719 12 0.001 -0.0342224 0.0038514 -0.0382711 2.19074e-13 -2.45239e-14 -1.03065e-13 0 1.21074e-16
718 12 0.001 -0.0332622 0.00378441 -0.0380037 2.0563e-13 -5.64961e-14 -1.1614e-13 0 1.40676e-16
717 12 0.001 -0.0323482 0.0034812 -0.0377379 1.71911e-13 -6.86682e-14 -1.27415e-13 0 1.49453e-16
1115 14 0.001 -0.0142224 0.0038514 -0.0382711 2.11473e-13 -1.96131e-14 -1.04425e-13 0 1.21074e-16
1113 14 0.001 -0.0123482 0.0034812 -0.0377379 1.94682e-13 -7.67344e-14 -1.20543e-13 0 1.49453e-16
1114 14 0.001 -0.0132622 0.00378441 -0.0380037 1.85131e-13 -5.55276e-14 -1.22305e-13 0 1.40676e-16
1511 16 0.001 0.00577758 0.0038514 -0.0382711 1.77517e-13 -3.10595e-14 -1.14027e-13 0 1.21074e-16
1510 16 0.001 0.0067378 0.00378441 -0.0380037 2.12008e-13 -5.41854e-14 -1.14888e-13 0 1.40676e-16
1509 16 0.001 0.00765181 0.0034812 -0.0377379 1.91304e-13 -7.81283e-14 -1.21111e-13 0 1.49453e-16
1907 18 0.001 0.0257776 0.0038514 -0.0382711 1.98933e-13 -2.27907e-14 -1.08244e-13 0 1.21074e-16
1906 18 0.001 0.0267378 0.00378441 -0.0380037 2.11764e-13 -5.46061e-14 -1.15118e-13 0 1.40676e-16
1905 18 0.001 0.0276518 0.0034812 -0.0377379 1.87474e-13 -7.93708e-14 -1.225e-13 0 1.49453e-16
333 11 0.001 -0.0515483 -0.00297148 -0.0356334 -1.25189e-13 -1.01852e-13 6.49823e-14 0 2.45204e-17
334 11 0.001 -0.0508893 -0.00226875 -0.0358977 -1.46665e-14 -6.4041e-14 -2.04043e-16 0 3.21037e-17
709 12 0.001 -0.0315471 -0.00297049 -0.035633 -1.30764e-15 -1.02582e-13 2.33091e-14 0 2.99982e-17
710 12 0.001 -0.0308883 -0.00226747 -0.0358973 -5.8909e-14 -6.15376e-14 2.30298e-14 0 3.80635e-17
1105 14 0.001 -0.0115471 -0.00297049 -0.035633 -8.25821e-14 -9.23758e-14 3.76471e-14 0 2.99982e-17
1106 14 0.001 -0.0108883 -0.00226747 -0.0358973 -7.18115e-15 -7.82235e-14 1.82502e-14 0 3.80635e-17
1501 16 0.001 0.00845295 -0.00297049 -0.035633 -8.69851e-14 -7.87298e-14 3.66499e-14 0 2.99982e-17
1502 16 0.001 0.00911168 -0.00226747 -0.0358973 -6.69588e-15 -8.54095e-14 1.93894e-14 0 3.80635e-17
1897 18 0.001 0.0284529 -0.00297049 -0.035633 -7.55579e-14 -9.86592e-14 3.61059e-14 0 2.99982e-17
1898 18 0.001 0.0291117 -0.00226747 -0.0358973 7.65243e-15 -6.89969e-14 1.60141e-14 0 3.80635e-17
335 11 0.001 -0.0504249 -0.0014244 -0.0361612 4.27924e-14 -1.19938e-13 2.27035e-14 0 4.42243e-17
336 11 0.001 -0.0501842 -0.000491099 -0.0364239 -1.41582e-15 -1.4605e-13 -1.57301e-14 0 6.10016e-17
711 12 0.001 -0.0304243 -0.00142292 -0.0361608 -1.06667e-14 -1.24356e-13 9.55407e-15 0 5.09069e-17
712 12 0.001 -0.030184 -0.000489523 -0.0364235 8.91143e-14 -1.18391e-13 -1.39489e-14 0 6.857e-17
1107 14 0.001 -0.0104243 -0.00142292 -0.0361608 -3.24659e-15 -1.0117e-13 3.21277e-15 0 5.09069e-17
1108 14 0.001 -0.010184 -0.000489523 -0.0364235 3.98275e-14 -1.28663e-13 -8.96753e-15 0 6.857e-17
1503 16 0.001 0.00957571 -0.00142292 -0.0361608 -2.41529e-15 -9.76902e-14 2.25648e-15 0 5.09069e-17
1504 16 0.001 0.00981604 -0.000489523 -0.0364235 4.25545e-14 -1.30229e-13 -8.56658e-15 0 6.857e-17
1899 18 0.001 0.0295757 -0.00142292 -0.0361608 -4.64207e-14 -1.08696e-13 7.37028e-15 0 5.09069e-17
1900 18 0.001 0.029816 -0.000489523 -0.0364235 9.99441e-14 -1.25278e-13 -1.12682e-14 0 6.857e-17
337 11 0.001 -0.0501822 0.000472871 -0.0366861 1.09578e-13 -1.20064e-13 -3.71131e-14 0 8.14587e-17
713 12 0.001 -0.0301824 0.000474446 -0.0366857 2.49037e-14 -1.65814e-13 -3.4551e-14 0 8.9997e-17
1109 14 0.001 -0.0101824 0.000474446 -0.0366857 7.51777e-14 -1.64811e-13 -3.45956e-14 0 8.9997e-17
1505 16 0.001 0.00981761 0.000474446 -0.0366857 7.77122e-14 -1.63692e-13 -3.43874e-14 0 8.9997e-17
1901 18 0.001 0.0298176 0.000474446 -0.0366857 3.07972e-14 -1.66269e-13 -3.45982e-14 0 8.9997e-17
328 11 0.001 -0.0560559 -0.00326827 -0.0343025 -1.60777e-13 1.10623e-13 -3.48494e-14 0 3.69095e-17
329 11 0.001 -0.0551831 -0.00367453 -0.0345692 -9.3164e-14 7.78861e-14 -2.14021e-14 0 2.86375e-17
330 11 0.001 -0.0542368 -0.00385157 -0.0348359 -8.98803e-14 5.13556e-14 -1.38521e-14 0 2.31165e-17
331 11 0.001 -0.053276 -0.00378835 -0.0351023 -7.96092e-14 -8.84573e-15 2.0651e-14 0 2.04878e-17
332 11 0.001 -0.0523608 -0.00348876 -0.0353682 -3.95265e-14 -2.23456e-14 4.23873e-15 0 2.0849e-17
704 12 0.001 -0.0360545 -0.00326924 -0.034302 -2.03047e-13 9.37256e-14 -3.52321e-14 0 4.47794e-17
705 12 0.001 -0.0351815 -0.00367511 -0.0345687 8.13073e-14 7.93229e-14 -6.67456e-14 0 3.54641e-17
706 12 0.001 -0.0342351 -0.00385174 -0.0348354 -3.01306e-13 2.63886e-14 3.83335e-14 0 2.9117e-17
707 12 0.001 -0.0332744 -0.0037881 -0.0351019 2.79785e-14 1.6738e-14 -1.41856e-14 0 2.59655e-17
708 12 0.001 -0.0323593 -0.00348812 -0.0353678 -1.66859e-13 -3.10295e-14 4.13455e-14 0 2.61526e-17
1100 14 0.001 -0.0160545 -0.00326924 -0.034302 -1.95665e-13 9.58639e-14 -3.51232e-14 0 4.47794e-17
1101 14 0.001 -0.0151815 -0.00367511 -0.0345687 -5.33867e-14 8.42226e-14 -3.26007e-14 0 3.54642e-17
1102 14 0.001 -0.0142351 -0.00385174 -0.0348354 -9.08939e-14 4.31184e-14 -1.62212e-14 0 2.9117e-17
1104 14 0.001 -0.0123593 -0.00348812 -0.0353678 -8.01808e-14 -3.17159e-14 2.21576e-14 0 2.61526e-17
1103 14 0.001 -0.0132744 -0.0037881 -0.0351019 -1.18866e-13 -4.70909e-15 2.3383e-14 0 2.59655e-17
1496 16 0.001 0.00394551 -0.00326924 -0.034302 -9.58053e-14 1.00885e-13 -5.74854e-14 0 4.47794e-17
1497 16 0.001 0.00481853 -0.00367511 -0.0345687 -8.97683e-14 7.60156e-14 -2.41142e-14 0 3.54642e-17
1498 16 0.001 0.00576493 -0.00385174 -0.0348354 -9.70797e-14 3.9543e-14 -1.44065e-14 0 2.9117e-17
1499 16 0.001 0.00672565 -0.0037881 -0.0351019 -1.16721e-13 9.59468e-15 2.19555e-14 0 2.59655e-17
1500 16 0.001 0.0076407 -0.00348812 -0.0353678 -7.40353e-14 -4.92615e-14 2.25797e-14 0 2.61526e-17
1892 18 0.001 0.0239455 -0.00326924 -0.034302 -1.31471e-13 1.00039e-13 -5.04405e-14 0 4.47794e-17
1893 18 0.001 0.0248185 -0.00367511 -0.0345687 -8.68626e-14 7.53855e-14 -2.43016e-14 0 3.54642e-17
1894 18 0.001 0.0257649 -0.00385174 -0.0348354 -9.72013e-14 4.79522e-14 -1.45211e-14 0 2.9117e-17
1895 18 0.001 0.0267256 -0.0037881 -0.0351019 -1.04299e-13 -6.50475e-15 1.96404e-14 0 2.59655e-17
1896 18 0.001 0.0276407 -0.00348812 -0.0353678 -9.04965e-14 -2.87275e-14 2.44685e-14 0 2.61526e-17
327 11 0.001 -0.0568008 -0.00265816 -0.0340361 -3.06481e-14 1.19938e-13 -7.9043e-14 0 4.74593e-17
703 12 0.001 -0.0367996 -0.00265946 -0.0340356 5.70667e-15 1.48486e-13 -8.04209e-14 0 5.64769e-17
1099 14 0.001 -0.0167996 -0.00265946 -0.0340356 2.34892e-14 1.59059e-13 -8.24377e-14 0 5.64769e-17