ITEM: TIMESTEP
9100000
ITEM: NUMBER OF ATOMS
1970
ITEM: BOX BOUNDS ff ff ff
-6.0000000000000005e-02 6.0000000000000005e-02
-6.0000000000000001e-03 6.0000000000000001e-03
-5.5000000000000000e-02 5.5000000000000000e-02
ITEM: ATOMS id type radius x y z fx fy fz c_bendingE c_stretchingE
384 11 0.001 -0.0508101 -0.00264217 -0.0489996 -1.7121e-13 7.37918e-14 -2.83249e-15 0 1.68894e-17
385 11 0.001 -0.0503137 -0.00183752 -0.0493223 -1.32753e-13 -1.21597e-14 2.24307e-14 0 1.00415e-14
760 12 0.001 -0.0308091 -0.00264207 -0.0489986 -1.48127e-13 3.30169e-14 5.12152e-15 0 1.60676e-17
761 12 0.001 -0.030313 -0.00183736 -0.0493216 -1.16887e-13 2.30901e-14 1.03851e-14 0 9.91417e-15
1156 14 0.001 -0.0108091 -0.00264207 -0.0489986 -1.47192e-13 3.66189e-14 3.91401e-15 0 1.60676e-17
1157 14 0.001 -0.010313 -0.00183736 -0.0493216 -1.05157e-13 2.6844e-14 7.7166e-15 0 9.91417e-15
1552 16 0.001 0.00919088 -0.00264207 -0.0489986 -1.53185e-13 3.49861e-14 5.16601e-15 0 1.60676e-17
1553 16 0.001 0.00968698 -0.00183736 -0.0493216 -1.01727e-13 2.59418e-14 7.67655e-15 0 9.91417e-15
1948 18 0.001 0.0291909 -0.00264207 -0.0489986 -1.58005e-13 3.57944e-14 6.1138e-15 0 1.60676e-17
1949 18 0.001 0.029687 -0.00183736 -0.0493216 -1.0557e-13 2.6866e-14 7.64372e-15 0 9.91417e-15
2 2 0.001 -0.05 -4.31175e-17 -0.05 -2.14957e-06 2.28487e-06 1.83866e-06 0 9.11717e-15
386 11 0.001 -0.050038 -0.000937643 -0.0496574 -1.896e-14 3.06881e-14 6.96373e-15 0 1.91563e-14
762 12 0.001 -0.0300377 -0.000937518 -0.049657 -4.11968e-14 2.41527e-15 1.72537e-14 0 1.88834e-14
4 4 0.001 -0.03 -4.31175e-17 -0.05 -2.19431e-06 2.38027e-06 1.82066e-06 0 8.97343e-15
6 6 0.001 -0.01 -4.31175e-17 -0.05 -2.19431e-06 2.38027e-06 1.82066e-06 0 8.97343e-15
1158 14 0.001 -0.0100377 -0.000937518 -0.049657 -4.51277e-14 1.46531e-15 1.79433e-14 0 1.88834e-14
8 8 0.001 0.01 -4.31175e-17 -0.05 -2.19431e-06 2.38027e-06 1.82066e-06 0 8.97343e-15
1554 16 0.001 0.00996231 -0.000937518 -0.049657 -4.6249e-14 1.74623e-15 1.79894e-14 0 1.88834e-14
10 10 0.001 0.03 -4.31175e-17 -0.05 -2.19431e-06 2.38027e-06 1.82066e-06 0 8.97343e-15
1950 18 0.001 0.0299623 -0.000937518 -0.049657 -4.392e-14 2.05759e-15 1.76043e-14 0 1.88834e-14
379 11 0.001 -0.0551709 -0.00380031 -0.0476502 -2.32906e-13 2.56625e-13 -1.59776e-13 0 6.96e-16
380 11 0.001 -0.0542269 -0.0040281 -0.0478849 -2.23148e-13 1.73454e-13 -1.33937e-13 0 6.03664e-16
381 11 0.001 -0.05326 -0.00401681 -0.0481356 -2.55037e-13 1.39971e-13 -8.51308e-14 0 4.39389e-16
382 11 0.001 -0.0523305 -0.00376846 -0.0484047 -2.58544e-13 1.47194e-13 -5.82847e-14 0 2.49837e-16
383 11 0.001 -0.0514965 -0.00329999 -0.0486929 -1.17534e-13 4.63311e-14 -2.8464e-14 0 9.24342e-17
755 12 0.001 -0.0351696 -0.00380131 -0.0476489 -2.02249e-13 2.26495e-13 -1.62557e-13 0 7.08576e-16
756 12 0.001 -0.0342255 -0.00402884 -0.0478835 -2.23873e-13 1.93675e-13 -1.30163e-13 0 6.09479e-16
757 12 0.001 -0.0332586 -0.0040173 -0.0481342 -2.5128e-13 1.38379e-13 -8.46094e-14 0 4.38209e-16
758 12 0.001 -0.0323292 -0.0037687 -0.0484033 -2.5418e-13 9.4868e-14 -4.47708e-14 0 2.4376e-16
759 12 0.001 -0.0314954 -0.00330004 -0.0486917 -1.30206e-13 1.09779e-13 -4.12421e-14 0 8.59368e-17
1151 14 0.001 -0.0151696 -0.00380131 -0.0476489 -2.28099e-13 2.21681e-13 -1.56249e-13 0 7.08576e-16
1152 14 0.001 -0.0142255 -0.00402884 -0.0478835 -2.38314e-13 1.97746e-13 -1.26897e-13 0 6.09479e-16
1153 14 0.001 -0.0132586 -0.0040173 -0.0481342 -2.31171e-13 1.37543e-13 -8.96526e-14 0 4.38209e-16
1154 14 0.001 -0.0123292 -0.0037687 -0.0484033 -2.30894e-13 1.0615e-13 -5.16435e-14 0 2.4376e-16
1155 14 0.001 -0.0114954 -0.00330004 -0.0486917 -1.63612e-13 9.21354e-14 -3.06791e-14 0 8.59368e-17
1547 16 0.001 0.00483042 -0.00380131 -0.0476489 -2.38507e-13 2.19539e-13 -1.54237e-13 0 7.08576e-16
1548 16 0.001 0.00577446 -0.00402884 -0.0478835 -2.26496e-13 2.0485e-13 -1.29407e-13 0 6.09479e-16
1549 16 0.001 0.00674144 -0.0040173 -0.0481342 -2.32043e-13 1.34675e-13 -8.945e-14 0 4.38209e-16
1550 16 0.001 0.00767084 -0.0037687 -0.0484033 -2.43817e-13 1.02735e-13 -4.80864e-14 0 2.4376e-16
1551 16 0.001 0.00850463 -0.00330004 -0.0486917 -1.50613e-13 9.7697e-14 -3.45631e-14 0 8.59368e-17
1943 18 0.001 0.0248304 -0.00380131 -0.0476489 -2.46552e-13 2.15917e-13 -1.52265e-13 0 7.08576e-16
1944 18 0.001 0.0257745 -0.00402884 -0.0478835 -2.15012e-13 2.01012e-13 -1.31653e-13 0 6.09479e-16
1945 18 0.001 0.0267414 -0.0040173 -0.0481342 -2.35426e-13 1.4138e-13 -9.02664e-14 0 4.38209e-16
1946 18 0.001 0.0276708 -0.0037687 -0.0484033 -2.49337e-13 9.91076e-14 -4.5704e-14 0 2.4376e-16
1947 18 0.001 0.0285046 -0.00330004 -0.0486917 -1.40482e-13 9.63715e-14 -3.63594e-14 0 8.59368e-17
378 11 0.001 -0.0560328 -0.00334659 -0.0474281 -2.47653e-13 2.64689e-13 -1.68888e-13 0 6.94195e-16
754 12 0.001 -0.0360316 -0.00334783 -0.0474269 -2.47731e-13 2.76531e-13 -1.61702e-13 0 7.11597e-16
1150 14 0.001 -0.0160316 -0.00334783 -0.0474269 -2.23599e-13 2.75797e-13 -1.68019e-13 0 7.11597e-16
1546 16 0.001 0.0039684 -0.00334783 -0.0474269 -2.23314e-13 2.64232e-13 -1.69215e-13 0 7.11597e-16
1942 18 0.001 0.0239684 -0.00334783 -0.0474269 -2.1797e-13 2.75391e-13 -1.69583e-13 0 7.11597e-16
376 11 0.001 -0.0573032 -0.00188387 -0.0470033 -2.31758e-13 3.13297e-13 -1.61846e-13 0 4.58728e-16
377 11 0.001 -0.0567586 -0.00269442 -0.047214 -1.80491e-13 2.96699e-13 -1.8101e-13 0 6.05022e-16
753 12 0.001 -0.0367577 -0.00269585 -0.0472131 -2.0653e-13 2.81014e-13 -1.73906e-13 0 6.24496e-16
752 12 0.001 -0.0373026 -0.00188544 -0.0470025 -1.94066e-13 3.05533e-13 -1.62746e-13 0 4.77526e-16
1149 14 0.001 -0.0167577 -0.00269585 -0.0472131 -2.09335e-13 2.88329e-13 -1.71975e-13 0 6.24496e-16
1148 14 0.001 -0.0173026 -0.00188544 -0.0470025 -1.6044e-13 3.04008e-13 -1.63041e-13 0 4.77526e-16
1544 16 0.001 0.00269741 -0.00188544 -0.0470025 -1.59654e-13 3.04271e-13 -1.62121e-13 0 4.77526e-16
1545 16 0.001 0.00324231 -0.00269585 -0.0472131 -1.99743e-13 2.98865e-13 -1.72338e-13 0 6.24496e-16
1941 18 0.001 0.0232423 -0.00269585 -0.0472131 -2.07592e-13 2.89368e-13 -1.72101e-13 0 6.24496e-16
1940 18 0.001 0.0226974 -0.00188544 -0.0470025 -1.60733e-13 3.0713e-13 -1.62191e-13 0 4.77526e-16
375 11 0.001 -0.0576329 -0.000965022 -0.046791 -5.39664e-15 3.42582e-13 -1.31639e-13 0 2.96447e-16
751 12 0.001 -0.0376326 -0.000966655 -0.0467905 -4.73848e-15 3.40439e-13 -1.29208e-13 0 3.12402e-16
1147 14 0.001 -0.0176326 -0.000966655 -0.0467905 -1.04392e-13 3.29693e-13 -1.32659e-13 0 3.12402e-16
1543 16 0.001 0.00236743 -0.000966655 -0.0467905 -1.25179e-13 3.28479e-13 -1.32756e-13 0 3.12402e-16
1939 18 0.001 0.0223674 -0.000966655 -0.0467905 -1.08445e-13 3.2594e-13 -1.33289e-13 0 3.12402e-16
373 11 0.001 -0.0575817 0.000967064 -0.0463454 -2.52951e-14 2.90203e-13 -4.33411e-14 0 5.96928e-17
374 11 0.001 -0.0577275 5.28825e-06 -0.0465729 -1.89541e-13 2.9847e-13 -1.0713e-13 0 1.55756e-16
749 12 0.001 -0.037582 0.000965524 -0.0463452 7.32179e-14 2.80356e-13 -3.88236e-14 0 6.69047e-17
750 12 0.001 -0.0377275 3.66318e-06 -0.0465725 -2.38743e-13 3.06033e-13 -1.00786e-13 0 1.67555e-16
1145 14 0.001 -0.017582 0.000965524 -0.0463452 -4.98695e-14 2.90966e-13 -4.91144e-14 0 6.69047e-17
1146 14 0.001 -0.0177275 3.66318e-06 -0.0465725 -1.02554e-13 3.09546e-13 -9.24768e-14 0 1.67555e-16
1541 16 0.001 0.00241799 0.000965524 -0.0463452 -4.91036e-14 2.89834e-13 -4.88797e-14 0 6.69047e-17
1542 16 0.001 0.00227252 3.66318e-06 -0.0465725 -8.34976e-14 3.07236e-13 -9.25831e-14 0 1.67555e-16
1937 18 0.001 0.022418 0.000965524 -0.0463452 -2.60501e-14 2.90435e-13 -4.71681e-14 0 6.69047e-17
1938 18 0.001 0.0222725 3.66318e-06 -0.0465725 -1.0898e-13 3.16146e-13 -9.17425e-14 0 1.67555e-16
372 11 0.001 -0.0572053 0.00186095 -0.0461061 -1.28366e-14 3.09799e-13 5.81413e-15 0 1.25933e-17
748 12 0.001 -0.0372059 0.00185957 -0.046106 -4.09645e-14 2.93513e-13 7.55101e-15 0 1.5533e-17
1144 14 0.001 -0.0172059 0.00185957 -0.046106 2.56515e-14 2.72301e-13 1.1291e-14 0 1.5533e-17
1540 16 0.001 0.00279411 0.00185957 -0.046106 6.56833e-15 2.76834e-13 9.75123e-15 0 1.5533e-17
1936 18 0.001 0.0227941 0.00185957 -0.046106 9.30685e-15 2.74528e-13 1.10939e-14 0 1.5533e-17
371 11 0.001 -0.0566223 0.00263194 -0.0458537 3.96839e-14 2.09877e-13 5.70601e-14 0 3.10666e-18
747 12 0.001 -0.0366232 0.00263079 -0.0458537 -1.5884e-15 1.95426e-13 4.12911e-14 0 2.62736e-18
1143 14 0.001 -0.0166232 0.00263079 -0.0458537 -2.07327e-14 2.23797e-13 4.40636e-14 0 2.62736e-18
1539 16 0.001 0.00337684 0.00263079 -0.0458537 2.46698e-16 2.1918e-13 4.61189e-14 0 2.62736e-18
1935 18 0.001 0.0233768 0.00263079 -0.0458537 -2.68581e-14 2.05806e-13 3.82693e-14 0 2.62736e-18
370 11 0.001 -0.0558695 0.00323272 -0.0455882 1.0224e-13 1.93297e-13 1.09801e-13 0 1.2097e-17
369 11 0.001 -0.0549944 0.00362659 -0.0453107 2.56306e-14 1.52371e-13 1.11076e-13 0 2.17124e-17
368 11 0.001 -0.0540516 0.00378965 -0.0450232 -2.35068e-14 5.67987e-14 1.02116e-13 0 2.20707e-17
367 11 0.001 -0.0531002 0.00371225 -0.0447286 1.71208e-13 -3.03177e-15 1.53845e-13 0 1.3443e-17
745 12 0.001 -0.0349957 0.00362606 -0.0453107 1.63493e-13 1.24143e-13 1.45227e-13 0 1.79803e-17
746 12 0.001 -0.0358707 0.00323186 -0.0455882 -1.56824e-14 1.83359e-13 7.65465e-14 0 9.36293e-18
744 12 0.001 -0.034053 0.00378947 -0.0450232 4.93471e-14 9.03429e-14 1.23828e-13 0 1.8494e-17
743 12 0.001 -0.0331015 0.00371244 -0.0447285 2.08541e-14 1.71182e-14 1.04163e-13 0 1.09134e-17
1142 14 0.001 -0.0158707 0.00323186 -0.0455882 8.05158e-14 1.72225e-13 1.00878e-13 0 9.36293e-18
1140 14 0.001 -0.014053 0.00378947 -0.0450232 9.90973e-14 6.2449e-14 1.39078e-13 0 1.8494e-17
1141 14 0.001 -0.0149957 0.00362606 -0.0453107 1.78965e-14 1.39072e-13 1.03359e-13 0 1.79803e-17
1139 14 0.001 -0.0131015 0.00371244 -0.0447285 6.06284e-14 1.80304e-14 1.16979e-13 0 1.09134e-17
1538 16 0.001 0.00412933 0.00323186 -0.0455882 6.30294e-14 1.82844e-13 9.89615e-14 0 9.36293e-18
1537 16 0.001 0.00500432 0.00362606 -0.0453107 4.49526e-14 1.24387e-13 1.09435e-13 0 1.79803e-17
1536 16 0.001 0.00594702 0.00378947 -0.0450232 7.75478e-14 7.38372e-14 1.3352e-13 0 1.8494e-17
1535 16 0.001 0.00689846 0.00371244 -0.0447285 5.83354e-14 1.51778e-14 1.15783e-13 0 1.09134e-17
1933 18 0.001 0.0250043 0.00362606 -0.0453107 6.5862e-14 1.31091e-13 1.16532e-13 0 1.79803e-17
1934 18 0.001 0.0241293 0.00323186 -0.0455882 6.46013e-14 1.89212e-13 9.88633e-14 0 9.36293e-18
1932 18 0.001 0.025947 0.00378947 -0.0450232 7.6931e-14 6.74695e-14 1.32516e-13 0 1.8494e-17
1931 18 0.001 0.0268985 0.00371244 -0.0447285 3.22399e-14 1.60848e-14 1.0869e-13 0 1.09134e-17
361 11 0.001 -0.0501431 -0.000579211 -0.0429749 4.54218e-14 -1.78738e-13 -1.44296e-13 0 1.28742e-16
737 12 0.001 -0.0301429 -0.000577867 -0.0429745 -1.1192e-13 -1.82456e-13 -1.36469e-13 0 1.32905e-16
1133 14 0.001 -0.0101429 -0.000577867 -0.0429745 -8.85631e-14 -1.86027e-13 -1.35502e-13 0 1.32905e-16
1529 16 0.001 0.0098571 -0.000577867 -0.0429745 -1.13522e-13 -1.86807e-13 -1.35772e-13 0 1.32905e-16
1925 18 0.001 0.0298571 -0.000577867 -0.0429745 -1.12015e-13 -1.88382e-13 -1.34621e-13 0 1.32905e-16
362 11 0.001 -0.0501175 0.000379729 -0.0432538 -1.94027e-13 -1.83408e-13 -1.03633e-13 0 9.14368e-17
363 11 0.001 -0.0503312 0.00131265 -0.0435402 4.79939e-14 -1.82573e-13 -3.2002e-14 0 5.10963e-17
738 12 0.001 -0.0301177 0.000381074 -0.0432534 -7.00308e-14 -1.94348e-13 -9.88689e-14 0 9.5399e-17
739 12 0.001 -0.0303317 0.00131391 -0.0435398 3.98877e-14 -1.82918e-13 -2.19681e-14 0 5.44508e-17
1134 14 0.001 -0.0101177 0.000381074 -0.0432534 -8.94796e-14 -1.77673e-13 -1.01645e-13 0 9.5399e-17
1135 14 0.001 -0.0103317 0.00131391 -0.0435398 1.56456e-14 -1.9192e-13 -2.7955e-14 0 5.44508e-17
1530 16 0.001 0.00988229 0.000381074 -0.0432534 -5.58137e-14 -1.76132e-13 -9.96595e-14 0 9.5399e-17
1531 16 0.001 0.00966831 0.00131391 -0.0435398 -1.542e-14 -1.9223e-13 -3.26076e-14 0 5.44508e-17
1926 18 0.001 0.0298823 0.000381074 -0.0432534 -7.97566e-14 -1.78451e-13 -1.01771e-13 0 9.5399e-17
1927 18 0.001 0.0296683 0.00131391 -0.0435398 2.60101e-14 -1.77438e-13 -3.0383e-14 0 5.44508e-17
365 11 0.001 -0.0514063 0.00287146 -0.0441304 -3.96351e-14 -6.26476e-14 3.25311e-14 0 3.47779e-18
364 11 0.001 -0.0507701 0.00216097 -0.043833 2.761e-14 -1.48379e-13 1.56932e-14 0 1.93033e-17
740 12 0.001 -0.0307709 0.00216205 -0.0438327 -8.5989e-14 -1.13022e-13 -2.22833e-14 0 2.15678e-17
741 12 0.001 -0.0314073 0.0028723 -0.0441302 5.61557e-14 -5.47783e-14 5.51703e-14 0 4.23368e-18
1136 14 0.001 -0.0107709 0.00216205 -0.0438327 -1.39529e-14 -1.25145e-13 -2.0771e-15 0 2.15679e-17
1137 14 0.001 -0.0114073 0.0028723 -0.0441302 9.1241e-15 -5.72155e-14 4.48923e-14 0 4.23368e-18
1533 16 0.001 0.00859266 0.0028723 -0.0441302 -1.32252e-15 -6.00794e-14 4.21742e-14 0 4.23368e-18
1532 16 0.001 0.00922911 0.00216205 -0.0438327 8.32618e-15 -1.24157e-13 2.90643e-15 0 2.15679e-17
1928 18 0.001 0.0292291 0.00216205 -0.0438327 -1.68913e-14 -1.45026e-13 3.68455e-15 0 2.15678e-17
1929 18 0.001 0.0285927 0.0028723 -0.0441302 -1.18584e-14 -4.91954e-14 3.65868e-14 0 4.23368e-18
366 11 0.001 -0.0521996 0.00339961 -0.04443 5.01214e-14 -1.96492e-14 9.13624e-14 0 3.81304e-18
742 12 0.001 -0.0322008 0.00340014 -0.0444298 1.03084e-13 -7.07457e-14 1.12949e-13 0 2.85819e-18
1138 14 0.001 -0.0122008 0.00340014 -0.0444298 7.05637e-14 -4.99654e-14 9.8633e-14 0 2.85819e-18
1534 16 0.001 0.00779915 0.00340014 -0.0444298 7.90314e-14 -4.95221e-14 1.01494e-13 0 2.85819e-18
1930 18 0.001 0.0277992 0.00340014 -0.0444298 1.11988e-13 -4.98881e-14 1.10946e-13 0 2.85819e-18
356 11 0.001 -0.053324 -0.003801 -0.0416785 -2.39342e-13 -7.30786e-14 -1.19081e-13 0 7.25281e-17
357 11 0.001 -0.052398 -0.00352189 -0.0419288 -1.52952e-13 -1.17636e-13 -1.70966e-13 0 1.07418e-16
358 11 0.001 -0.0515703 -0.00302306 -0.042182 -2.33121e-13 -1.66922e-13 -1.65907e-13 0 1.37927e-16
732 12 0.001 -0.0333227 -0.0038008 -0.0416781 -1.77112e-13 -9.02074e-14 -1.31064e-13 0 7.59376e-17
733 12 0.001 -0.0323968 -0.00352135 -0.0419284 -2.3228e-13 -1.09851e-13 -1.48384e-13 0 1.11064e-16
734 12 0.001 -0.0315693 -0.00302222 -0.0421815 -1.64703e-13 -1.45567e-13 -1.79941e-13 0 1.41733e-16
1128 14 0.001 -0.0133227 -0.0038008 -0.0416781 -1.89723e-13 -8.12771e-14 -1.29164e-13 0 7.59376e-17
1129 14 0.001 -0.0123968 -0.00352135 -0.0419284 -2.09574e-13 -1.26736e-13 -1.51199e-13 0 1.11064e-16
1130 14 0.001 -0.0115693 -0.00302222 -0.0421815 -1.9729e-13 -1.45729e-13 -1.73155e-13 0 1.41733e-16
1524 16 0.001 0.00667731 -0.0038008 -0.0416781 -1.76724e-13 -8.22106e-14 -1.32335e-13 0 7.59376e-17
1525 16 0.001 0.0076032 -0.00352135 -0.0419284 -2.13601e-13 -1.25845e-13 -1.5047e-13 0 1.11064e-16
1526 16 0.001 0.00843073 -0.00302222 -0.0421815 -2.00866e-13 -1.48009e-13 -1.72045e-13 0 1.41733e-16
1920 18 0.001 0.0266773 -0.0038008 -0.0416781 -1.87005e-13 -8.45179e-14 -1.31794e-13 0 7.59376e-17
1921 18 0.001 0.0276032 -0.00352135 -0.0419284 -2.26884e-13 -1.26495e-13 -1.4545e-13 0 1.11064e-16
1922 18 0.001 0.0284307 -0.00302222 -0.0421815 -1.8613e-13 -1.44426e-13 -1.76492e-13 0 1.41733e-16
359 11 0.001 -0.0508925 -0.00233594 -0.0424397 -1.15854e-13 -1.73041e-13 -1.8845e-13 0 1.54889e-16
360 11 0.001 -0.0504067 -0.00150385 -0.0427037 -2.41333e-13 -2.08187e-13 -1.55096e-13 0 1.51982e-16
735 12 0.001 -0.0308917 -0.00233486 -0.0424393 -1.75631e-13 -1.90598e-13 -1.72689e-13 0 1.5885e-16
736 12 0.001 -0.0304062 -0.00150259 -0.0427033 -1.25344e-13 -1.91534e-13 -1.64456e-13 0 1.56092e-16
1131 14 0.001 -0.0108917 -0.00233486 -0.0424393 -1.61578e-13 -1.78896e-13 -1.77878e-13 0 1.5885e-16
1132 14 0.001 -0.0104062 -0.00150259 -0.0427033 -1.31159e-13 -1.97913e-13 -1.62986e-13 0 1.56092e-16
1527 16 0.001 0.0091083 -0.00233486 -0.0424393 -1.59581e-13 -1.78732e-13 -1.78378e-13 0 1.5885e-16
1528 16 0.001 0.00959376 -0.00150259 -0.0427033 -1.22542e-13 -1.97048e-13 -1.63284e-13 0 1.56092e-16
1923 18 0.001 0.0291083 -0.00233486 -0.0424393 -1.69648e-13 -1.79722e-13 -1.76368e-13 0 1.5885e-16
1924 18 0.001 0.0295938 -0.00150259 -0.0427033 -1.15542e-13 -1.97287e-13 -1.64093e-13 0 1.56092e-16
353 11 0.001 -0.0561053 -0.00321926 -0.0409275 -7.92691e-14 2.48791e-14 -1.39642e-14 0 7.23218e-18
355 11 0.001 -0.0542905 -0.00384284 -0.0414292 -2.04354e-13 -6.32309e-14 -8.59492e-14 0 4.16315e-17
354 11 0.001 -0.0552373 -0.00364478 -0.0411794 -1.6037e-13 -6.14855e-15 -5.50267e-14 0 1.96393e-17
729 12 0.001 -0.0361042 -0.00322008 -0.0409271 -1.53662e-13 2.1376e-14 -7.21977e-15 0 8.9663e-18
730 12 0.001 -0.035236 -0.00364529 -0.041179 -1.26059e-13 8.46908e-16 -5.59934e-14 0 2.20715e-17
731 12 0.001 -0.0342892 -0.003843 -0.0414288 -2.45683e-13 -5.42347e-14 -7.33221e-14 0 4.46458e-17
1125 14 0.001 -0.0161042 -0.00322008 -0.0409271 -1.5888e-13 1.40735e-14 -8.69054e-15 0 8.9663e-18
1126 14 0.001 -0.015236 -0.00364529 -0.041179 -1.77484e-13 1.12849e-14 -4.11744e-14 0 2.20715e-17
1127 14 0.001 -0.0142892 -0.003843 -0.0414288 -2.02504e-13 -5.41013e-14 -8.4514e-14 0 4.46458e-17
1521 16 0.001 0.00389577 -0.00322008 -0.0409271 -1.39619e-13 2.77655e-14 -1.11604e-14 0 8.9663e-18
1523 16 0.001 0.00571082 -0.003843 -0.0414288 -2.10581e-13 -4.51288e-14 -8.18884e-14 0 4.46458e-17
1522 16 0.001 0.00476398 -0.00364529 -0.041179 -1.8991e-13 -5.72131e-15 -4.01763e-14 0 2.20715e-17
1917 18 0.001 0.0238958 -0.00322008 -0.0409271 -1.45435e-13 2.01431e-14 -1.06368e-14 0 8.9663e-18
1918 18 0.001 0.024764 -0.00364529 -0.041179 -1.98487e-13 6.74653e-15 -3.74573e-14 0 2.20715e-17
1919 18 0.001 0.0257108 -0.003843 -0.0414288 -1.83029e-13 -5.06896e-14 -8.7703e-14 0 4.46458e-17
351 11 0.001 -0.0573978 -0.00180486 -0.0404146 6.47796e-14 8.33535e-14 3.22012e-14 0 4.80402e-19
352 11 0.001 -0.0568407 -0.0025929 -0.0406728 -3.09557e-13 7.24838e-14 5.14419e-14 0 1.97289e-18
727 12 0.001 -0.0373972 -0.00180617 -0.0404141 -4.89101e-14 8.56138e-14 3.9736e-14 0 1.20704e-18
728 12 0.001 -0.0368398 -0.002594 -0.0406724 -1.36317e-13 4.07578e-14 2.59954e-14 0 3.06342e-18
1123 14 0.001 -0.0173972 -0.00180617 -0.0404141 -7.81956e-14 8.83076e-14 4.42356e-14 0 1.20704e-18
1124 14 0.001 -0.0168398 -0.002594 -0.0406724 -9.53842e-14 3.80651e-14 1.91719e-14 0 3.06342e-18
1519 16 0.001 0.00260277 -0.00180617 -0.0404141 -8.97155e-14 8.83067e-14 4.50877e-14 0 1.20704e-18
1520 16 0.001 0.00316015 -0.002594 -0.0406724 -9.78649e-14 3.57707e-14 2.01885e-14 0 3.06342e-18
1915 18 0.001 0.0226028 -0.00180617 -0.0404141 -6.76008e-14 8.9889e-14 4.37012e-14 0 1.20704e-18
1916 18 0.001 0.0231602 -0.002594 -0.0406724 -1.01289e-13 3.5417e-14 2.00556e-14 0 3.06342e-18
350 11 0.001 -0.0577421 -0.000904333 -0.0401528 -4.58524e-14 5.21859e-14 3.73039e-14 0 5.2263e-19
726 12 0.001 -0.0377419 -0.000905774 -0.0401524 -2.11086e-14 9.10094e-14 5.52402e-14 0 1.37341e-18
1122 14 0.001 -0.0177419 -0.000905774 -0.0401524 -2.31379e-14 8.54243e-14 5.22917e-14 0 1.37341e-18
1518 16 0.001 0.00225813 -0.000905774 -0.0401524 -1.98311e-14 8.45407e-14 5.14876e-14 0 1.37341e-18
1914 18 0.001 0.0222581 -0.000905774 -0.0401524 -5.84583e-14 8.53495e-14 5.33157e-14 0 1.37341e-18
348 11 0.001 -0.0577221 0.00100619 -0.0396202 -4.04655e-14 1.12921e-13 1.4187e-14 0 7.15123e-18
349 11 0.001 -0.0578524 5.25566e-05 -0.0398878 3.98697e-14 1.05177e-13 5.32973e-14 0 2.09812e-18
724 12 0.001 -0.0377225 0.00100475 -0.0396198 1.36018e-13 9.25378e-14 3.20128e-14 0 1.00586e-17
725 12 0.001 -0.0378525 5.10714e-05 -0.0398874 -3.14442e-14 1.02892e-13 3.7112e-14 0 3.68057e-18
1120 14 0.001 -0.0177225 0.00100475 -0.0396198 8.57672e-14 9.47999e-14 2.6957e-14 0 1.00586e-17
1121 14 0.001 -0.0178525 5.10714e-05 -0.0398874 3.84408e-15 1.11489e-13 4.1477e-14 0 3.68057e-18
1516 16 0.001 0.00227747 0.00100475 -0.0396198 6.5306e-14 9.8377e-14 2.63867e-14 0 1.00586e-17
1517 16 0.001 0.00214746 5.10714e-05 -0.0398874 2.03735e-14 1.1055e-13 4.19725e-14 0 3.68057e-18
1912 18 0.001 0.0222775 0.00100475 -0.0396198 4.3502e-14 1.0725e-13 2.73682e-14 0 1.00586e-17
1913 18 0.001 0.0221475 5.10714e-05 -0.0398874 5.5527e-14 1.06181e-13 4.06685e-14 0 3.68057e-18
347 11 0.001 -0.0573593 0.00189716 -0.0393508 2.37116e-13 6.93436e-14 1.25036e-14 0 1.82119e-17
346 11 0.001 -0.0567868 0.00266995 -0.0390805 1.02446e-13 1.06588e-13 -3.48552e-14 0 3.66947e-17
722 12 0.001 -0.0367879 0.00266886 -0.03908 2.17784e-13 6.27819e-14 -2.60726e-14 0 4.33298e-17
723 12 0.001 -0.0373601 0.00189586 -0.0393504 4.2862e-14 1.03024e-13 -8.35472e-15 0 2.28864e-17
1118 14 0.001 -0.0167879 0.00266886 -0.03908 1.48966e-13 7.53293e-14 -3.69618e-14 0 4.33298e-17
1119 14 0.001 -0.0173601 0.00189586 -0.0393504 1.04876e-13 8.64331e-14 -1.61383e-15 0 2.28864e-17
1515 16 0.001 0.0026399 0.00189586 -0.0393504 1.12989e-13 8.13177e-14 -2.03941e-15 0 2.28864e-17
1514 16 0.001 0.00321208 0.00266886 -0.03908 1.51349e-13 7.847e-14 -3.59188e-14 0 4.33298e-17
1910 18 0.001 0.0232121 0.00266886 -0.03908 1.32869e-13 8.20732e-14 -3.81744e-14 0 4.33298e-17
1911 18 0.001 0.0226399 0.00189586 -0.0393504 1.35099e-13 7.37135e-14 -5.51441e-16 0 2.28864e-17
345 11 0.001 -0.0560404 0.00327635 -0.03881 1.69424e-13 1.75308e-14 -7.67632e-14 0 6.16757e-17
344 11 0.001 -0.0551666 0.0036785 -0.0385402 2.15286e-13 8.84747e-15 -9.13984e-14 0 8.96967e-17
721 12 0.001 -0.0360417 0.00327555 -0.0388096 1.31912e-13 2.66568e-14 -7.9649e-14 0 7.01833e-17
720 12 0.001 -0.0351681 0.00367803 -0.0385397 2.27675e-13 2.06402e-14 -8.76995e-14 0 9.97428e-17
1117 14 0.001 -0.0160417 0.00327555 -0.0388096 1.77178e-13 2.70407e-14 -7.04607e-14 0 7.01833e-17
1116 14 0.001 -0.0151681 0.00367803 -0.0385397 2.07463e-13 1.57835e-14 -9.2968e-14 0 9.97428e-17
1513 16 0.001 0.00395827 0.00327555 -0.0388096 1.77275e-13 2.4113e-14 -7.07485e-14 0 7.01833e-17
1512 16 0.001 0.00483189 0.00367803 -0.0385397 1.92042e-13 1.49761e-14 -9.6844e-14 0 9.97428e-17
1909 18 0.001 0.0239583 0.00327555 -0.0388096 1.72487e-13 2.58747e-14 -7.22805e-14 0 7.01833e-17
1908 18 0.001 0.0248319 0.00367803 -0.0385397 2.03825e-13 1.14402e-14 -9.43222e-14 0 9.97428e-17
338 11 0.001 -0.0504187 0.00140621 -0.0369487 1.9526e-13 -1.59286e-13 -5.35646e-14 0 1.05089e-16
714 12 0.001 -0.0304193 0.00140759 -0.0369483 7.33297e-14 -1.55486e-13 -6.37773e-14 0 1.14616e-16
1110 14 0.001 -0.0104193 0.00140759 -0.0369483 1.19907e-13 -1.47248e-13 -6.12811e-14 0 1.14616e-16
1506 16 0.001 0.00958073 0.00140759 -0.0369483 1.02783e-13 -1.47977e-13 -6.33074e-14 0 1.14616e-16
1902 18 0.001 0.0295807 0.00140759 -0.0369483 8.72616e-14 -1.43103e-13 -6.49252e-14 0 1.14616e-16
340 11 0.001 -0.0515356 0.00295873 -0.0374743 2.4597e-13 -1.3546e-13 -9.42185e-14 0 1.38808e-16
339 11 0.001 -0.0508795 0.00225284 -0.0372112 9.68289e-14 -1.30095e-13 -1.04145e-13 0 1.25142e-16
716 12 0.001 -0.0315368 0.00295967 -0.0374739 1.70684e-13 -9.53899e-14 -1.2121e-13 0 1.49948e-16
715 12 0.001 -0.0308804 0.00225403 -0.0372108 1.68311e-13 -1.31654e-13 -8.97228e-14 0 1.35563e-16
1111 14 0.001 -0.0108804 0.00225403 -0.0372108 1.53796e-13 -1.44242e-13 -8.89982e-14 0 1.35563e-16
1112 14 0.001 -0.0115368 0.00295967 -0.0374739 1.647e-13 -9.86218e-14 -1.21434e-13 0 1.49948e-16
1508 16 0.001 0.00846318 0.00295967 -0.0374739 1.71145e-13 -9.93379e-14 -1.19558e-13 0 1.49948e-16
1507 16 0.001 0.00911956 0.00225403 -0.0372108 1.65112e-13 -1.43342e-13 -8.77706e-14 0 1.35563e-16
1904 18 0.001 0.0284632 0.00295967 -0.0374739 1.54733e-13 -9.99488e-14 -1.22148e-13 0 1.49948e-16
1903 18 0.001 0.0291196 0.00225403 -0.0372108 1.78022e-13 -1.45509e-13 -8.57718e-14 0 1.35563e-16
343 11 0.001 -0.0542201 0.00385122 -0.0382715 2.34944e-13 -2.27851e-14 -1.10783e-13 0 1.15665e-16
342 11 0.001 -0.0532598 0.00378362 -0.0380043 2.0154e-13 -4.91084e-14 -1.30624e-13 0 1.34445e-16
341 11 0.001 -0.052346 0.00347982 -0.0377386 1.6396e-13 -8.28703e-14 -1.374e-13 0 1.4248e-16
719 12 0.001 -0.0342216 0.00385111 -0.038271 1.99866e-13 -1.89605e-14 -1.19557e-13 0 1.26755e-16
718 12 0.001 -0.0332613 0.00378388 -0.0380038 2.05268e-13 -5.25285e-14 -1.31521e-13 0 1.46031e-16
717 12 0.001 -0.0323474 0.00348045 -0.0377382 2.28547e-13 -1.1514e-13 -1.10629e-13 0 1.5405e-16
1115 14 0.001 -0.0142216 0.00385111 -0.038271 2.18801e-13 -1.83012e-14 -1.14831e-13 0 1.26755e-16
1113 14 0.001 -0.0123474 0.00348045 -0.0377382 2.33671e-13 -9.7947e-14 -1.1248e-13 0 1.5405e-16
1114 14 0.001 -0.0132613 0.00378388 -0.0380038 1.92377e-13 -6.11428e-14 -1.33091e-13 0 1.46031e-16
1511 16 0.001 0.00577839 0.00385111 -0.038271 2.38561e-13 -1.64954e-14 -1.09551e-13 0 1.26755e-16
1510 16 0.001 0.00673865 0.00378388 -0.0380038 1.91847e-13 -5.90449e-14 -1.33524e-13 0 1.46031e-16
1509 16 0.001 0.00765263 0.00348045 -0.0377382 2.18812e-13 -9.96548e-14 -1.15967e-13 0 1.5405e-16
1907 18 0.001 0.0257784 0.00385111 -0.038271 2.45697e-13 -1.80961e-14 -1.07513e-13 0 1.26755e-16
1906 18 0.001 0.0267387 0.00378388 -0.0380038 1.70804e-13 -5.42289e-14 -1.3885e-13 0 1.46031e-16
1905 18 0.001 0.0276526 0.00348045 -0.0377382 2.39041e-13 -1.00784e-13 -1.11711e-13 0 1.5405e-16
333 11 0.001 -0.0515488 -0.00297223 -0.0356333 -4.57251e-14 -9.59352e-14 2.47515e-14 0 2.59174e-17
334 11 0.001 -0.0508896 -0.00226966 -0.0358978 -5.37355e-14 -8.5825e-14 2.9788e-14 0 3.335e-17
709 12 0.001 -0.0315476 -0.0029713 -0.0356329 -1.21484e-13 -7.84015e-14 3.87091e-14 0 3.15259e-17
710 12 0.001 -0.0308887 -0.00226847 -0.0358974 -4.39471e-14 -8.18384e-14 3.10867e-14 0 3.94027e-17
1105 14 0.001 -0.0115476 -0.0029713 -0.0356329 -8.0687e-14 -8.38347e-14 2.97423e-14 0 3.15259e-17
1106 14 0.001 -0.0108887 -0.00226847 -0.0358974 -1.29693e-14 -8.69574e-14 2.77697e-14 0 3.94027e-17
1501 16 0.001 0.00845244 -0.0029713 -0.0356329 -9.03579e-14 -8.1348e-14 3.1985e-14 0 3.15259e-17
1502 16 0.001 0.00911131 -0.00226847 -0.0358974 -1.81757e-14 -8.97682e-14 2.83894e-14 0 3.94027e-17
1897 18 0.001 0.0284524 -0.0029713 -0.0356329 -7.59708e-14 -8.68625e-14 2.94701e-14 0 3.15259e-17
1898 18 0.001 0.0291113 -0.00226847 -0.0358974 -2.65102e-14 -7.30406e-14 2.59472e-14 0 3.94027e-17
335 11 0.001 -0.0504251 -0.00142543 -0.0361614 -1.11885e-14 -1.44134e-13 1.47447e-14 0 4.53921e-17
336 11 0.001 -0.0501841 -0.000492209 -0.0364242 9.68012e-14 -1.39591e-13 -9.95967e-15 0 6.22058e-17
711 12 0.001 -0.0304245 -0.00142405 -0.036161 2.59675e-14 -1.50788e-13 2.79683e-15 0 5.21367e-17
712 12 0.001 -0.030184 -0.000490736 -0.0364238 2.66452e-15 -1.1652e-13 -4.72912e-15 0 6.98128e-17
1107 14 0.001 -0.0104245 -0.00142405 -0.036161 -9.4879e-15 -1.36869e-13 4.29539e-15 0 5.21367e-17
1108 14 0.001 -0.010184 -0.000490736 -0.0364238 3.31648e-14 -1.1663e-13 -6.51311e-15 0 6.98128e-17
1503 16 0.001 0.00957552 -0.00142405 -0.036161 2.43607e-17 -1.35495e-13 3.83501e-15 0 5.21367e-17
1504 16 0.001 0.00981605 -0.000490736 -0.0364238 3.11411e-14 -1.11226e-13 -9.22055e-15 0 6.98128e-17
1899 18 0.001 0.0295755 -0.00142405 -0.036161 2.65378e-14 -1.5428e-13 5.51888e-15 0 5.21367e-17
1900 18 0.001 0.029816 -0.000490736 -0.0364238 -6.27902e-15 -9.87414e-14 -9.66406e-15 0 6.98128e-17
337 11 0.001 -0.050182 0.000471737 -0.0366865 -6.96655e-15 -1.25804e-13 -4.76176e-14 0 8.28877e-17
713 12 0.001 -0.0301822 0.00047321 -0.0366862 1.28263e-13 -1.62258e-13 -3.69398e-14 0 9.14487e-17
1109 14 0.001 -0.0101822 0.00047321 -0.0366862 8.27841e-14 -1.67257e-13 -3.77737e-14 0 9.14487e-17
1505 16 0.001 0.00981783 0.00047321 -0.0366862 9.07697e-14 -1.70286e-13 -3.50641e-14 0 9.14487e-17
1901 18 0.001 0.0298178 0.00047321 -0.0366862 1.19118e-13 -1.7839e-13 -3.36935e-14 0 9.14487e-17
328 11 0.001 -0.0560564 -0.00326798 -0.0343023 -1.55051e-13 1.44239e-13 -3.59646e-14 0 4.03533e-17
329 11 0.001 -0.0551836 -0.00367444 -0.034569 -1.37355e-13 8.645e-14 -2.56576e-14 0 3.15201e-17
330 11 0.001 -0.0542373 -0.0038517 -0.0348356 -5.47405e-14 4.57771e-14 -2.32161e-14 0 2.5477e-17
331 11 0.001 -0.0532766 -0.00378869 -0.0351021 -7.46709e-14 -1.93418e-14 5.925e-16 0 2.24219e-17
332 11 0.001 -0.0523613 -0.00348932 -0.0353681 -1.25844e-13 -1.27759e-14 3.69442e-14 0 2.24676e-17
704 12 0.001 -0.036055 -0.00326889 -0.0343018 -1.35929e-13 1.02937e-13 -4.80628e-14 0 4.85141e-17
705 12 0.001 -0.0351821 -0.00367499 -0.0345685 -1.39527e-13 9.79387e-14 -2.64259e-14 0 3.86245e-17
706 12 0.001 -0.0342357 -0.00385186 -0.0348352 -1.24132e-14 2.87027e-14 -3.84917e-14 0 3.17286e-17
707 12 0.001 -0.033275 -0.00378846 -0.0351017 -2.40354e-13 1.09339e-14 4.67206e-14 0 2.8114e-17
708 12 0.001 -0.0323599 -0.00348871 -0.0353676 3.51858e-14 -3.88744e-14 -6.96637e-15 0 2.79438e-17
1100 14 0.001 -0.016055 -0.00326889 -0.0343018 -1.02335e-13 9.53027e-14 -5.60933e-14 0 4.85141e-17
1101 14 0.001 -0.0151821 -0.00367499 -0.0345685 -8.55336e-14 9.41552e-14 -4.03378e-14 0 3.86245e-17
1102 14 0.001 -0.0142357 -0.00385186 -0.0348352 -1.58923e-13 3.79166e-14 -1.63281e-15 0 3.17286e-17
1104 14 0.001 -0.0123599 -0.00348871 -0.0353676 -1.06513e-13 -3.25071e-14 2.61012e-14 0 2.79438e-17
1103 14 0.001 -0.013275 -0.00378846 -0.0351017 -7.03334e-14 3.35768e-15 5.67893e-15 0 2.8114e-17
1496 16 0.001 0.00394497 -0.00326889 -0.0343018 -9.24833e-14 1.06042e-13 -5.86016e-14 0 4.85141e-17
1497 16 0.001 0.00481789 -0.00367499 -0.0345685 -1.07886e-13 8.67657e-14 -3.17675e-14 0 3.86245e-17
1498 16 0.001 0.00576426 -0.00385186 -0.0348352 -1.24694e-13 4.28058e-14 -1.57509e-14 0 3.17286e-17
1499 16 0.001 0.00672498 -0.00378846 -0.0351017 -9.36844e-14 -4.25449e-16 1.5426e-14 0 2.8114e-17
1500 16 0.001 0.00764008 -0.00348871 -0.0353676 -9.38497e-14 -3.60253e-14 2.22807e-14 0 2.79438e-17
1892 18 0.001 0.023945 -0.00326889 -0.0343018 -1.34872e-13 9.31603e-14 -5.04895e-14 0 4.85141e-17
1893 18 0.001 0.0248179 -0.00367499 -0.0345685 -1.01378e-13 9.15192e-14 -3.43552e-14 0 3.86245e-17
1894 18 0.001 0.0257643 -0.00385186 -0.0348352 -1.03977e-13 4.98158e-14 -1.75854e-14 0 3.17286e-17
1895 18 0.001 0.026725 -0.00378846 -0.0351017 -1.1058e-13 -6.17422e-15 1.7342e-14 0 2.8114e-17
1896 18 0.001 0.0276401 -0.00348871 -0.0353676 -1.02813e-13 -3.39644e-14 2.49768e-14 0 2.79438e-17
327 11 0.001 -0.0568011 -0.00265769 -0.0340359 -7.38032e-14 1.14716e-13 -8.68258e-14 0 5.14173e-17
703 12 0.001 -0.0368 -0.00265891 -0.0340355 -6.54633e-14 1.5051e-13 -8.19621e-14 0 6.07248e-17
1099 14 0.001 -0.0168 -0.00265891 -0.0340355 -9.95667e-14 1.61486e-13 -7.45751e-14 0 6.07248e-17
1495 16 0.001 0.00319999 -0.00265891 -0.0340355 -8.57054e-14 1.52644e-13 -7.73584e-14 0 6.07248e-17