ITEM: TIMESTEP
5900000
ITEM: NUMBER OF ATOMS
1970
ITEM: BOX BOUNDS ff ff ff
-6.0000000000000005e-02 6.0000000000000005e-02
-6.0000000000000001e-03 6.0000000000000001e-03
-5.5000000000000000e-02 5.5000000000000000e-02
ITEM: ATOMS id type radius x y z fx fy fz c_bendingE c_stretchingE
384 11 0.001 -0.0508275 -0.00263347 -0.0489909 -6.23034e-13 7.55784e-14 -3.2246e-13 0 3.68794e-17
385 11 0.001 -0.0503257 -0.00183257 -0.0493146 -3.37403e-13 -2.6956e-15 -2.08843e-13 0 8.77435e-15
760 12 0.001 -0.0308274 -0.00263346 -0.0489909 -5.33949e-13 6.11618e-14 -3.02044e-13 0 3.79894e-17
761 12 0.001 -0.0303256 -0.00183256 -0.0493145 -3.56891e-13 2.13484e-14 -1.92899e-13 0 8.7399e-15
1156 14 0.001 -0.0108274 -0.00263346 -0.0489909 -5.28688e-13 5.86357e-14 -3.03412e-13 0 3.79894e-17
1157 14 0.001 -0.0103256 -0.00183256 -0.0493145 -3.64484e-13 1.61686e-14 -1.88501e-13 0 8.7399e-15
1552 16 0.001 0.0091726 -0.00263346 -0.0489909 -5.25007e-13 5.41927e-14 -3.02364e-13 0 3.79894e-17
1553 16 0.001 0.00967438 -0.00183256 -0.0493145 -3.65402e-13 2.00483e-14 -1.89723e-13 0 8.7399e-15
1948 18 0.001 0.0291726 -0.00263346 -0.0489909 -5.6438e-13 6.41066e-14 -2.99126e-13 0 3.79894e-17
1949 18 0.001 0.0296744 -0.00183256 -0.0493145 -3.69825e-13 8.13912e-15 -1.86157e-13 0 8.7399e-15
2 2 0.001 -0.05 -4.31175e-17 -0.05 -3.28115e-06 3.6687e-06 2.06838e-06 0 7.44711e-15
386 11 0.001 -0.0500441 -0.000935622 -0.0496526 -2.29472e-13 -3.13959e-14 -8.55022e-14 0 1.6192e-14
762 12 0.001 -0.0300441 -0.000935611 -0.0496526 -2.02573e-13 -4.21059e-14 -7.15651e-14 0 1.6118e-14
4 4 0.001 -0.03 -4.31175e-17 -0.05 -3.29081e-06 3.69533e-06 2.06048e-06 0 7.40926e-15
6 6 0.001 -0.01 -4.31175e-17 -0.05 -3.29081e-06 3.69533e-06 2.06048e-06 0 7.40926e-15
1158 14 0.001 -0.0100441 -0.000935611 -0.0496526 -2.04207e-13 -4.26808e-14 -7.24095e-14 0 1.6118e-14
8 8 0.001 0.01 -4.31175e-17 -0.05 -3.29081e-06 3.69533e-06 2.06048e-06 0 7.40926e-15
1554 16 0.001 0.0099559 -0.000935611 -0.0496526 -2.08239e-13 -4.52021e-14 -7.13992e-14 0 1.6118e-14
10 10 0.001 0.03 -4.31175e-17 -0.05 -3.29081e-06 3.69533e-06 2.06048e-06 0 7.40926e-15
1950 18 0.001 0.0299559 -0.000935611 -0.0496526 -1.91499e-13 -3.99194e-14 -7.38349e-14 0 1.6118e-14
379 11 0.001 -0.0552002 -0.00376564 -0.0476578 -8.1694e-13 7.34187e-13 -7.70345e-13 0 1.24999e-15
380 11 0.001 -0.0542565 -0.00399887 -0.0478881 -9.238e-13 5.74113e-13 -7.2902e-13 0 1.06575e-15
381 11 0.001 -0.0532883 -0.00399318 -0.0481344 -8.79895e-13 4.22806e-13 -6.67521e-13 0 7.45675e-16
382 11 0.001 -0.0523563 -0.00375026 -0.0483996 -8.14891e-13 2.91036e-13 -5.7346e-13 0 3.86919e-16
383 11 0.001 -0.0515186 -0.00328683 -0.0486853 -6.77087e-13 1.36584e-13 -4.53109e-13 0 1.13886e-16
755 12 0.001 -0.0352001 -0.00376571 -0.0476577 -8.19532e-13 7.05257e-13 -7.27602e-13 0 1.25223e-15
756 12 0.001 -0.0342564 -0.00399892 -0.047888 -8.85718e-13 5.68971e-13 -6.95888e-13 0 1.06547e-15
757 12 0.001 -0.0332882 -0.00399321 -0.0481343 -8.22199e-13 4.06599e-13 -6.36895e-13 0 7.43211e-16
758 12 0.001 -0.0323562 -0.00375027 -0.0483995 -7.65962e-13 2.83053e-13 -5.40926e-13 0 3.83459e-16
759 12 0.001 -0.0315185 -0.00328683 -0.0486852 -7.19562e-13 1.41519e-13 -4.09843e-13 0 1.11453e-16
1151 14 0.001 -0.0152001 -0.00376571 -0.0476577 -8.62839e-13 7.01054e-13 -7.19999e-13 0 1.25223e-15
1152 14 0.001 -0.0142564 -0.00399892 -0.047888 -8.57612e-13 5.6406e-13 -7.01105e-13 0 1.06547e-15
1153 14 0.001 -0.0132882 -0.00399321 -0.0481343 -8.33469e-13 4.15896e-13 -6.35646e-13 0 7.43211e-16
1154 14 0.001 -0.0123562 -0.00375027 -0.0483995 -7.75119e-13 2.68986e-13 -5.36445e-13 0 3.83459e-16
1155 14 0.001 -0.0115185 -0.00328683 -0.0486852 -7.06998e-13 1.57361e-13 -4.15671e-13 0 1.11453e-16
1547 16 0.001 0.00479993 -0.00376571 -0.0476577 -8.1565e-13 7.03244e-13 -7.32349e-13 0 1.25223e-15
1548 16 0.001 0.00574364 -0.00399892 -0.047888 -8.75402e-13 5.58345e-13 -6.95142e-13 0 1.06547e-15
1549 16 0.001 0.00671179 -0.00399321 -0.0481343 -8.41608e-13 4.19037e-13 -6.34811e-13 0 7.43211e-16
1550 16 0.001 0.00764381 -0.00375027 -0.0483995 -7.63434e-13 2.6625e-13 -5.38137e-13 0 3.83459e-16
1551 16 0.001 0.00848146 -0.00328683 -0.0486852 -7.11996e-13 1.62615e-13 -4.16198e-13 0 1.11453e-16
1943 18 0.001 0.0247999 -0.00376571 -0.0476577 -8.51644e-13 7.09161e-13 -7.23104e-13 0 1.25223e-15
1944 18 0.001 0.0257436 -0.00399892 -0.047888 -8.7011e-13 5.55218e-13 -6.97553e-13 0 1.06547e-15
1945 18 0.001 0.0267118 -0.00399321 -0.0481343 -8.41115e-13 4.16925e-13 -6.33006e-13 0 7.43211e-16
1946 18 0.001 0.0276438 -0.00375027 -0.0483995 -7.81906e-13 2.81801e-13 -5.39506e-13 0 3.83459e-16
1947 18 0.001 0.0284815 -0.00328683 -0.0486852 -6.59047e-13 1.46545e-13 -4.20764e-13 0 1.11453e-16
378 11 0.001 -0.0560603 -0.00330697 -0.0474392 -7.94236e-13 8.64597e-13 -7.42095e-13 0 1.2556e-15
754 12 0.001 -0.0360602 -0.00330706 -0.0474391 -7.76888e-13 8.15e-13 -7.17906e-13 0 1.25997e-15
1150 14 0.001 -0.0160602 -0.00330706 -0.0474391 -7.06091e-13 8.27236e-13 -7.27965e-13 0 1.25997e-15
1546 16 0.001 0.00393977 -0.00330706 -0.0474391 -7.62138e-13 8.28777e-13 -7.15835e-13 0 1.25997e-15
1942 18 0.001 0.0239398 -0.00330706 -0.0474391 -7.00384e-13 8.22765e-13 -7.28606e-13 0 1.25997e-15
376 11 0.001 -0.0573237 -0.00183732 -0.0470171 -4.62412e-13 1.04513e-12 -5.81117e-13 0 8.40342e-16
377 11 0.001 -0.0567832 -0.00265072 -0.0472274 -7.13077e-13 9.65693e-13 -6.7377e-13 0 1.09904e-15
753 12 0.001 -0.0367831 -0.00265083 -0.0472273 -5.78406e-13 9.55253e-13 -6.59118e-13 0 1.10474e-15
752 12 0.001 -0.0373236 -0.00183743 -0.0470171 -5.71778e-13 9.92974e-13 -5.50811e-13 0 8.46444e-16
1149 14 0.001 -0.0167831 -0.00265083 -0.0472273 -6.82846e-13 9.4107e-13 -6.48096e-13 0 1.10474e-15
1148 14 0.001 -0.0173236 -0.00183743 -0.0470171 -4.80232e-13 1.00214e-12 -5.58178e-13 0 8.46444e-16
1544 16 0.001 0.00267636 -0.00183743 -0.0470171 -5.01167e-13 1.00053e-12 -5.56232e-13 0 8.46444e-16
1545 16 0.001 0.00321691 -0.00265083 -0.0472273 -6.41893e-13 9.42988e-13 -6.54464e-13 0 1.10474e-15
1941 18 0.001 0.0232169 -0.00265083 -0.0472273 -6.89104e-13 9.37798e-13 -6.47792e-13 0 1.10474e-15
1940 18 0.001 0.0226764 -0.00183743 -0.0470171 -4.82407e-13 1.00725e-12 -5.5729e-13 0 8.46444e-16
375 11 0.001 -0.0576485 -0.000917086 -0.0468035 -3.88236e-13 1.06621e-12 -4.33785e-13 0 5.55538e-16
751 12 0.001 -0.0376485 -0.000917208 -0.0468034 -3.30676e-13 1.03139e-12 -4.24339e-13 0 5.61175e-16
1147 14 0.001 -0.0176485 -0.000917208 -0.0468034 -3.49935e-13 1.03149e-12 -4.20093e-13 0 5.61175e-16
1543 16 0.001 0.00235147 -0.000917208 -0.0468034 -3.38687e-13 1.02796e-12 -4.21219e-13 0 5.61175e-16
1939 18 0.001 0.0223515 -0.000917208 -0.0468034 -3.39315e-13 1.0287e-12 -4.20425e-13 0 5.61175e-16
373 11 0.001 -0.0575873 0.00101286 -0.0463499 -6.51602e-14 9.94579e-13 -1.19785e-13 0 1.37196e-16
374 11 0.001 -0.057738 5.29762e-05 -0.0465821 -1.15221e-13 1.04556e-12 -2.77493e-13 0 3.09234e-16
749 12 0.001 -0.0375873 0.00101275 -0.0463499 -5.05987e-14 9.22118e-13 -1.18436e-13 0 1.40348e-16
750 12 0.001 -0.037738 5.28542e-05 -0.0465821 -1.30046e-13 1.01344e-12 -2.65399e-13 0 3.13785e-16
1145 14 0.001 -0.0175873 0.00101275 -0.0463499 -1.82043e-14 9.20656e-13 -1.14404e-13 0 1.40348e-16
1146 14 0.001 -0.017738 5.28542e-05 -0.0465821 -1.67317e-13 1.0065e-12 -2.71025e-13 0 3.13785e-16
1541 16 0.001 0.00241267 0.00101275 -0.0463499 -2.24235e-14 9.23271e-13 -1.15455e-13 0 1.40348e-16
1542 16 0.001 0.00226195 5.28542e-05 -0.0465821 -1.71796e-13 1.00877e-12 -2.70237e-13 0 3.13785e-16
1937 18 0.001 0.0224127 0.00101275 -0.0463499 1.22087e-14 9.21858e-13 -1.1173e-13 0 1.40348e-16
1938 18 0.001 0.022262 5.28542e-05 -0.0465821 -1.9404e-13 1.00894e-12 -2.72413e-13 0 3.13785e-16
372 11 0.001 -0.0572064 0.00190333 -0.046105 2.0242e-13 8.30283e-13 2.7424e-14 0 4.30409e-17
748 12 0.001 -0.0372065 0.00190323 -0.0461049 1.70171e-13 8.50208e-13 3.75437e-14 0 4.47905e-17
1144 14 0.001 -0.0172065 0.00190323 -0.0461049 1.62684e-13 8.53504e-13 3.67624e-14 0 4.47905e-17
1540 16 0.001 0.00279352 0.00190323 -0.0461049 1.66048e-13 8.51048e-13 3.83863e-14 0 4.47905e-17
1936 18 0.001 0.0227935 0.00190323 -0.0461049 1.62601e-13 8.55348e-13 3.96703e-14 0 4.47905e-17
371 11 0.001 -0.0566198 0.00266959 -0.0458466 2.509e-13 7.30426e-13 1.42761e-13 0 7.06492e-18
747 12 0.001 -0.0366199 0.00266951 -0.0458466 2.70238e-13 6.6611e-13 1.50325e-13 0 7.66789e-18
1143 14 0.001 -0.0166199 0.00266951 -0.0458466 2.52426e-13 6.75694e-13 1.47327e-13 0 7.66789e-18
1539 16 0.001 0.00338012 0.00266951 -0.0458466 2.54275e-13 6.7006e-13 1.44361e-13 0 7.66789e-18
1935 18 0.001 0.0233801 0.00266951 -0.0458466 2.30192e-13 6.72504e-13 1.39971e-13 0 7.66789e-18
370 11 0.001 -0.0558645 0.00326462 -0.0455756 4.65791e-13 5.31289e-13 2.4333e-13 0 1.12364e-18
369 11 0.001 -0.0549879 0.00365202 -0.0452937 4.36945e-13 3.44181e-13 2.51639e-13 0 2.49503e-18
368 11 0.001 -0.0540448 0.00380823 -0.0450035 5.42932e-13 1.18259e-13 2.50536e-13 0 1.57267e-18
367 11 0.001 -0.0530942 0.0037239 -0.0447081 5.12416e-13 -8.91236e-14 1.8407e-13 0 1.68099e-18
745 12 0.001 -0.034988 0.00365199 -0.0452937 4.62581e-13 3.13829e-13 2.66282e-13 0 2.10234e-18
746 12 0.001 -0.0358646 0.00326456 -0.0455756 3.65475e-13 5.28331e-13 2.27319e-13 0 9.97097e-19
744 12 0.001 -0.0340449 0.00380822 -0.0450035 4.47928e-13 1.18938e-13 2.36601e-13 0 1.31346e-18
743 12 0.001 -0.0330943 0.00372392 -0.0447081 5.52107e-13 -8.66541e-14 2.0709e-13 0 1.81159e-18
1142 14 0.001 -0.0158646 0.00326456 -0.0455756 3.90856e-13 5.11462e-13 2.31769e-13 0 9.97097e-19
1140 14 0.001 -0.0140449 0.00380822 -0.0450035 4.93904e-13 1.23028e-13 2.50029e-13 0 1.31346e-18
1141 14 0.001 -0.014988 0.00365199 -0.0452937 4.37253e-13 3.22529e-13 2.60316e-13 0 2.10234e-18
1139 14 0.001 -0.0130943 0.00372392 -0.0447081 4.90936e-13 -8.91382e-14 1.89151e-13 0 1.81158e-18
1538 16 0.001 0.00413541 0.00326456 -0.0455756 3.93793e-13 5.17561e-13 2.3624e-13 0 9.97097e-19
1537 16 0.001 0.00501202 0.00365199 -0.0452937 4.38264e-13 3.26284e-13 2.59197e-13 0 2.10234e-18
1536 16 0.001 0.00595509 0.00380822 -0.0450035 4.91561e-13 1.18919e-13 2.49574e-13 0 1.31346e-18
1535 16 0.001 0.0069057 0.00372392 -0.0447081 4.87693e-13 -9.00724e-14 1.88178e-13 0 1.81158e-18
1933 18 0.001 0.025012 0.00365199 -0.0452937 4.42182e-13 3.24428e-13 2.61787e-13 0 2.10234e-18
1934 18 0.001 0.0241354 0.00326456 -0.0455756 3.98149e-13 5.09432e-13 2.34241e-13 0 9.97097e-19
1932 18 0.001 0.0259551 0.00380822 -0.0450035 5.00154e-13 1.21053e-13 2.51387e-13 0 1.31346e-18
1931 18 0.001 0.0269057 0.00372392 -0.0447081 4.88855e-13 -8.93139e-14 1.89317e-13 0 1.81158e-18
361 11 0.001 -0.05016 -0.000595015 -0.0429831 -2.44212e-13 -7.92843e-13 -4.56213e-13 0 2.39628e-16
737 12 0.001 -0.03016 -0.000594902 -0.042983 -1.60723e-13 -7.75757e-13 -4.39256e-13 0 2.40713e-16
1133 14 0.001 -0.01016 -0.000594902 -0.042983 -1.41299e-13 -7.77394e-13 -4.39803e-13 0 2.40713e-16
1529 16 0.001 0.00984004 -0.000594902 -0.042983 -1.66581e-13 -7.73749e-13 -4.40115e-13 0 2.40713e-16
1925 18 0.001 0.02984 -0.000594902 -0.042983 -1.99071e-13 -7.78726e-13 -4.3776e-13 0 2.40713e-16
362 11 0.001 -0.0501294 0.000365593 -0.0432557 6.02052e-14 -7.86747e-13 -3.85551e-13 0 2.05885e-16
363 11 0.001 -0.0503382 0.00130161 -0.0435355 1.04595e-13 -7.39658e-13 -2.87451e-13 0 1.5194e-16
738 12 0.001 -0.0301294 0.000365707 -0.0432556 -6.07712e-14 -7.66237e-13 -3.78643e-13 0 2.07094e-16
739 12 0.001 -0.0303382 0.00130172 -0.0435355 1.78955e-13 -6.92918e-13 -2.76197e-13 0 1.53226e-16
1134 14 0.001 -0.0101294 0.000365707 -0.0432556 -5.08397e-14 -7.63399e-13 -3.77881e-13 0 2.07094e-16
1135 14 0.001 -0.0103382 0.00130172 -0.0435355 1.41725e-13 -6.95392e-13 -2.80042e-13 0 1.53226e-16
1530 16 0.001 0.00987058 0.000365707 -0.0432556 -3.6084e-14 -7.60386e-13 -3.78119e-13 0 2.07094e-16
1531 16 0.001 0.00966179 0.00130172 -0.0435355 1.34212e-13 -6.9971e-13 -2.80125e-13 0 1.53226e-16
1926 18 0.001 0.0298706 0.000365707 -0.0432556 -3.65866e-14 -7.59177e-13 -3.80309e-13 0 2.07094e-16
1927 18 0.001 0.0296618 0.00130172 -0.0435355 1.63976e-13 -6.96437e-13 -2.76134e-13 0 1.53226e-16
365 11 0.001 -0.0514051 0.0028702 -0.0441146 4.02795e-13 -4.5753e-13 -3.57981e-14 0 4.30405e-17
364 11 0.001 -0.0507726 0.00215429 -0.0438222 2.76908e-13 -6.2281e-13 -1.71675e-13 0 9.25602e-17
740 12 0.001 -0.0307727 0.00215439 -0.0438222 2.20882e-13 -5.92763e-13 -1.66676e-13 0 9.37938e-17
741 12 0.001 -0.0314052 0.00287027 -0.0441146 3.94509e-13 -4.47366e-13 -2.5972e-14 0 4.4041e-17
1136 14 0.001 -0.0107727 0.00215439 -0.0438222 2.56287e-13 -5.88355e-13 -1.62714e-13 0 9.37938e-17
1137 14 0.001 -0.0114052 0.00287027 -0.0441146 3.73104e-13 -4.54303e-13 -2.88075e-14 0 4.4041e-17
1533 16 0.001 0.00859483 0.00287027 -0.0441146 3.72191e-13 -4.5687e-13 -2.89217e-14 0 4.4041e-17
1532 16 0.001 0.0092273 0.00215439 -0.0438222 2.62138e-13 -5.86805e-13 -1.61416e-13 0 9.37938e-17
1928 18 0.001 0.0292273 0.00215439 -0.0438222 2.40719e-13 -5.953e-13 -1.63689e-13 0 9.37938e-17
1929 18 0.001 0.0285948 0.00287027 -0.0441146 3.78625e-13 -4.5099e-13 -2.80034e-14 0 4.4041e-17
366 11 0.001 -0.0521955 0.00340454 -0.0444108 4.77587e-13 -2.97789e-13 8.38117e-14 0 1.27799e-17
742 12 0.001 -0.0321956 0.00340459 -0.0444107 3.96823e-13 -2.75569e-13 7.49785e-14 0 1.33817e-17
1138 14 0.001 -0.0121956 0.00340459 -0.0444107 4.38288e-13 -2.72474e-13 8.61081e-14 0 1.33817e-17
1534 16 0.001 0.00780439 0.00340459 -0.0444107 4.37104e-13 -2.69542e-13 8.56346e-14 0 1.33817e-17
1930 18 0.001 0.0278044 0.00340459 -0.0444107 4.27403e-13 -2.68572e-13 8.20464e-14 0 1.33817e-17
355 11 0.001 -0.054322 -0.0038432 -0.041444 -6.85816e-13 -4.89278e-14 -1.44094e-13 0 5.64973e-17
356 11 0.001 -0.0533562 -0.00380567 -0.0416965 -6.34298e-13 -2.27045e-13 -2.49596e-13 0 8.9433e-17
357 11 0.001 -0.0524295 -0.00353064 -0.0419486 -6.68871e-13 -3.95499e-13 -3.2755e-13 0 1.3313e-16
358 11 0.001 -0.0515996 -0.00303529 -0.0422016 -5.47978e-13 -5.59749e-13 -4.15642e-13 0 1.81124e-16
731 12 0.001 -0.0343219 -0.00384322 -0.0414439 -6.26177e-13 -7.73092e-14 -1.41873e-13 0 5.75513e-17
732 12 0.001 -0.0333561 -0.00380566 -0.0416965 -6.28421e-13 -2.17895e-13 -2.3186e-13 0 9.05007e-17
733 12 0.001 -0.0324294 -0.0035306 -0.0419485 -5.8584e-13 -3.86108e-13 -3.3053e-13 0 1.34171e-16
734 12 0.001 -0.0315995 -0.00303522 -0.0422016 -5.69826e-13 -5.36761e-13 -3.93716e-13 0 1.82115e-16
1127 14 0.001 -0.0143219 -0.00384322 -0.0414439 -6.09292e-13 -6.61471e-14 -1.4585e-13 0 5.75513e-17
1128 14 0.001 -0.0133561 -0.00380566 -0.0416965 -6.14149e-13 -2.25701e-13 -2.35246e-13 0 9.05007e-17
1129 14 0.001 -0.0124294 -0.0035306 -0.0419485 -6.15209e-13 -3.90091e-13 -3.22964e-13 0 1.34171e-16
1130 14 0.001 -0.0115995 -0.00303522 -0.0422016 -5.71743e-13 -5.31266e-13 -3.95102e-13 0 1.82115e-16
1523 16 0.001 0.00567809 -0.00384322 -0.0414439 -6.0493e-13 -6.07896e-14 -1.46547e-13 0 5.75513e-17
1524 16 0.001 0.00664391 -0.00380566 -0.0416965 -6.22807e-13 -2.28403e-13 -2.32965e-13 0 9.05007e-17
1525 16 0.001 0.00757065 -0.0035306 -0.0419485 -6.12799e-13 -3.84594e-13 -3.2444e-13 0 1.34171e-16
1526 16 0.001 0.00840047 -0.00303522 -0.0422016 -5.53844e-13 -5.34827e-13 -3.97497e-13 0 1.82115e-16
1919 18 0.001 0.0256781 -0.00384322 -0.0414439 -5.98207e-13 -5.70949e-14 -1.48475e-13 0 5.75513e-17
1920 18 0.001 0.0266439 -0.00380566 -0.0416965 -6.26459e-13 -2.30544e-13 -2.32194e-13 0 9.05007e-17
1921 18 0.001 0.0275706 -0.0035306 -0.0419485 -6.0977e-13 -3.87359e-13 -3.24685e-13 0 1.34171e-16
1922 18 0.001 0.0284005 -0.00303522 -0.0422016 -5.55761e-13 -5.36311e-13 -3.96427e-13 0 1.82115e-16
359 11 0.001 -0.0509185 -0.00235067 -0.0424573 -4.78168e-13 -6.609e-13 -4.63842e-13 0 2.22454e-16
360 11 0.001 -0.0504285 -0.00151983 -0.0427173 -3.16206e-13 -7.83019e-13 -4.71985e-13 0 2.44859e-16
735 12 0.001 -0.0309184 -0.00235058 -0.0424572 -4.50658e-13 -6.5433e-13 -4.51603e-13 0 2.23415e-16
736 12 0.001 -0.0304284 -0.00151972 -0.0427172 -3.16169e-13 -7.16384e-13 -4.7158e-13 0 2.45848e-16
1131 14 0.001 -0.0109184 -0.00235058 -0.0424572 -4.15384e-13 -6.5289e-13 -4.56403e-13 0 2.23415e-16
1132 14 0.001 -0.0104284 -0.00151972 -0.0427172 -3.54373e-13 -7.18501e-13 -4.67655e-13 0 2.45848e-16
1527 16 0.001 0.00908159 -0.00235058 -0.0424572 -4.47532e-13 -6.50957e-13 -4.52575e-13 0 2.23415e-16
1528 16 0.001 0.00957157 -0.00151972 -0.0427172 -3.22686e-13 -7.24022e-13 -4.68823e-13 0 2.45848e-16
1923 18 0.001 0.0290816 -0.00235058 -0.0424572 -4.60426e-13 -6.45524e-13 -4.52602e-13 0 2.23415e-16
1924 18 0.001 0.0295716 -0.00151972 -0.0427172 -2.88827e-13 -7.22727e-13 -4.71343e-13 0 2.45848e-16
353 11 0.001 -0.0561315 -0.00321172 -0.0409328 -4.85405e-13 2.5626e-13 -2.71003e-14 0 2.56984e-17
354 11 0.001 -0.0552667 -0.00364097 -0.0411897 -5.70305e-13 1.01947e-13 -7.51251e-14 0 3.58098e-17
729 12 0.001 -0.0361314 -0.0032118 -0.0409328 -4.69187e-13 2.2178e-13 -7.13287e-15 0 2.67256e-17
730 12 0.001 -0.0352666 -0.00364102 -0.0411896 -5.61898e-13 1.33513e-13 -5.96759e-14 0 3.68318e-17
1125 14 0.001 -0.0161314 -0.0032118 -0.0409328 -4.6251e-13 2.27202e-13 -6.99842e-15 0 2.67256e-17
1126 14 0.001 -0.0152666 -0.00364102 -0.0411896 -5.79233e-13 1.27801e-13 -5.62447e-14 0 3.68318e-17
1521 16 0.001 0.00386862 -0.0032118 -0.0409328 -4.47142e-13 2.42876e-13 -7.21611e-15 0 2.67256e-17
1522 16 0.001 0.00473339 -0.00364102 -0.0411896 -5.84042e-13 1.13985e-13 -5.70205e-14 0 3.68318e-17
1917 18 0.001 0.0238686 -0.0032118 -0.0409328 -4.50425e-13 2.29968e-13 -1.26743e-14 0 2.67256e-17
1918 18 0.001 0.0247334 -0.00364102 -0.0411896 -5.84804e-13 1.14362e-13 -5.50046e-14 0 3.68318e-17
351 11 0.001 -0.0574145 -0.00179216 -0.0404106 -2.67687e-13 5.19845e-13 5.00484e-15 0 3.0252e-17
352 11 0.001 -0.0568625 -0.00258234 -0.0406731 -3.24788e-13 4.08807e-13 -5.13213e-16 0 2.40345e-17
727 12 0.001 -0.0374145 -0.00179229 -0.0404105 -2.47116e-13 4.76897e-13 2.60674e-14 0 3.16579e-17
728 12 0.001 -0.0368625 -0.00258245 -0.0406731 -3.08277e-13 3.80812e-13 -2.3979e-15 0 2.51721e-17
1123 14 0.001 -0.0174145 -0.00179229 -0.0404105 -1.62756e-13 4.85355e-13 2.14427e-14 0 3.16579e-17
1124 14 0.001 -0.0168625 -0.00258245 -0.0406731 -3.31359e-13 3.69986e-13 -2.78011e-15 0 2.51721e-17
1519 16 0.001 0.00258553 -0.00179229 -0.0404105 -1.92339e-13 4.8463e-13 2.34058e-14 0 3.16579e-17
1520 16 0.001 0.00313754 -0.00258245 -0.0406731 -3.41784e-13 3.64086e-13 -1.96724e-15 0 2.51721e-17
1915 18 0.001 0.0225855 -0.00179229 -0.0404105 -1.81867e-13 4.68635e-13 1.54059e-14 0 3.16579e-17
1916 18 0.001 0.0231375 -0.00258245 -0.0406731 -3.4378e-13 3.89706e-13 8.51209e-15 0 2.51721e-17
350 11 0.001 -0.0577532 -0.000890468 -0.0401455 -6.31967e-15 5.77193e-13 -3.97056e-14 0 4.57299e-17
726 12 0.001 -0.0377532 -0.000890605 -0.0401455 2.29621e-14 5.4331e-13 -4.47118e-14 0 4.75763e-17
1122 14 0.001 -0.0177532 -0.000890605 -0.0401455 -1.08866e-13 5.41461e-13 -3.88046e-14 0 4.75763e-17
1518 16 0.001 0.00224681 -0.000890605 -0.0401455 -4.26425e-14 5.41541e-13 -4.19344e-14 0 4.75763e-17
1914 18 0.001 0.0222468 -0.000890605 -0.0401455 -6.78927e-14 5.41445e-13 -3.95749e-14 0 4.75763e-17
348 11 0.001 -0.0577215 0.00101922 -0.0396105 3.18151e-13 6.05476e-13 -1.7077e-13 0 1.11445e-16
349 11 0.001 -0.0578577 6.65355e-05 -0.0398786 9.64116e-14 6.15691e-13 -1.02992e-13 0 7.25477e-17
724 12 0.001 -0.0377215 0.00101908 -0.0396105 3.1174e-13 5.83088e-13 -1.59038e-13 0 1.14522e-16
725 12 0.001 -0.0378577 6.63953e-05 -0.0398785 7.79588e-14 5.79105e-13 -8.23525e-14 0 7.49746e-17
1120 14 0.001 -0.0177215 0.00101908 -0.0396105 2.80857e-13 5.78304e-13 -1.60505e-13 0 1.14522e-16
1121 14 0.001 -0.0178577 6.63953e-05 -0.0398785 1.79777e-13 5.81424e-13 -8.2893e-14 0 7.49746e-17
1516 16 0.001 0.00227849 0.00101908 -0.0396105 2.95344e-13 5.83536e-13 -1.59148e-13 0 1.14522e-16
1517 16 0.001 0.00214232 6.63953e-05 -0.0398785 1.2508e-13 5.78754e-13 -8.29511e-14 0 7.49746e-17
1912 18 0.001 0.0222785 0.00101908 -0.0396105 2.9018e-13 5.79648e-13 -1.59052e-13 0 1.14522e-16
1913 18 0.001 0.0221423 6.63953e-05 -0.0398785 1.52208e-13 5.81212e-13 -8.30671e-14 0 7.49746e-17
347 11 0.001 -0.0573531 0.0019082 -0.039342 4.77635e-13 5.57396e-13 -2.41852e-13 0 1.60144e-16
346 11 0.001 -0.0567757 0.00267802 -0.0390738 5.79469e-13 4.9448e-13 -3.0717e-13 0 2.12949e-16
722 12 0.001 -0.0367758 0.00267792 -0.0390738 5.58634e-13 4.5002e-13 -3.00211e-13 0 2.17189e-16
723 12 0.001 -0.0373532 0.00190807 -0.039342 4.45468e-13 5.16692e-13 -2.34656e-13 0 1.63853e-16
1118 14 0.001 -0.0167758 0.00267792 -0.0390738 6.10029e-13 4.60627e-13 -2.8902e-13 0 2.17189e-16
1119 14 0.001 -0.0173532 0.00190807 -0.039342 4.24146e-13 5.21608e-13 -2.36932e-13 0 1.63853e-16
1515 16 0.001 0.00264677 0.00190807 -0.039342 4.40349e-13 5.18809e-13 -2.35064e-13 0 1.63853e-16
1514 16 0.001 0.00322418 0.00267792 -0.0390738 5.78721e-13 4.61158e-13 -2.94929e-13 0 2.17189e-16
1910 18 0.001 0.0232242 0.00267792 -0.0390738 6.24274e-13 4.5087e-13 -2.87624e-13 0 2.17189e-16
1911 18 0.001 0.0226468 0.00190807 -0.039342 4.15031e-13 5.26401e-13 -2.37887e-13 0 1.63853e-16
345 11 0.001 -0.0560252 0.00328063 -0.0388063 7.06774e-13 3.55838e-13 -3.5368e-13 0 2.6188e-16
344 11 0.001 -0.0551483 0.00367834 -0.0385399 7.86372e-13 2.27511e-13 -3.64427e-13 0 2.98882e-16
721 12 0.001 -0.0360253 0.00328056 -0.0388063 6.85918e-13 3.56639e-13 -3.33884e-13 0 2.66495e-16
720 12 0.001 -0.0351485 0.0036783 -0.0385398 7.37263e-13 2.09359e-13 -3.59813e-13 0 3.03697e-16
1117 14 0.001 -0.0160253 0.00328056 -0.0388063 6.59169e-13 3.46632e-13 -3.40415e-13 0 2.66495e-16
1116 14 0.001 -0.0151485 0.0036783 -0.0385398 7.32455e-13 2.08558e-13 -3.61987e-13 0 3.03697e-16
1513 16 0.001 0.00397472 0.00328056 -0.0388063 6.79844e-13 3.4439e-13 -3.36115e-13 0 2.66495e-16
1512 16 0.001 0.00485154 0.0036783 -0.0385398 7.30054e-13 2.098e-13 -3.62834e-13 0 3.03697e-16
1909 18 0.001 0.0239747 0.00328056 -0.0388063 6.40545e-13 3.56726e-13 -3.44315e-13 0 2.66495e-16
1908 18 0.001 0.0248515 0.0036783 -0.0385398 7.64098e-13 2.00524e-13 -3.52345e-13 0 3.03697e-16
338 11 0.001 -0.0504084 0.00138291 -0.0369574 3.14853e-13 -4.96062e-13 -6.6164e-14 0 1.99278e-16
714 12 0.001 -0.0304085 0.00138306 -0.0369574 2.7382e-13 -4.24332e-13 -7.40963e-14 0 2.03155e-16
1110 14 0.001 -0.0104085 0.00138306 -0.0369574 2.96765e-13 -4.26448e-13 -7.23584e-14 0 2.03155e-16
1506 16 0.001 0.00959155 0.00138306 -0.0369574 2.98537e-13 -4.23176e-13 -7.3079e-14 0 2.03155e-16
1902 18 0.001 0.0295915 0.00138306 -0.0369574 3.02437e-13 -4.28425e-13 -7.15412e-14 0 2.03155e-16
340 11 0.001 -0.0515181 0.00294038 -0.0374837 5.88145e-13 -3.35553e-13 -2.06858e-13 0 2.70123e-16
339 11 0.001 -0.0508652 0.00223145 -0.0372207 4.96036e-13 -4.29948e-13 -1.31669e-13 0 2.34478e-16
716 12 0.001 -0.0315182 0.00294048 -0.0374837 6.28871e-13 -3.23986e-13 -1.82328e-13 0 2.74465e-16
715 12 0.001 -0.0308653 0.00223158 -0.0372207 4.55024e-13 -4.20176e-13 -1.19849e-13 0 2.38579e-16
1111 14 0.001 -0.0108653 0.00223158 -0.0372207 4.7341e-13 -4.25693e-13 -1.13437e-13 0 2.38579e-16
1112 14 0.001 -0.0115182 0.00294048 -0.0374837 5.62644e-13 -3.09073e-13 -2.00153e-13 0 2.74465e-16
1508 16 0.001 0.00848177 0.00294048 -0.0374837 5.67549e-13 -3.07578e-13 -1.99748e-13 0 2.74465e-16
1507 16 0.001 0.00913468 0.00223158 -0.0372207 4.68146e-13 -4.24948e-13 -1.14065e-13 0 2.38579e-16
1904 18 0.001 0.0284818 0.00294048 -0.0374837 5.55767e-13 -3.02397e-13 -2.02598e-13 0 2.74465e-16
1903 18 0.001 0.0291347 0.00223158 -0.0372207 4.65123e-13 -4.18906e-13 -1.15445e-13 0 2.38579e-16
343 11 0.001 -0.0541999 0.00384625 -0.0382746 8.2259e-13 7.57675e-14 -3.51732e-13 0 3.18184e-16
342 11 0.001 -0.0532392 0.00377379 -0.0380103 7.391e-13 -7.42669e-14 -3.33844e-13 0 3.17867e-16
341 11 0.001 -0.0523263 0.00346543 -0.0377468 7.19886e-13 -2.09677e-13 -2.65988e-13 0 3.00101e-16
719 12 0.001 -0.0342001 0.00384625 -0.0382745 7.89384e-13 7.53012e-14 -3.40234e-13 0 3.23034e-16
718 12 0.001 -0.0332394 0.00377382 -0.0380102 7.05736e-13 -6.79383e-14 -3.22839e-13 0 3.22621e-16
717 12 0.001 -0.0323264 0.0034655 -0.0377467 6.45842e-13 -1.9335e-13 -2.66069e-13 0 3.04672e-16
1115 14 0.001 -0.0142001 0.00384625 -0.0382745 7.48289e-13 7.41314e-14 -3.50478e-13 0 3.23034e-16
1113 14 0.001 -0.0123264 0.0034655 -0.0377467 6.82894e-13 -1.97181e-13 -2.56383e-13 0 3.04672e-16
1114 14 0.001 -0.0132394 0.00377382 -0.0380102 7.48668e-13 -7.07688e-14 -3.1185e-13 0 3.22621e-16
1511 16 0.001 0.00579992 0.00384625 -0.0382745 7.52066e-13 7.42904e-14 -3.48807e-13 0 3.23034e-16
1510 16 0.001 0.00676061 0.00377382 -0.0380102 7.46175e-13 -6.79651e-14 -3.1309e-13 0 3.22621e-16
1509 16 0.001 0.00767358 0.0034655 -0.0377467 6.80004e-13 -2.01888e-13 -2.56196e-13 0 3.04672e-16
1907 18 0.001 0.0257999 0.00384625 -0.0382745 7.1752e-13 8.32029e-14 -3.61313e-13 0 3.23034e-16
1906 18 0.001 0.0267606 0.00377382 -0.0380102 7.56375e-13 -7.30075e-14 -3.07478e-13 0 3.22621e-16
1905 18 0.001 0.0276736 0.0034655 -0.0377467 6.94009e-13 -2.07973e-13 -2.53777e-13 0 3.04672e-16
333 11 0.001 -0.0515592 -0.00298708 -0.0356319 -4.2517e-13 -3.00719e-13 -7.0085e-14 0 1.29007e-16
334 11 0.001 -0.0508967 -0.00228831 -0.0358982 -3.18356e-13 -3.86469e-13 -3.73224e-14 0 1.26631e-16
709 12 0.001 -0.031559 -0.00298699 -0.0356318 -4.2462e-13 -2.89515e-13 -6.00564e-14 0 1.3278e-16
710 12 0.001 -0.0308966 -0.00228818 -0.0358981 -2.69841e-13 -3.62257e-13 -2.19846e-14 0 1.30237e-16
1105 14 0.001 -0.011559 -0.00298699 -0.0356318 -4.29129e-13 -2.90156e-13 -5.82568e-14 0 1.3278e-16
1106 14 0.001 -0.0108966 -0.00228818 -0.0358981 -2.73661e-13 -3.44268e-13 -2.65155e-14 0 1.30237e-16
1501 16 0.001 0.00844096 -0.00298699 -0.0356318 -4.3371e-13 -2.87086e-13 -5.81539e-14 0 1.3278e-16
1502 16 0.001 0.00910337 -0.00228818 -0.0358981 -2.68199e-13 -3.52865e-13 -2.47646e-14 0 1.30237e-16
1897 18 0.001 0.028441 -0.00298699 -0.0356318 -4.27055e-13 -2.80049e-13 -6.11199e-14 0 1.3278e-16
1898 18 0.001 0.0291034 -0.00228818 -0.0358981 -2.75091e-13 -3.56252e-13 -2.36283e-14 0 1.30237e-16
335 11 0.001 -0.0504282 -0.00144697 -0.036164 -1.7105e-13 -4.61197e-13 -9.33273e-15 0 1.32248e-16
336 11 0.001 -0.0501829 -0.000515566 -0.0364292 4.30848e-15 -5.2305e-13 6.14903e-15 0 1.46377e-16
711 12 0.001 -0.0304282 -0.00144682 -0.0361639 -1.75655e-13 -4.18609e-13 -4.94732e-15 0 1.3579e-16
712 12 0.001 -0.0301829 -0.00051541 -0.0364291 -1.60803e-15 -4.99058e-13 1.62048e-14 0 1.49952e-16
1107 14 0.001 -0.0104282 -0.00144682 -0.0361639 -1.64881e-13 -4.43677e-13 8.06514e-16 0 1.3579e-16
1108 14 0.001 -0.0101829 -0.00051541 -0.0364291 -1.58666e-15 -4.82545e-13 1.2066e-14 0 1.49952e-16
1503 16 0.001 0.00957184 -0.00144682 -0.0361639 -1.6942e-13 -4.30365e-13 -2.7162e-15 0 1.3579e-16
1504 16 0.001 0.00981712 -0.00051541 -0.0364291 -5.38063e-16 -4.91346e-13 1.47189e-14 0 1.49952e-16
1899 18 0.001 0.0295718 -0.00144682 -0.0361639 -1.5714e-13 -4.35094e-13 -1.53252e-15 0 1.3579e-16
1900 18 0.001 0.0298171 -0.00051541 -0.0364291 -1.72345e-14 -4.87857e-13 1.38097e-14 0 1.49952e-16
337 11 0.001 -0.0501761 0.000447775 -0.0366936 1.55403e-13 -5.08785e-13 -4.13847e-14 0 1.69046e-16
713 12 0.001 -0.0301762 0.000447931 -0.0366936 1.80057e-13 -4.80402e-13 -2.57351e-14 0 1.7274e-16
1109 14 0.001 -0.0101762 0.000447931 -0.0366936 1.60258e-13 -4.85867e-13 -2.52057e-14 0 1.7274e-16
1505 16 0.001 0.00982385 0.000447931 -0.0366936 1.60771e-13 -4.86762e-13 -2.5252e-14 0 1.7274e-16
1901 18 0.001 0.0298238 0.000447931 -0.0366936 1.69961e-13 -4.87114e-13 -2.49533e-14 0 1.7274e-16
328 11 0.001 -0.0560685 -0.00325875 -0.0343013 -5.49165e-13 3.88769e-13 -2.99033e-13 0 2.21052e-16
329 11 0.001 -0.0551975 -0.00366984 -0.0345666 -6.27954e-13 2.6425e-13 -2.67446e-13 0 1.97788e-16
330 11 0.001 -0.0542519 -0.00385209 -0.0348325 -5.75933e-13 1.24631e-13 -2.48771e-13 0 1.74764e-16
331 11 0.001 -0.0532908 -0.00379416 -0.0350988 -6.11657e-13 -3.7462e-14 -1.79196e-13 0 1.54362e-16
332 11 0.001 -0.0523742 -0.0034997 -0.0353653 -5.35043e-13 -1.48416e-13 -1.33197e-13 0 1.38606e-16
704 12 0.001 -0.0360683 -0.00325886 -0.0343012 -5.21769e-13 3.72511e-13 -2.82685e-13 0 2.26563e-16
705 12 0.001 -0.0351973 -0.0036699 -0.0345666 -5.37567e-13 2.4149e-13 -2.707e-13 0 2.02925e-16
706 12 0.001 -0.0342518 -0.00385211 -0.0348325 -5.81671e-13 1.23908e-13 -2.27652e-13 0 1.7951e-16
707 12 0.001 -0.0332906 -0.00379414 -0.0350988 -5.5838e-13 -2.96153e-14 -1.72378e-13 0 1.5873e-16
708 12 0.001 -0.032374 -0.00349964 -0.0353653 -4.9052e-13 -1.26896e-13 -1.23562e-13 0 1.4264e-16
1100 14 0.001 -0.0160683 -0.00325886 -0.0343012 -5.23974e-13 3.6086e-13 -2.84292e-13 0 2.26563e-16
1101 14 0.001 -0.0151973 -0.0036699 -0.0345666 -5.69266e-13 2.54182e-13 -2.61697e-13 0 2.02925e-16
1102 14 0.001 -0.0142518 -0.00385211 -0.0348325 -5.56901e-13 1.15464e-13 -2.34026e-13 0 1.7951e-16
1104 14 0.001 -0.012374 -0.00349964 -0.0353653 -4.86274e-13 -1.36691e-13 -1.23544e-13 0 1.4264e-16
1103 14 0.001 -0.0132906 -0.00379414 -0.0350988 -5.67787e-13 -1.99865e-14 -1.7057e-13 0 1.5873e-16
1496 16 0.001 0.00393166 -0.00325886 -0.0343012 -5.15192e-13 3.61768e-13 -2.85923e-13 0 2.26563e-16
1497 16 0.001 0.00480266 -0.0036699 -0.0345666 -5.67739e-13 2.5338e-13 -2.62132e-13 0 2.02925e-16
1498 16 0.001 0.00574824 -0.00385211 -0.0348325 -5.66781e-13 1.15664e-13 -2.31435e-13 0 1.7951e-16
1499 16 0.001 0.00670935 -0.00379414 -0.0350988 -5.58835e-13 -1.92705e-14 -1.72897e-13 0 1.5873e-16
1500 16 0.001 0.007626 -0.00349964 -0.0353653 -4.8673e-13 -1.37871e-13 -1.23154e-13 0 1.4264e-16
1892 18 0.001 0.0239317 -0.00325886 -0.0343012 -5.10576e-13 3.68931e-13 -2.85834e-13 0 2.26563e-16
1893 18 0.001 0.0248027 -0.0036699 -0.0345666 -5.82734e-13 2.47888e-13 -2.58919e-13 0 2.02925e-16
1894 18 0.001 0.0257482 -0.00385211 -0.0348325 -5.48655e-13 1.22895e-13 -2.35812e-13 0 1.7951e-16
1895 18 0.001 0.0267094 -0.00379414 -0.0350988 -5.65163e-13 -2.58091e-14 -1.71787e-13 0 1.5873e-16
1896 18 0.001 0.027626 -0.00349964 -0.0353653 -4.89994e-13 -1.38972e-13 -1.21281e-13 0 1.4264e-16
327 11 0.001 -0.0568105 -0.00264447 -0.0340365 -4.16833e-13 4.90243e-13 -3.03446e-13 0 2.42167e-16
703 12 0.001 -0.0368104 -0.00264461 -0.0340364 -4.37716e-13 4.60737e-13 -2.88546e-13 0 2.48015e-16
1099 14 0.001 -0.0168104 -0.00264461 -0.0340364 -4.01274e-13 4.62925e-13 -2.9548e-13 0 2.48015e-16