ITEM: TIMESTEP
4500000
ITEM: NUMBER OF ATOMS
1970
ITEM: BOX BOUNDS ff ff ff
-6.0000000000000005e-02 6.0000000000000005e-02
-6.0000000000000001e-03 6.0000000000000001e-03
-5.5000000000000000e-02 5.5000000000000000e-02
ITEM: ATOMS id type radius x y z fx fy fz c_bendingE c_stretchingE
384 11 0.001 -0.0508424 -0.00262879 -0.0489911 -1.09685e-12 5.14837e-14 -8.05212e-13 0 1.21651e-16
385 11 0.001 -0.050336 -0.00183034 -0.0493136 -7.19168e-13 -4.38526e-14 -5.37272e-13 0 7.4231e-15
760 12 0.001 -0.0308424 -0.00262879 -0.0489911 -1.07559e-12 6.73959e-14 -8.04793e-13 0 1.21924e-16
761 12 0.001 -0.030336 -0.00183034 -0.0493136 -7.11256e-13 -5.93948e-14 -5.27828e-13 0 7.42093e-15
1156 14 0.001 -0.0108424 -0.00262879 -0.0489911 -1.02928e-12 5.2605e-14 -8.07637e-13 0 1.21924e-16
1157 14 0.001 -0.010336 -0.00183034 -0.0493136 -7.86796e-13 -6.31067e-14 -5.17114e-13 0 7.42093e-15
1552 16 0.001 0.00915761 -0.00262879 -0.0489911 -1.03608e-12 4.97941e-14 -8.03714e-13 0 1.21924e-16
1553 16 0.001 0.00966402 -0.00183034 -0.0493136 -7.79457e-13 -5.69696e-14 -5.22195e-13 0 7.42093e-15
1948 18 0.001 0.0291576 -0.00262879 -0.0489911 -1.06363e-12 4.65032e-14 -7.98505e-13 0 1.21924e-16
1949 18 0.001 0.029664 -0.00183034 -0.0493136 -7.68878e-13 -5.45498e-14 -5.24509e-13 0 7.42093e-15
2 2 0.001 -0.05 -4.31175e-17 -0.05 -4.20196e-06 5.08173e-06 2.03384e-06 0 5.78835e-15
386 11 0.001 -0.0500494 -0.000934974 -0.0496516 -4.03457e-13 -7.71383e-14 -2.51519e-13 0 1.30899e-14
762 12 0.001 -0.0300494 -0.000934973 -0.0496516 -3.95793e-13 -6.57655e-14 -2.52904e-13 0 1.30851e-14
4 4 0.001 -0.03 -4.31175e-17 -0.05 -4.20253e-06 5.08363e-06 2.03321e-06 0 5.78593e-15
6 6 0.001 -0.01 -4.31175e-17 -0.05 -4.20253e-06 5.08363e-06 2.03321e-06 0 5.78593e-15
1158 14 0.001 -0.0100494 -0.000934973 -0.0496516 -3.59313e-13 -5.27953e-14 -2.61554e-13 0 1.30851e-14
8 8 0.001 0.01 -4.31175e-17 -0.05 -4.20253e-06 5.08363e-06 2.03321e-06 0 5.78593e-15
1554 16 0.001 0.00995061 -0.000934973 -0.0496516 -3.64612e-13 -6.54994e-14 -2.55118e-13 0 1.30851e-14
10 10 0.001 0.03 -4.31175e-17 -0.05 -4.20253e-06 5.08363e-06 2.03321e-06 0 5.78593e-15
1950 18 0.001 0.0299506 -0.000934973 -0.0496516 -3.62233e-13 -6.75169e-14 -2.54423e-13 0 1.30851e-14
379 11 0.001 -0.0552242 -0.00374089 -0.0476708 -1.57994e-12 1.31953e-12 -1.52871e-12 0 1.72907e-15
380 11 0.001 -0.054281 -0.00397846 -0.0478988 -1.64405e-12 1.01185e-12 -1.53774e-12 0 1.41851e-15
381 11 0.001 -0.0533121 -0.0039772 -0.0481422 -1.64488e-12 7.50146e-13 -1.44123e-12 0 9.29456e-16
382 11 0.001 -0.0523781 -0.00373853 -0.0484045 -1.56267e-12 4.43492e-13 -1.28063e-12 0 4.2053e-16
383 11 0.001 -0.0515375 -0.00327894 -0.0486874 -1.3192e-12 2.29406e-13 -1.06845e-12 0 9.28398e-17
755 12 0.001 -0.0352242 -0.0037409 -0.0476708 -1.65156e-12 1.29755e-12 -1.50741e-12 0 1.72913e-15
756 12 0.001 -0.034281 -0.00397846 -0.0478988 -1.60305e-12 1.02066e-12 -1.53126e-12 0 1.41838e-15
757 12 0.001 -0.0333121 -0.0039772 -0.0481422 -1.65274e-12 7.4659e-13 -1.4367e-12 0 9.29174e-16
758 12 0.001 -0.0323781 -0.00373853 -0.0484045 -1.51562e-12 4.52639e-13 -1.27662e-12 0 4.20227e-16
759 12 0.001 -0.0315375 -0.00327894 -0.0486874 -1.36564e-12 2.06815e-13 -1.04908e-12 0 9.27104e-17
1151 14 0.001 -0.0152242 -0.0037409 -0.0476708 -1.57775e-12 1.31024e-12 -1.5223e-12 0 1.72913e-15
1152 14 0.001 -0.014281 -0.00397846 -0.0478988 -1.67852e-12 1.02483e-12 -1.51363e-12 0 1.41838e-15
1153 14 0.001 -0.0133121 -0.0039772 -0.0481422 -1.59479e-12 7.3039e-13 -1.44988e-12 0 9.29174e-16
1154 14 0.001 -0.0123781 -0.00373853 -0.0484045 -1.53953e-12 4.60037e-13 -1.27177e-12 0 4.20227e-16
1155 14 0.001 -0.0115375 -0.00327894 -0.0486874 -1.35975e-12 2.22164e-13 -1.05386e-12 0 9.27104e-17
1547 16 0.001 0.00477583 -0.0037409 -0.0476708 -1.59734e-12 1.30435e-12 -1.51945e-12 0 1.72913e-15
1548 16 0.001 0.00571901 -0.00397846 -0.0478988 -1.67997e-12 1.02481e-12 -1.51265e-12 0 1.41838e-15
1549 16 0.001 0.00668791 -0.0039772 -0.0481422 -1.5878e-12 7.32334e-13 -1.45125e-12 0 9.29174e-16
1550 16 0.001 0.00762187 -0.00373853 -0.0484045 -1.5532e-12 4.61344e-13 -1.26913e-12 0 4.20227e-16
1551 16 0.001 0.00846254 -0.00327894 -0.0486874 -1.34817e-12 2.23185e-13 -1.05759e-12 0 9.27104e-17
1943 18 0.001 0.0247758 -0.0037409 -0.0476708 -1.58881e-12 1.30855e-12 -1.52032e-12 0 1.72913e-15
1944 18 0.001 0.025719 -0.00397846 -0.0478988 -1.6574e-12 1.01181e-12 -1.51765e-12 0 1.41838e-15
1945 18 0.001 0.0266879 -0.0039772 -0.0481422 -1.60857e-12 7.53383e-13 -1.44951e-12 0 9.29174e-16
1946 18 0.001 0.0276219 -0.00373853 -0.0484045 -1.54045e-12 4.43239e-13 -1.26871e-12 0 4.20227e-16
1947 18 0.001 0.0284625 -0.00327894 -0.0486874 -1.33625e-12 2.28884e-13 -1.06054e-12 0 9.27104e-17
378 11 0.001 -0.0560826 -0.00327832 -0.0474536 -1.46854e-12 1.5584e-12 -1.44075e-12 0 1.78718e-15
754 12 0.001 -0.0360826 -0.00327832 -0.0474536 -1.37878e-12 1.56525e-12 -1.44763e-12 0 1.78744e-15
1150 14 0.001 -0.0160826 -0.00327832 -0.0474536 -1.45207e-12 1.55366e-12 -1.43482e-12 0 1.78744e-15
1546 16 0.001 0.00391742 -0.00327832 -0.0474536 -1.40842e-12 1.5572e-12 -1.44219e-12 0 1.78744e-15
1942 18 0.001 0.0239174 -0.00327832 -0.0474536 -1.44211e-12 1.55835e-12 -1.43617e-12 0 1.78744e-15
376 11 0.001 -0.0573394 -0.00180333 -0.0470306 -9.29115e-13 1.8715e-12 -1.04643e-12 0 1.27702e-15
377 11 0.001 -0.0568026 -0.0026189 -0.047242 -1.15961e-12 1.78973e-12 -1.27372e-12 0 1.60942e-15
753 12 0.001 -0.0368026 -0.0026189 -0.047242 -1.18315e-12 1.74966e-12 -1.27008e-12 0 1.60981e-15
752 12 0.001 -0.0373394 -0.00180333 -0.0470306 -9.1821e-13 1.89641e-12 -1.03445e-12 0 1.27748e-15
1149 14 0.001 -0.0168026 -0.0026189 -0.047242 -1.15326e-12 1.7604e-12 -1.2742e-12 0 1.60981e-15
1148 14 0.001 -0.0173394 -0.00180333 -0.0470306 -9.12132e-13 1.88158e-12 -1.03723e-12 0 1.27748e-15
1544 16 0.001 0.00266057 -0.00180333 -0.0470306 -8.8958e-13 1.88876e-12 -1.03743e-12 0 1.27748e-15
1545 16 0.001 0.00319741 -0.0026189 -0.047242 -1.18596e-12 1.75432e-12 -1.27032e-12 0 1.60981e-15
1941 18 0.001 0.0231974 -0.0026189 -0.047242 -1.16694e-12 1.75973e-12 -1.27223e-12 0 1.60981e-15
1940 18 0.001 0.0226606 -0.00180333 -0.0470306 -8.9908e-13 1.88423e-12 -1.03755e-12 0 1.27748e-15
375 11 0.001 -0.05766 -0.000882159 -0.0468146 -5.2966e-13 1.94994e-12 -7.59576e-13 0 8.94332e-16
751 12 0.001 -0.03766 -0.000882162 -0.0468146 -5.5308e-13 1.92907e-12 -7.59188e-13 0 8.94787e-16
1147 14 0.001 -0.01766 -0.000882162 -0.0468146 -5.40494e-13 1.9325e-12 -7.57818e-13 0 8.94787e-16
1543 16 0.001 0.00233997 -0.000882162 -0.0468146 -5.64149e-13 1.93215e-12 -7.57456e-13 0 8.94787e-16
1939 18 0.001 0.02234 -0.000882162 -0.0468146 -5.61657e-13 1.933e-12 -7.57749e-13 0 8.94787e-16
373 11 0.001 -0.0575899 0.00104568 -0.0463535 8.89436e-14 1.75358e-12 -1.82881e-13 0 2.94171e-16
374 11 0.001 -0.057745 8.75152e-05 -0.0465898 -2.14823e-13 1.89191e-12 -4.63336e-13 0 5.49989e-16
749 12 0.001 -0.0375899 0.00104568 -0.0463535 5.77031e-14 1.74446e-12 -1.84642e-13 0 2.94481e-16
750 12 0.001 -0.037745 8.75117e-05 -0.0465898 -1.85225e-13 1.87874e-12 -4.60853e-13 0 5.50387e-16
1145 14 0.001 -0.0175899 0.00104568 -0.0463535 1.0766e-13 1.73699e-12 -1.81015e-13 0 2.94481e-16
1146 14 0.001 -0.017745 8.75117e-05 -0.0465898 -2.27941e-13 1.88664e-12 -4.6173e-13 0 5.50387e-16
1541 16 0.001 0.0024101 0.00104568 -0.0463535 1.09133e-13 1.74211e-12 -1.79608e-13 0 2.94481e-16
1542 16 0.001 0.00225497 8.75117e-05 -0.0465898 -2.17917e-13 1.8832e-12 -4.62571e-13 0 5.50387e-16
1937 18 0.001 0.0224101 0.00104568 -0.0463535 1.02779e-13 1.7372e-12 -1.80608e-13 0 2.94481e-16
1938 18 0.001 0.022255 8.75117e-05 -0.0465898 -2.06038e-13 1.88527e-12 -4.61186e-13 0 5.50387e-16
372 11 0.001 -0.057205 0.00193321 -0.0461041 4.49983e-13 1.55508e-12 7.36733e-14 0 1.35803e-16
748 12 0.001 -0.037205 0.00193321 -0.0461041 4.8709e-13 1.54873e-12 8.24243e-14 0 1.36019e-16
1144 14 0.001 -0.017205 0.00193321 -0.0461041 4.44624e-13 1.55463e-12 7.70199e-14 0 1.36019e-16
1540 16 0.001 0.00279495 0.00193321 -0.0461041 4.52665e-13 1.55336e-12 7.84372e-14 0 1.36019e-16
1936 18 0.001 0.022795 0.00193321 -0.0461041 4.3141e-13 1.55268e-12 7.37186e-14 0 1.36019e-16
371 11 0.001 -0.0566151 0.00269546 -0.0458415 7.32979e-13 1.25568e-12 2.55422e-13 0 5.51417e-17
747 12 0.001 -0.0366151 0.00269546 -0.0458415 6.70712e-13 1.25133e-12 2.45665e-13 0 5.52795e-17
1143 14 0.001 -0.0166151 0.00269546 -0.0458415 7.0807e-13 1.25252e-12 2.52972e-13 0 5.52795e-17
1539 16 0.001 0.00338491 0.00269546 -0.0458415 6.8966e-13 1.25383e-12 2.49228e-13 0 5.52795e-17
1935 18 0.001 0.0233849 0.00269546 -0.0458415 7.32155e-13 1.25593e-12 2.5941e-13 0 5.52795e-17
370 11 0.001 -0.0558572 0.00328565 -0.045567 8.99802e-13 9.32638e-13 3.53831e-13 0 2.2516e-17
369 11 0.001 -0.054979 0.00366763 -0.0452827 1.10743e-12 5.38423e-13 3.78165e-13 0 1.41368e-17
368 11 0.001 -0.0540353 0.0038181 -0.0449914 1.14132e-12 1.46084e-13 3.03287e-13 0 1.94493e-17
367 11 0.001 -0.0530851 0.00372799 -0.0446965 1.17498e-12 -2.58973e-13 1.68491e-13 0 3.93302e-17
745 12 0.001 -0.034979 0.00366763 -0.0452827 1.10492e-12 5.34755e-13 3.83103e-13 0 1.42017e-17
746 12 0.001 -0.0358572 0.00328565 -0.045567 9.26299e-13 9.24957e-13 3.60018e-13 0 2.26023e-17
744 12 0.001 -0.0340353 0.0038181 -0.0449914 1.11265e-12 1.49789e-13 2.96403e-13 0 1.95166e-17
743 12 0.001 -0.0330851 0.003728 -0.0446965 1.16308e-12 -2.58592e-13 1.72152e-13 0 3.94124e-17
1142 14 0.001 -0.0158572 0.00328565 -0.045567 9.04351e-13 9.14979e-13 3.5489e-13 0 2.26023e-17
1140 14 0.001 -0.0140353 0.0038181 -0.0449914 1.15197e-12 1.36844e-13 3.10772e-13 0 1.95166e-17
1141 14 0.001 -0.014979 0.00366763 -0.0452827 1.08409e-12 5.43803e-13 3.75527e-13 0 1.42017e-17
1139 14 0.001 -0.0130851 0.003728 -0.0446965 1.15132e-12 -2.4272e-13 1.65233e-13 0 3.94124e-17
1538 16 0.001 0.00414276 0.00328565 -0.045567 9.174e-13 9.11392e-13 3.57324e-13 0 2.26023e-17
1537 16 0.001 0.00502097 0.00366763 -0.0452827 1.08064e-12 5.44854e-13 3.7502e-13 0 1.42017e-17
1536 16 0.001 0.00596466 0.0038181 -0.0449914 1.15306e-12 1.42818e-13 3.10426e-13 0 1.95166e-17
1535 16 0.001 0.00691487 0.003728 -0.0446965 1.13825e-12 -2.51471e-13 1.62409e-13 0 3.94124e-17
1933 18 0.001 0.025021 0.00366763 -0.0452827 1.07994e-12 5.24582e-13 3.73447e-13 0 1.42017e-17
1934 18 0.001 0.0241428 0.00328565 -0.045567 8.84893e-13 9.22165e-13 3.49871e-13 0 2.26023e-17
1932 18 0.001 0.0259647 0.0038181 -0.0449914 1.17553e-12 1.53067e-13 3.17342e-13 0 1.95166e-17
1931 18 0.001 0.0269149 0.003728 -0.0446965 1.1156e-12 -2.52893e-13 1.56063e-13 0 3.94124e-17
361 11 0.001 -0.0501699 -0.000612248 -0.0429925 -2.09622e-13 -1.5161e-12 -7.9588e-13 0 3.35281e-16
737 12 0.001 -0.0301699 -0.000612244 -0.0429925 -2.42101e-13 -1.52684e-12 -7.84918e-13 0 3.3532e-16
1133 14 0.001 -0.0101699 -0.000612244 -0.0429925 -2.33049e-13 -1.52878e-12 -7.85264e-13 0 3.3532e-16
1529 16 0.001 0.00983012 -0.000612244 -0.0429925 -2.27939e-13 -1.52664e-12 -7.84747e-13 0 3.3532e-16
1925 18 0.001 0.0298301 -0.000612244 -0.0429925 -2.24003e-13 -1.5225e-12 -7.86284e-13 0 3.3532e-16
362 11 0.001 -0.050135 0.000349253 -0.0432615 5.07628e-14 -1.53699e-12 -7.27625e-13 0 3.20273e-16
363 11 0.001 -0.0503396 0.00128745 -0.0435371 4.19536e-13 -1.41756e-12 -6.19052e-13 0 2.74072e-16
738 12 0.001 -0.030135 0.000349257 -0.0432615 1.01703e-13 -1.50723e-12 -7.32773e-13 0 3.20328e-16
739 12 0.001 -0.0303396 0.00128745 -0.0435371 3.88167e-13 -1.43086e-12 -6.08485e-13 0 2.74148e-16
1134 14 0.001 -0.010135 0.000349257 -0.0432615 9.48183e-14 -1.50795e-12 -7.33338e-13 0 3.20328e-16
1135 14 0.001 -0.0103396 0.00128745 -0.0435371 4.19426e-13 -1.42483e-12 -6.05469e-13 0 2.74148e-16
1530 16 0.001 0.00986498 0.000349257 -0.0432615 7.70444e-14 -1.50815e-12 -7.34674e-13 0 3.20328e-16
1531 16 0.001 0.00966038 0.00128745 -0.0435371 4.37207e-13 -1.42205e-12 -6.03899e-13 0 2.74148e-16
1926 18 0.001 0.029865 0.000349257 -0.0432615 8.04352e-14 -1.5076e-12 -7.33969e-13 0 3.20328e-16
1927 18 0.001 0.0296604 0.00128745 -0.0435371 4.11337e-13 -1.4276e-12 -6.06506e-13 0 2.74148e-16
365 11 0.001 -0.0513997 0.00286368 -0.0441079 9.2753e-13 -9.7341e-13 -2.30668e-13 0 1.37312e-16
364 11 0.001 -0.0507703 0.00214346 -0.0438194 7.06865e-13 -1.24611e-12 -4.2912e-13 0 2.07595e-16
740 12 0.001 -0.0307703 0.00214346 -0.0438194 7.25212e-13 -1.22721e-12 -4.28657e-13 0 2.07689e-16
741 12 0.001 -0.0313997 0.00286368 -0.0441079 8.71596e-13 -9.61409e-13 -2.38256e-13 0 1.37414e-16
1136 14 0.001 -0.0107703 0.00214346 -0.0438194 6.69201e-13 -1.23101e-12 -4.37537e-13 0 2.07689e-16
1137 14 0.001 -0.0113997 0.00286368 -0.0441079 9.23162e-13 -9.58424e-13 -2.2866e-13 0 1.37414e-16
1533 16 0.001 0.00860031 0.00286368 -0.0441079 9.22298e-13 -9.54647e-13 -2.29162e-13 0 1.37414e-16
1532 16 0.001 0.00922966 0.00214346 -0.0438194 6.58386e-13 -1.23703e-12 -4.38407e-13 0 2.07689e-16
1928 18 0.001 0.0292297 0.00214346 -0.0438194 7.02343e-13 -1.23423e-12 -4.31153e-13 0 2.07689e-16
1929 18 0.001 0.0286003 0.00286368 -0.0441079 8.88961e-13 -9.56624e-13 -2.35818e-13 0 1.37414e-16
366 11 0.001 -0.0521878 0.00340308 -0.044401 1.04666e-12 -6.25397e-13 -2.37403e-14 0 7.84914e-17
742 12 0.001 -0.0321878 0.00340309 -0.044401 1.07838e-12 -6.24754e-13 -1.45503e-14 0 7.85881e-17
1138 14 0.001 -0.0121878 0.00340309 -0.044401 1.0554e-12 -6.33465e-13 -1.7408e-14 0 7.85881e-17
1534 16 0.001 0.00781218 0.00340309 -0.044401 1.07118e-12 -6.3179e-13 -1.363e-14 0 7.85881e-17
1930 18 0.001 0.0278122 0.00340309 -0.044401 1.09026e-12 -6.28853e-13 -9.19591e-15 0 7.85881e-17
355 11 0.001 -0.0543443 -0.00384419 -0.0414526 -1.15978e-12 7.45188e-15 -1.89548e-13 0 1.02083e-16
356 11 0.001 -0.053379 -0.00381078 -0.0417078 -1.16948e-12 -3.60065e-13 -3.13661e-13 0 1.28914e-16
357 11 0.001 -0.0524516 -0.0035397 -0.0419618 -1.18605e-12 -6.71528e-13 -4.39758e-13 0 1.7034e-16
358 11 0.001 -0.05162 -0.0030478 -0.0422157 -9.68555e-13 -1.00293e-12 -5.94096e-13 0 2.22292e-16
731 12 0.001 -0.0343443 -0.00384419 -0.0414526 -1.1699e-12 -6.85219e-16 -1.83357e-13 0 1.02171e-16
732 12 0.001 -0.033379 -0.00381078 -0.0417078 -1.20301e-12 -3.40519e-13 -3.00808e-13 0 1.28988e-16
733 12 0.001 -0.0324516 -0.0035397 -0.0419618 -1.10444e-12 -6.87479e-13 -4.50961e-13 0 1.704e-16
734 12 0.001 -0.03162 -0.0030478 -0.0422157 -1.01433e-12 -9.81026e-13 -5.84687e-13 0 2.22339e-16
1127 14 0.001 -0.0143443 -0.00384419 -0.0414526 -1.14756e-12 4.78213e-15 -1.88869e-13 0 1.02171e-16
1128 14 0.001 -0.013379 -0.00381078 -0.0417078 -1.17589e-12 -3.45017e-13 -3.07199e-13 0 1.28988e-16
1129 14 0.001 -0.0124516 -0.0035397 -0.0419618 -1.14313e-12 -6.86995e-13 -4.42726e-13 0 1.704e-16
1130 14 0.001 -0.01162 -0.0030478 -0.0422157 -9.9686e-13 -9.79237e-13 -5.88043e-13 0 2.22339e-16
1523 16 0.001 0.00565574 -0.00384419 -0.0414526 -1.16063e-12 8.89915e-16 -1.85955e-13 0 1.02171e-16
1524 16 0.001 0.00662102 -0.00381078 -0.0417078 -1.17848e-12 -3.40339e-13 -3.06559e-13 0 1.28988e-16
1525 16 0.001 0.00754839 -0.0035397 -0.0419618 -1.13541e-12 -6.88812e-13 -4.44398e-13 0 1.704e-16
1526 16 0.001 0.00838 -0.0030478 -0.0422157 -9.93054e-13 -9.82351e-13 -5.88625e-13 0 2.22339e-16
1919 18 0.001 0.0256557 -0.00384419 -0.0414526 -1.1632e-12 -7.38143e-15 -1.85304e-13 0 1.02171e-16
1920 18 0.001 0.026621 -0.00381078 -0.0417078 -1.18072e-12 -3.40783e-13 -3.0591e-13 0 1.28988e-16
1921 18 0.001 0.0275484 -0.0035397 -0.0419618 -1.14235e-12 -6.81313e-13 -4.44021e-13 0 1.704e-16
1922 18 0.001 0.02838 -0.0030478 -0.0422157 -9.63741e-13 -9.83864e-13 -5.93333e-13 0 2.22339e-16
359 11 0.001 -0.0509361 -0.00236587 -0.0424711 -8.2948e-13 -1.22905e-12 -7.09307e-13 0 2.75768e-16
360 11 0.001 -0.0504425 -0.00153665 -0.0427295 -5.03841e-13 -1.43645e-12 -7.7746e-13 0 3.17798e-16
735 12 0.001 -0.0309361 -0.00236586 -0.0424711 -7.88709e-13 -1.23159e-12 -7.07903e-13 0 2.75804e-16
736 12 0.001 -0.0304425 -0.00153665 -0.0427295 -5.0767e-13 -1.41614e-12 -7.78524e-13 0 3.17831e-16
1131 14 0.001 -0.0109361 -0.00236586 -0.0424711 -7.77541e-13 -1.23357e-12 -7.08939e-13 0 2.75804e-16
1132 14 0.001 -0.0104425 -0.00153665 -0.0427295 -5.3082e-13 -1.41677e-12 -7.75874e-13 0 3.17831e-16
1527 16 0.001 0.00906393 -0.00236586 -0.0424711 -7.93239e-13 -1.22955e-12 -7.06592e-13 0 2.75804e-16
1528 16 0.001 0.00955753 -0.00153665 -0.0427295 -5.18658e-13 -1.41942e-12 -7.77629e-13 0 3.17831e-16
1923 18 0.001 0.0290639 -0.00236586 -0.0424711 -8.20531e-13 -1.23236e-12 -7.02596e-13 0 2.75804e-16
1924 18 0.001 0.0295575 -0.00153665 -0.0427295 -5.12221e-13 -1.42133e-12 -7.77342e-13 0 3.17831e-16
353 11 0.001 -0.0561493 -0.0032051 -0.0409354 -8.93263e-13 6.67561e-13 -7.23852e-14 0 9.42045e-17
354 11 0.001 -0.0552873 -0.00363797 -0.0411952 -1.06954e-12 3.35136e-13 -1.08849e-13 0 9.05538e-17
729 12 0.001 -0.0361493 -0.0032051 -0.0409354 -8.92261e-13 6.29116e-13 -7.96113e-14 0 9.43318e-17
730 12 0.001 -0.0352873 -0.00363797 -0.0411952 -1.04044e-12 3.38587e-13 -1.05041e-13 0 9.06582e-17
1125 14 0.001 -0.0161493 -0.0032051 -0.0409354 -8.57589e-13 6.27567e-13 -8.76131e-14 0 9.43318e-17
1126 14 0.001 -0.0152873 -0.00363797 -0.0411952 -1.09176e-12 3.38114e-13 -9.28975e-14 0 9.06582e-17
1521 16 0.001 0.00385067 -0.0032051 -0.0409354 -8.60183e-13 6.23116e-13 -8.7207e-14 0 9.43318e-17
1522 16 0.001 0.00471273 -0.00363797 -0.0411952 -1.07668e-12 3.43719e-13 -9.57906e-14 0 9.06582e-17
1917 18 0.001 0.0238507 -0.0032051 -0.0409354 -8.48096e-13 6.10064e-13 -9.14608e-14 0 9.43318e-17
1918 18 0.001 0.0247127 -0.00363797 -0.0411952 -1.07801e-12 3.54302e-13 -9.48215e-14 0 9.06582e-17
351 11 0.001 -0.0574246 -0.00178022 -0.0404087 -3.74919e-13 1.11954e-12 -1.74201e-13 0 1.51149e-16
352 11 0.001 -0.0568769 -0.00257269 -0.0406732 -7.05921e-13 9.15564e-13 -9.4096e-14 0 1.13835e-16
727 12 0.001 -0.0374246 -0.00178023 -0.0404087 -3.80898e-13 1.11378e-12 -1.68174e-13 0 1.51351e-16
728 12 0.001 -0.0368768 -0.00257269 -0.0406732 -6.61117e-13 9.22712e-13 -8.98183e-14 0 1.13995e-16
1123 14 0.001 -0.0174246 -0.00178023 -0.0404087 -4.08719e-13 1.10951e-12 -1.66649e-13 0 1.51351e-16
1124 14 0.001 -0.0168768 -0.00257269 -0.0406732 -6.63198e-13 9.27282e-13 -8.78128e-14 0 1.13995e-16
1519 16 0.001 0.00257536 -0.00178023 -0.0404087 -3.82207e-13 1.10995e-12 -1.69328e-13 0 1.51351e-16
1520 16 0.001 0.00312315 -0.00257269 -0.0406732 -6.7708e-13 9.26536e-13 -8.62463e-14 0 1.13995e-16
1915 18 0.001 0.0225754 -0.00178023 -0.0404087 -3.80233e-13 1.10461e-12 -1.7085e-13 0 1.51351e-16
1916 18 0.001 0.0231232 -0.00257269 -0.0406732 -6.88211e-13 9.36633e-13 -8.23476e-14 0 1.13995e-16
350 11 0.001 -0.0577587 -0.000877105 -0.0401426 -5.80729e-14 1.27453e-12 -2.72537e-13 0 2.0712e-16
726 12 0.001 -0.0377587 -0.000877111 -0.0401426 -9.75009e-14 1.25761e-12 -2.68024e-13 0 2.07372e-16
1122 14 0.001 -0.0177587 -0.000877111 -0.0401426 -5.47123e-14 1.25898e-12 -2.70275e-13 0 2.07372e-16
1518 16 0.001 0.0022413 -0.000877111 -0.0401426 -7.73826e-14 1.25964e-12 -2.68241e-13 0 2.07372e-16
1914 18 0.001 0.0222413 -0.000877111 -0.0401426 -7.49106e-14 1.26452e-12 -2.67006e-13 0 2.07372e-16
348 11 0.001 -0.0577173 0.00103256 -0.0396082 5.52869e-13 1.31724e-12 -5.09448e-13 0 3.63175e-16
349 11 0.001 -0.0578583 8.03795e-05 -0.0398756 2.47435e-13 1.33592e-12 -3.89915e-13 0 2.79839e-16
724 12 0.001 -0.0377173 0.00103256 -0.0396082 4.89449e-13 1.29422e-12 -5.12339e-13 0 3.63526e-16
725 12 0.001 -0.0378583 8.03739e-05 -0.0398756 2.94596e-13 1.32882e-12 -3.84996e-13 0 2.80143e-16
1120 14 0.001 -0.0177173 0.00103256 -0.0396082 5.52409e-13 1.28696e-12 -5.11028e-13 0 3.63526e-16
1121 14 0.001 -0.0178583 8.03739e-05 -0.0398756 2.46543e-13 1.32812e-12 -3.84898e-13 0 2.80143e-16
1516 16 0.001 0.00228268 0.00103256 -0.0396082 5.60963e-13 1.29659e-12 -5.06193e-13 0 3.63526e-16
1517 16 0.001 0.00214168 8.03739e-05 -0.0398756 2.50842e-13 1.32756e-12 -3.86519e-13 0 2.80143e-16
1912 18 0.001 0.0222827 0.00103256 -0.0396082 5.76854e-13 1.29315e-12 -5.05999e-13 0 3.63526e-16
1913 18 0.001 0.0221417 8.03739e-05 -0.0398756 2.39841e-13 1.32736e-12 -3.8708e-13 0 2.80143e-16
347 11 0.001 -0.0573445 0.00192008 -0.0393411 8.97389e-13 1.20593e-12 -5.98073e-13 0 4.47142e-16
346 11 0.001 -0.0567631 0.00268754 -0.0390747 1.07277e-12 1.03342e-12 -6.65293e-13 0 5.20034e-16
722 12 0.001 -0.0367631 0.00268754 -0.0390747 1.06506e-12 1.02312e-12 -6.60605e-13 0 5.20447e-16
723 12 0.001 -0.0373445 0.00192007 -0.0393411 9.34089e-13 1.20446e-12 -5.88588e-13 0 4.4753e-16
1118 14 0.001 -0.0167631 0.00268754 -0.0390747 1.10629e-12 1.02287e-12 -6.56285e-13 0 5.20447e-16
1119 14 0.001 -0.0173445 0.00192007 -0.0393411 8.67162e-13 1.21753e-12 -5.91342e-13 0 4.4753e-16
1515 16 0.001 0.00265549 0.00192007 -0.0393411 8.63059e-13 1.20188e-12 -5.97215e-13 0 4.4753e-16
1514 16 0.001 0.00323689 0.00268754 -0.0390747 1.10234e-12 1.02966e-12 -6.54295e-13 0 5.20447e-16
1910 18 0.001 0.0232369 0.00268754 -0.0390747 1.0932e-12 1.02504e-12 -6.56985e-13 0 5.20447e-16
1911 18 0.001 0.0226555 0.00192007 -0.0393411 8.57926e-13 1.20678e-12 -5.96332e-13 0 4.4753e-16
345 11 0.001 -0.0560094 0.00328702 -0.0388091 1.29044e-12 7.96017e-13 -6.71878e-13 0 5.71493e-16
344 11 0.001 -0.0551303 0.00368103 -0.0385445 1.4147e-12 5.29011e-13 -6.26924e-13 0 5.95294e-16
721 12 0.001 -0.0360094 0.00328702 -0.0388091 1.26093e-12 8.01239e-13 -6.69529e-13 0 5.71916e-16
720 12 0.001 -0.0351303 0.00368103 -0.0385445 1.46159e-12 5.13368e-13 -6.0979e-13 0 5.95718e-16
1117 14 0.001 -0.0160094 0.00328702 -0.0388091 1.29349e-12 7.98942e-13 -6.59967e-13 0 5.71916e-16
1116 14 0.001 -0.0151303 0.00368103 -0.0385445 1.38777e-12 5.17988e-13 -6.30503e-13 0 5.95718e-16
1513 16 0.001 0.00399064 0.00328702 -0.0388091 1.29213e-12 7.97042e-13 -6.6103e-13 0 5.71916e-16
1512 16 0.001 0.00486969 0.00368103 -0.0385445 1.39502e-12 5.22663e-13 -6.28147e-13 0 5.95718e-16
1909 18 0.001 0.0239906 0.00328702 -0.0388091 1.31545e-12 8.03151e-13 -6.55257e-13 0 5.71916e-16
1908 18 0.001 0.0248697 0.00368103 -0.0385445 1.34576e-12 5.12484e-13 -6.4092e-13 0 5.95718e-16
338 11 0.001 -0.0503996 0.00136629 -0.0369624 4.64941e-13 -9.40729e-13 -7.20669e-14 0 3.81963e-16
714 12 0.001 -0.0303996 0.0013663 -0.0369623 5.09306e-13 -9.56558e-13 -5.44428e-14 0 3.82339e-16
1110 14 0.001 -0.0103996 0.0013663 -0.0369623 5.13761e-13 -9.50187e-13 -5.45058e-14 0 3.82339e-16
1506 16 0.001 0.0096004 0.0013663 -0.0369623 4.91952e-13 -9.48347e-13 -5.79907e-14 0 3.82339e-16
1902 18 0.001 0.0296004 0.0013663 -0.0369623 5.10218e-13 -9.5523e-13 -5.30605e-14 0 3.82339e-16
340 11 0.001 -0.0515025 0.00292791 -0.0374906 1.03945e-12 -6.18703e-13 -2.12122e-13 0 4.69167e-16
339 11 0.001 -0.0508527 0.00221645 -0.0372268 8.13121e-13 -7.95006e-13 -1.16862e-13 0 4.21436e-16
716 12 0.001 -0.0315025 0.00292791 -0.0374906 1.03857e-12 -5.91027e-13 -2.08553e-13 0 4.69551e-16
715 12 0.001 -0.0308527 0.00221646 -0.0372268 7.78348e-13 -7.77203e-13 -1.21013e-13 0 4.21814e-16
1111 14 0.001 -0.0108527 0.00221646 -0.0372268 7.6302e-13 -7.74443e-13 -1.24146e-13 0 4.21814e-16
1112 14 0.001 -0.0115025 0.00292791 -0.0374906 1.04481e-12 -5.96698e-13 -2.0782e-13 0 4.69551e-16
1508 16 0.001 0.00849747 0.00292791 -0.0374906 1.03799e-12 -6.00879e-13 -2.08522e-13 0 4.69551e-16
1507 16 0.001 0.00914727 0.00221646 -0.0372268 7.73197e-13 -7.73282e-13 -1.22368e-13 0 4.21814e-16
1904 18 0.001 0.0284975 0.00292791 -0.0374906 1.06529e-12 -5.95368e-13 -2.0251e-13 0 4.69551e-16
1903 18 0.001 0.0291473 0.00221646 -0.0372268 7.56675e-13 -7.75588e-13 -1.25552e-13 0 4.21814e-16
343 11 0.001 -0.0541808 0.00384492 -0.0382806 1.49752e-12 2.2552e-13 -5.35002e-13 0 5.90805e-16
342 11 0.001 -0.0532202 0.0037684 -0.0380172 1.37006e-12 -9.07991e-14 -4.45275e-13 0 5.62663e-16
341 11 0.001 -0.0523085 0.00345623 -0.037754 1.22534e-12 -3.48081e-13 -3.3088e-13 0 5.1902e-16
719 12 0.001 -0.0341808 0.00384492 -0.0382806 1.41877e-12 2.31015e-13 -5.48365e-13 0 5.91221e-16
718 12 0.001 -0.0332202 0.0037684 -0.0380172 1.34579e-12 -7.07565e-14 -4.46435e-13 0 5.63068e-16
717 12 0.001 -0.0323085 0.00345623 -0.037754 1.23023e-12 -3.70103e-13 -3.20522e-13 0 5.19414e-16
1115 14 0.001 -0.0141808 0.00384492 -0.0382806 1.43304e-12 2.18841e-13 -5.41794e-13 0 5.91221e-16
1113 14 0.001 -0.0123085 0.00345623 -0.037754 1.22949e-12 -3.64257e-13 -3.18932e-13 0 5.19414e-16
1114 14 0.001 -0.0132202 0.0037684 -0.0380172 1.36609e-12 -7.03607e-14 -4.44079e-13 0 5.63068e-16
1511 16 0.001 0.00581918 0.00384492 -0.0382806 1.4245e-12 2.13747e-13 -5.44939e-13 0 5.91221e-16
1510 16 0.001 0.0067798 0.0037684 -0.0380172 1.36748e-12 -6.64692e-14 -4.42653e-13 0 5.63068e-16
1509 16 0.001 0.00769154 0.00345623 -0.037754 1.23993e-12 -3.6537e-13 -3.17424e-13 0 5.19414e-16
1907 18 0.001 0.0258192 0.00384492 -0.0382806 1.47971e-12 2.15873e-13 -5.30891e-13 0 5.91221e-16
1906 18 0.001 0.0267798 0.0037684 -0.0380172 1.36201e-12 -6.11399e-14 -4.4351e-13 0 5.63068e-16
1905 18 0.001 0.0276915 0.00345623 -0.037754 1.20117e-12 -3.67158e-13 -3.27645e-13 0 5.19414e-16
333 11 0.001 -0.0515692 -0.0029973 -0.035632 -9.61e-13 -6.20447e-13 -3.3009e-13 0 3.74681e-16
334 11 0.001 -0.0509037 -0.00230153 -0.0358986 -7.2871e-13 -8.1927e-13 -2.30874e-13 0 3.51873e-16
709 12 0.001 -0.0315692 -0.0029973 -0.035632 -9.18339e-13 -6.17695e-13 -3.30674e-13 0 3.75143e-16
710 12 0.001 -0.0309037 -0.00230152 -0.0358986 -7.55603e-13 -8.04843e-13 -2.20374e-13 0 3.52305e-16
1105 14 0.001 -0.0115692 -0.0029973 -0.035632 -9.61073e-13 -6.20777e-13 -3.20444e-13 0 3.75143e-16
1106 14 0.001 -0.0109037 -0.00230152 -0.0358986 -7.03265e-13 -8.03488e-13 -2.30253e-13 0 3.52305e-16
1501 16 0.001 0.00843081 -0.0029973 -0.035632 -9.60511e-13 -6.17879e-13 -3.21999e-13 0 3.75143e-16
1502 16 0.001 0.00909626 -0.00230152 -0.0358986 -7.0619e-13 -8.05104e-13 -2.28835e-13 0 3.52305e-16
1897 18 0.001 0.0284308 -0.0029973 -0.035632 -9.56863e-13 -6.16926e-13 -3.22919e-13 0 3.75143e-16
1898 18 0.001 0.0290963 -0.00230152 -0.0358986 -7.10839e-13 -8.1239e-13 -2.26535e-13 0 3.52305e-16
335 11 0.001 -0.0504316 -0.00146244 -0.0361652 -4.61011e-13 -9.25257e-13 -1.4817e-13 0 3.39823e-16
336 11 0.001 -0.0501823 -0.00053241 -0.0364315 -1.26984e-13 -1.04704e-12 -7.2765e-14 0 3.40342e-16
711 12 0.001 -0.0304316 -0.00146244 -0.0361652 -4.06632e-13 -9.00815e-13 -1.53383e-13 0 3.40231e-16
712 12 0.001 -0.0301823 -0.000532403 -0.0364314 -1.52698e-13 -1.02438e-12 -6.82136e-14 0 3.40733e-16
1107 14 0.001 -0.0104316 -0.00146244 -0.0361652 -4.35277e-13 -8.99956e-13 -1.49326e-13 0 3.40231e-16
1108 14 0.001 -0.0101823 -0.000532403 -0.0364314 -1.45391e-13 -1.0176e-12 -7.0614e-14 0 3.40733e-16
1503 16 0.001 0.00956838 -0.00146244 -0.0361652 -4.37891e-13 -8.97957e-13 -1.49781e-13 0 3.40231e-16
1504 16 0.001 0.00981769 -0.000532403 -0.0364314 -1.45098e-13 -1.02068e-12 -7.05058e-14 0 3.40733e-16
1899 18 0.001 0.0295684 -0.00146244 -0.0361652 -4.32512e-13 -8.91834e-13 -1.51971e-13 0 3.40231e-16
1900 18 0.001 0.0298177 -0.000532403 -0.0364314 -1.48651e-13 -1.02233e-12 -6.92857e-14 0 3.40733e-16
337 11 0.001 -0.0501714 0.000430535 -0.0366972 1.92419e-13 -9.87139e-13 -5.48429e-14 0 3.5441e-16
713 12 0.001 -0.0301714 0.000430543 -0.0366972 1.73043e-13 -9.75695e-13 -5.35998e-14 0 3.54789e-16
1109 14 0.001 -0.0101714 0.000430543 -0.0366972 1.74251e-13 -9.86656e-13 -5.13398e-14 0 3.54789e-16
1505 16 0.001 0.00982861 0.000430543 -0.0366972 1.88614e-13 -9.84567e-13 -4.99343e-14 0 3.54789e-16
1901 18 0.001 0.0298286 0.000430543 -0.0366972 1.82579e-13 -9.80624e-13 -5.27164e-14 0 3.54789e-16
328 11 0.001 -0.0560806 -0.00324966 -0.0343046 -1.05754e-12 6.28792e-13 -5.27431e-13 0 5.44242e-16
329 11 0.001 -0.0552111 -0.00366441 -0.034569 -1.20304e-12 4.25896e-13 -5.44857e-13 0 5.14055e-16
330 11 0.001 -0.0542661 -0.00385068 -0.034834 -1.2779e-12 1.47226e-13 -5.31903e-13 0 4.78907e-16
331 11 0.001 -0.0533045 -0.00379685 -0.0350995 -1.22956e-12 -1.27992e-13 -4.95181e-13 0 4.41617e-16
332 11 0.001 -0.0523865 -0.00350634 -0.0353656 -1.1147e-12 -3.81082e-13 -4.27886e-13 0 4.05674e-16
704 12 0.001 -0.0360806 -0.00324966 -0.0343046 -1.05559e-12 6.42768e-13 -5.17284e-13 0 5.44871e-16
705 12 0.001 -0.0352111 -0.00366442 -0.034569 -1.19867e-12 4.0018e-13 -5.38369e-13 0 5.14652e-16
706 12 0.001 -0.0342661 -0.00385068 -0.034834 -1.2194e-12 1.49394e-13 -5.38812e-13 0 4.79471e-16
707 12 0.001 -0.0333045 -0.00379685 -0.0350995 -1.22613e-12 -1.24628e-13 -4.86629e-13 0 4.42146e-16
708 12 0.001 -0.0323865 -0.00350634 -0.0353656 -1.12592e-12 -3.78466e-13 -4.17287e-13 0 4.06169e-16
1100 14 0.001 -0.0160806 -0.00324966 -0.0343046 -1.03087e-12 6.39426e-13 -5.23536e-13 0 5.44871e-16
1101 14 0.001 -0.0152111 -0.00366442 -0.034569 -1.19116e-12 4.08128e-13 -5.38524e-13 0 5.14652e-16
1102 14 0.001 -0.0142661 -0.00385068 -0.034834 -1.23996e-12 1.42967e-13 -5.35273e-13 0 4.79471e-16
1104 14 0.001 -0.0123865 -0.00350634 -0.0353656 -1.10961e-12 -3.76328e-13 -4.23164e-13 0 4.06169e-16
1103 14 0.001 -0.0133045 -0.00379685 -0.0350995 -1.2196e-12 -1.24976e-13 -4.86142e-13 0 4.42146e-16
1496 16 0.001 0.00391936 -0.00324966 -0.0343046 -1.06953e-12 6.37723e-13 -5.14186e-13 0 5.44871e-16
1497 16 0.001 0.00478888 -0.00366442 -0.034569 -1.17939e-12 4.1356e-13 -5.4168e-13 0 5.14652e-16
1498 16 0.001 0.00573392 -0.00385068 -0.034834 -1.22918e-12 1.39296e-13 -5.37464e-13 0 4.79471e-16
1499 16 0.001 0.00669549 -0.00379685 -0.0350995 -1.23609e-12 -1.23294e-13 -4.83267e-13 0 4.42146e-16
1500 16 0.001 0.00761355 -0.00350634 -0.0353656 -1.09887e-12 -3.79183e-13 -4.2395e-13 0 4.06169e-16
1892 18 0.001 0.0239194 -0.00324966 -0.0343046 -1.08566e-12 6.41073e-13 -5.09816e-13 0 5.44871e-16
1893 18 0.001 0.0247889 -0.00366442 -0.034569 -1.16216e-12 4.06225e-13 -5.47467e-13 0 5.14652e-16
1894 18 0.001 0.0257339 -0.00385068 -0.034834 -1.23548e-12 1.44787e-13 -5.3402e-13 0 4.79471e-16
1895 18 0.001 0.0266955 -0.00379685 -0.0350995 -1.23065e-12 -1.25438e-13 -4.85818e-13 0 4.42146e-16
1896 18 0.001 0.0276135 -0.00350634 -0.0353656 -1.10416e-12 -3.7763e-13 -4.22633e-13 0 4.06169e-16
327 11 0.001 -0.0568203 -0.00263227 -0.0340406 -9.11572e-13 8.6319e-13 -4.58539e-13 0 5.67768e-16
703 12 0.001 -0.0368203 -0.00263228 -0.0340405 -8.66111e-13 8.36202e-13 -4.60285e-13 0 5.68427e-16
1099 14 0.001 -0.0168203 -0.00263228 -0.0340405 -9.16523e-13 8.35296e-13 -4.50788e-13 0 5.68427e-16