ITEM: TIMESTEP
600000
ITEM: NUMBER OF ATOMS
151
ITEM: BOX BOUNDS ff ff ff
-5.5000000000000000e-02 5.5000000000000000e-02
-6.0000000000000001e-03 6.0000000000000001e-03
-2.5000000000000001e-02 2.5000000000000001e-02
ITEM: ATOMS id type radius x y z fx fy fz c_bendingE c_stretchingE
1 1 0.001 -0.05 0 0 -0.00341672 0 0.000340201 0 1.14427e-32
3 3 0.001 -0.0493333 0 0 0.00345514 0 -0.000342629 0 5.18141e-10
4 3 0.001 -0.0486661 0 -1.57455e-07 -4.91537e-05 0 6.27015e-08 0 5.18146e-10
5 3 0.001 -0.0479994 0 -3.92958e-07 1.35008e-05 0 4.03745e-08 0 5.33498e-15
6 3 0.001 -0.0473327 0 -7.06102e-07 7.97025e-06 0 -1.23109e-07 0 5.33506e-15
7 3 0.001 -0.0466661 0 -1.09635e-06 9.42245e-06 0 2.33305e-08 0 2.26444e-14
8 3 0.001 -0.0459994 0 -1.56314e-06 1.7015e-06 0 1.59952e-08 0 3.83934e-14
9 3 0.001 -0.0453327 0 -2.10591e-06 -1.14962e-05 0 -3.41495e-08 0 2.54224e-14
10 3 0.001 -0.0446661 0 -2.7241e-06 1.27517e-05 0 8.02493e-08 0 2.78853e-14
11 3 0.001 -0.0439994 0 -3.41716e-06 3.93591e-06 0 1.23254e-07 0 5.50062e-14
12 3 0.001 -0.0433327 0 -4.18454e-06 -2.1326e-05 0 7.02195e-08 0 3.32209e-14
13 3 0.001 -0.042666 0 -5.02572e-06 -1.31464e-06 0 -1.37234e-07 0 2.27939e-15
14 3 0.001 -0.0419994 0 -5.94022e-06 -1.3919e-06 0 -9.18652e-08 0 1.24892e-15
15 3 0.001 -0.0413327 0 -6.92749e-06 -1.25181e-06 0 -4.53231e-08 0 5.36844e-16
16 3 0.001 -0.0406661 0 -7.98699e-06 -1.28805e-06 0 -3.65232e-08 0 1.484e-16
17 3 0.001 -0.0399994 0 -9.11814e-06 3.94757e-06 0 1.31879e-07 0 8.67676e-16
18 3 0.001 -0.0393327 0 -1.03204e-05 6.12791e-06 0 1.15817e-07 0 5.70804e-15
19 3 0.001 -0.0386661 0 -1.15932e-05 2.15131e-05 0 1.00098e-07 0 4.95362e-14
20 3 0.001 -0.0379994 0 -1.2936e-05 1.268e-06 0 -1.27194e-08 0 9.29761e-14
21 3 0.001 -0.0373327 0 -1.43483e-05 -7.28854e-07 0 -6.14587e-08 0 9.44993e-14
22 3 0.001 -0.036666 0 -1.58298e-05 -1.27962e-05 0 -5.63575e-08 0 6.32836e-14
23 3 0.001 -0.0359994 0 -1.73798e-05 -9.49798e-06 0 3.04417e-08 0 2.1713e-14
24 3 0.001 -0.0353327 0 -1.89979e-05 9.67744e-06 0 -1.62699e-07 0 2.20232e-14
25 3 0.001 -0.034666 0 -2.06835e-05 -1.49284e-05 0 -5.81178e-09 0 1.85077e-14
26 3 0.001 -0.0339994 0 -2.24361e-05 9.07706e-06 0 6.67189e-10 0 9.82719e-15
27 3 0.001 -0.0333327 0 -2.42552e-05 6.12665e-06 0 1.31368e-07 0 2.65714e-14
28 3 0.001 -0.032666 0 -2.61402e-05 6.23274e-06 0 3.50262e-09 0 4.83964e-14
29 3 0.001 -0.0319994 0 -2.80906e-05 1.49745e-05 0 -1.20505e-07 0 1.05265e-13
30 3 0.001 -0.0313327 0 -3.01059e-05 -2.95384e-05 0 9.98172e-08 0 8.0941e-14
31 3 0.001 -0.030666 0 -3.21856e-05 -1.04916e-05 0 -9.28385e-08 0 6.29884e-15
32 3 0.001 -0.0299994 0 -3.4329e-05 1.11023e-05 0 -5.50849e-08 0 6.94798e-15
33 3 0.001 -0.0293327 0 -3.65358e-05 -8.72943e-06 0 -3.34093e-08 0 7.49381e-15
34 3 0.001 -0.028666 0 -3.88054e-05 4.86758e-05 0 -1.15401e-08 0 1.20323e-13
35 3 0.001 -0.0279994 0 -4.11371e-05 3.17621e-06 0 6.31514e-08 0 2.54284e-13
36 3 0.001 -0.0273327 0 -4.35305e-05 -4.08456e-05 0 1.8927e-07 0 1.44162e-13
37 3 0.001 -0.026666 0 -4.59849e-05 -2.05451e-05 0 -1.56168e-08 0 1.09732e-14
38 3 0.001 -0.0259994 0 -4.85e-05 5.9746e-06 0 -1.14122e-07 0 1.41452e-15
39 3 0.001 -0.0253327 0 -5.10752e-05 5.41297e-06 0 -1.53778e-07 0 1.40582e-15
40 3 0.001 -0.024666 0 -5.37099e-05 -1.78548e-05 0 1.60494e-07 0 7.83241e-15
41 3 0.001 -0.0239994 0 -5.64036e-05 1.71543e-05 0 7.1246e-08 0 7.5067e-15
42 3 0.001 -0.0233327 0 -5.91558e-05 9.73633e-07 0 4.1033e-08 0 2.61558e-15
43 3 0.001 -0.0226661 0 -6.19658e-05 -7.16732e-06 0 -4.57865e-08 0 1.60253e-15
44 3 0.001 -0.0219994 0 -6.48332e-05 1.52603e-05 0 -1.12805e-07 0 8.62872e-15
45 3 0.001 -0.0213327 0 -6.77575e-05 -1.28474e-05 0 1.28327e-07 0 8.62734e-15
46 3 0.001 -0.0206661 0 -7.07381e-05 3.87441e-06 0 -3.70007e-09 0 1.17943e-15
47 3 0.001 -0.0199994 0 -7.37745e-05 -3.7058e-06 0 9.48219e-08 0 1.19802e-15
48 3 0.001 -0.0193328 0 -7.68661e-05 1.22615e-05 0 -1.56078e-07 0 8.14263e-15
49 3 0.001 -0.0186661 0 -8.00125e-05 3.95141e-05 0 -1.43071e-07 0 1.30637e-13
50 3 0.001 -0.0179994 0 -8.32132e-05 -9.46116e-06 0 4.43941e-08 0 2.05393e-13
51 3 0.001 -0.0173328 0 -8.64676e-05 7.58184e-06 0 -8.72071e-08 0 1.96888e-13
52 3 0.001 -0.0166661 0 -8.97752e-05 -3.80863e-06 0 8.75463e-08 0 2.11825e-13
53 3 0.001 -0.0159994 0 -9.31355e-05 -1.48321e-05 0 1.00626e-07 0 1.43955e-13
54 3 0.001 -0.0153328 0 -9.6548e-05 -1.03973e-05 0 4.11984e-08 0 6.76441e-14
55 3 0.001 -0.0146661 0 -0.000100012 -3.69379e-06 0 -6.07812e-08 0 3.63507e-14
56 3 0.001 -0.0139994 0 -0.000103527 -2.20061e-05 0 1.85675e-07 0 1.54313e-14
57 3 0.001 -0.0133328 0 -0.000107093 7.94113e-06 0 -7.05344e-08 0 1.3893e-15
58 3 0.001 -0.0126661 0 -0.000110709 1.07063e-05 0 9.7545e-09 0 1.08518e-14
59 3 0.001 -0.0119995 0 -0.000114375 -3.12367e-05 0 1.84449e-07 0 2.11959e-14
60 3 0.001 -0.0113328 0 -0.00011809 1.20586e-05 0 -2.00491e-07 0 1.19076e-14
61 3 0.001 -0.0106662 0 -0.000121853 1.48768e-05 0 -1.85817e-07 0 5.82208e-15
62 3 0.001 -0.0099995 0 -0.000125665 6.33994e-06 0 4.23918e-09 0 1.79695e-14
63 3 0.001 -0.00933285 0 -0.000129524 2.0149e-06 0 5.72433e-08 0 2.88772e-14
64 3 0.001 -0.00866619 0 -0.00013343 8.06072e-06 0 1.63202e-08 0 4.83306e-14
65 3 0.001 -0.00799953 0 -0.000137382 -2.16538e-05 0 1.25904e-07 0 3.36729e-14
66 3 0.001 -0.00733287 0 -0.000141381 -8.1918e-06 0 3.86568e-08 0 1.65964e-15
67 3 0.001 -0.00666622 0 -0.000145425 2.81958e-05 0 -1.86396e-07 0 2.87909e-14
68 3 0.001 -0.00599956 0 -0.000149514 2.04016e-06 0 -1.25497e-09 0 6.17258e-14
69 3 0.001 -0.0053329 0 -0.000153648 5.5196e-06 0 -9.83554e-08 0 8.10228e-14
70 3 0.001 -0.00466624 0 -0.000157825 -1.48928e-05 0 -3.3901e-08 0 6.23289e-14
71 3 0.001 -0.00399958 0 -0.000162046 2.34932e-05 0 -1.04236e-07 0 9.03203e-14
72 3 0.001 -0.00333292 0 -0.000166309 1.41675e-05 0 -1.78341e-07 0 2.11698e-13
73 3 0.001 -0.00266626 0 -0.000170615 -6.51693e-08 0 1.22087e-07 0 2.71497e-13
74 3 0.001 -0.0019996 0 -0.000174963 -1.57654e-05 0 1.3729e-07 0 2.05483e-13
75 3 0.001 -0.00133294 0 -0.000179352 -2.06627e-05 0 2.1009e-07 0 8.63394e-14
76 3 0.001 -0.000666285 0 -0.000183782 -2.76245e-05 0 1.78804e-07 0 1.93341e-14
77 3 0.001 3.653e-07 0 -0.000188251 -2.50709e-05 0 7.71786e-08 0 5.07978e-14
78 3 0.001 0.000667011 0 -0.000192761 1.2879e-05 0 -4.49956e-08 0 6.58788e-14
79 3 0.001 0.00133366 0 -0.000197309 3.50823e-05 0 -2.08344e-07 0 2.73932e-14
80 3 0.001 0.00200031 0 -0.000201896 3.17724e-05 0 -2.4434e-07 0 1.03307e-13
81 3 0.001 0.00266697 0 -0.000206521 4.71206e-06 0 6.13096e-08 0 2.07745e-13
82 3 0.001 0.00333363 0 -0.000211184 -1.03663e-05 0 3.21696e-08 0 1.86304e-13
83 3 0.001 0.00400029 0 -0.000215884 -1.15578e-05 0 3.37987e-08 0 1.0969e-13
84 3 0.001 0.00466694 0 -0.00022062 -2.7811e-06 0 -8.95519e-10 0 6.7764e-14
85 3 0.001 0.0053336 0 -0.000225393 -5.67406e-06 0 -2.1793e-08 0 4.93665e-14
86 3 0.001 0.00600025 0 -0.000230201 1.22783e-05 0 -1.18566e-07 0 6.64648e-14
87 3 0.001 0.0066669 0 -0.000235043 -3.4393e-05 0 4.39699e-07 0 4.76826e-14
88 3 0.001 0.00733355 0 -0.000239921 -6.73553e-06 0 1.67259e-07 0 2.85571e-15
89 3 0.001 0.0080002 0 -0.000244832 7.62745e-06 0 -1.96582e-07 0 2.79145e-15
90 3 0.001 0.00866685 0 -0.000249776 -1.2405e-06 0 -2.53913e-07 0 1.20193e-16
91 3 0.001 0.0093335 0 -0.000254754 2.29394e-05 0 -3.28345e-08 0 1.98396e-14
92 3 0.001 0.0100001 0 -0.000259764 -1.66409e-05 0 2.40457e-07 0 2.06747e-14
93 3 0.001 0.0106668 0 -0.000264805 -2.54131e-06 0 1.4443e-07 0 1.1467e-15
94 3 0.001 0.0113334 0 -0.000269878 -2.51471e-06 0 -6.58002e-08 0 2.03885e-16
95 3 0.001 0.0120001 0 -0.000274982 3.18371e-06 0 -9.52133e-08 0 3.48698e-16
96 3 0.001 0.0126667 0 -0.000280116 -1.62873e-05 0 9.61323e-08 0 8.22653e-15
97 3 0.001 0.0133334 0 -0.00028528 4.68951e-06 0 9.76473e-08 0 1.12357e-14
98 3 0.001 0.014 0 -0.000290474 1.26045e-05 0 -5.36889e-08 0 3.98436e-15
99 3 0.001 0.0146667 0 -0.000295696 -2.07321e-05 0 4.07937e-08 0 1.30477e-14
100 3 0.001 0.0153333 0 -0.000300946 2.08572e-05 0 -1.85826e-07 0 1.30911e-14
101 3 0.001 0.016 0 -0.000306224 1.14059e-05 0 -4.79353e-08 0 1.09068e-14
102 3 0.001 0.0166666 0 -0.00031153 6.70787e-06 0 -3.28857e-09 0 3.13552e-14
103 3 0.001 0.0173333 0 -0.000316862 1.74322e-05 0 -2.54609e-07 0 8.88233e-14
104 3 0.001 0.0179999 0 -0.000322221 8.47238e-06 0 -7.44975e-08 0 1.67557e-13
105 3 0.001 0.0186666 0 -0.000327605 -2.28943e-05 0 1.84935e-07 0 1.27139e-13
106 3 0.001 0.0193332 0 -0.000333015 5.72229e-06 0 -1.23014e-07 0 6.84394e-14
107 3 0.001 0.0199999 0 -0.000338449 -1.17529e-05 0 1.37635e-07 0 5.68949e-14
108 3 0.001 0.0206665 0 -0.000343907 -5.51892e-06 0 1.97077e-07 0 2.3672e-14
109 3 0.001 0.0213332 0 -0.000349389 1.37896e-05 0 -1.08293e-08 0 4.03094e-14
110 3 0.001 0.0219998 0 -0.000354895 -2.66416e-06 0 -1.56963e-07 0 5.87453e-14
111 3 0.001 0.0226665 0 -0.000360422 5.48429e-06 0 -2.25265e-07 0 6.57885e-14
112 3 0.001 0.0233331 0 -0.000365973 -2.93468e-05 0 4.46762e-07 0 3.94441e-14
113 3 0.001 0.0239997 0 -0.000371544 -1.99378e-05 0 2.36058e-07 0 1.5945e-14
114 3 0.001 0.0246664 0 -0.000377137 1.58632e-05 0 -1.52015e-07 0 1.63869e-14
115 3 0.001 0.025333 0 -0.00038275 -1.41829e-05 0 -2.47976e-08 0 1.37102e-14
116 3 0.001 0.0259997 0 -0.000388383 -3.11124e-06 0 -1.07934e-07 0 3.16167e-14
117 3 0.001 0.0266663 0 -0.000394036 1.11662e-05 0 -3.41816e-08 0 2.22179e-14
118 3 0.001 0.027333 0 -0.000399708 2.19148e-05 0 -1.5529e-07 0 1.0631e-14
119 3 0.001 0.0279996 0 -0.000405398 1.58022e-05 0 -1.51899e-07 0 4.15728e-14
120 3 0.001 0.0286662 0 -0.000411106 1.12114e-05 0 5.26611e-08 0 1.02577e-13
121 3 0.001 0.0293329 0 -0.000416832 -6.53312e-06 0 -6.21452e-08 0 1.15031e-13
122 3 0.001 0.0299995 0 -0.000422574 -6.46935e-05 0 6.80126e-07 0 9.08644e-14
123 3 0.001 0.0306662 0 -0.000428333 1.79056e-05 0 -2.5052e-07 0 5.18865e-14
124 3 0.001 0.0313328 0 -0.000434107 4.174e-05 0 -3.42447e-07 0 4.21596e-14
125 3 0.001 0.0319995 0 -0.000439897 -4.0758e-06 0 1.8083e-08 0 5.86345e-14
126 3 0.001 0.0326661 0 -0.000445701 -4.48348e-06 0 1.41859e-07 0 4.10509e-14
127 3 0.001 0.0333328 0 -0.000451519 -1.61159e-05 0 -1.54824e-08 0 1.67814e-14
128 3 0.001 0.0339994 0 -0.000457351 7.82324e-06 0 -1.58731e-07 0 5.81213e-15
129 3 0.001 0.034666 0 -0.000463197 1.07204e-05 0 -3.67588e-08 0 2.60094e-14
130 3 0.001 0.0353327 0 -0.000469054 -1.44919e-05 0 1.44388e-07 0 2.2993e-14
131 3 0.001 0.0359993 0 -0.000474924 1.73062e-05 0 -9.61623e-08 0 2.86711e-14
132 3 0.001 0.036666 0 -0.000480805 3.20395e-06 0 -5.86412e-08 0 5.99803e-14
133 3 0.001 0.0373326 0 -0.000486697 -1.19856e-06 0 -8.69719e-09 0 6.44419e-14
134 3 0.001 0.0379993 0 -0.0004926 7.69462e-06 0 -1.30648e-07 0 8.19654e-14
135 3 0.001 0.0386659 0 -0.000498512 -5.21103e-06 0 5.72149e-08 0 8.79707e-14
136 3 0.001 0.0393325 0 -0.000504433 -7.54461e-06 0 1.03303e-07 0 5.70133e-14
137 3 0.001 0.0399992 0 -0.000510363 -2.63327e-05 0 2.98916e-07 0 2.11885e-14
138 3 0.001 0.0406658 0 -0.000516301 1.40336e-06 0 3.4206e-08 0 1.47211e-15
139 3 0.001 0.0413325 0 -0.000522247 1.00979e-05 0 -8.93148e-08 0 2.46162e-15
140 3 0.001 0.0419991 0 -0.0005282 -6.25864e-06 0 1.72711e-07 0 1.98245e-15
141 3 0.001 0.0426658 0 -0.000534159 5.39743e-08 0 1.79472e-08 0 2.25006e-17
142 3 0.001 0.0433324 0 -0.000540124 1.28342e-05 0 -9.0281e-08 0 7.77255e-15
143 3 0.001 0.043999 0 -0.000546095 2.25116e-06 0 -1.05459e-07 0 1.83548e-14
144 3 0.001 0.0446657 0 -0.00055207 9.46157e-06 0 -1.77346e-07 0 3.7907e-14
145 3 0.001 0.0453323 0 -0.00055805 1.90123e-06 0 -5.1701e-08 0 5.89169e-14
146 3 0.001 0.045999 0 -0.000564034 -1.03736e-05 0 -2.1639e-08 0 4.35773e-14
147 3 0.001 0.0466656 0 -0.000570021 5.84067e-06 0 4.06824e-08 0 3.38406e-14
148 3 0.001 0.0473323 0 -0.000576012 -1.79709e-05 0 1.48745e-07 0 2.27361e-14
149 3 0.001 0.0479989 0 -0.000582004 -2.20699e-05 0 1.25281e-07 0 1.43102e-14
150 3 0.001 0.0486655 0 -0.000587998 3.05504e-05 0 -2.99696e-07 0 5.09196e-10
2 2 0.001 0.05 0 -0.0006 -1.23274e-05 0 2.42691e-06 0 5.09003e-10
151 3 0.001 0.0493328 0 -0.000593998 -6.03737e-07 0 1.98943e-07 0 1.01819e-09
