ITEM: TIMESTEP
890000
ITEM: NUMBER OF ATOMS
151
ITEM: BOX BOUNDS ff ff ff
-5.2499999999999998e-02 5.2499999999999998e-02
-6.0000000000000001e-03 6.0000000000000001e-03
-1.4999999999999999e-02 1.4999999999999999e-02
ITEM: ATOMS id type radius x y z fx fy fz c_bendingE c_stretchingE
137 3 0.001 0.0380049 0 -0.00752352 8.77748e-06 0 -1.10346e-06 0 2.07691e-08
138 3 0.001 0.0386378 0 -0.00758561 5.5155e-06 0 -7.47093e-07 0 2.07879e-08
139 3 0.001 0.0392708 0 -0.0076477 -1.76004e-06 0 1.74769e-07 0 2.07929e-08
140 3 0.001 0.0399037 0 -0.00770978 3.67802e-06 0 -2.88192e-07 0 2.07954e-08
142 3 0.001 0.0411695 0 -0.00783396 -2.9317e-06 0 -3.62139e-07 0 2.07883e-08
143 3 0.001 0.0418024 0 -0.00789605 2.91191e-06 0 -5.14793e-08 0 2.07884e-08
141 3 0.001 0.0405366 0 -0.00777187 -2.96205e-06 0 1.56519e-06 0 2.07962e-08
145 3 0.001 0.0430682 0 -0.00802023 -1.9641e-06 0 1.31219e-07 0 2.07918e-08
144 3 0.001 0.0424353 0 -0.00795814 8.43073e-07 0 -8.83415e-08 0 2.07933e-08
146 3 0.001 0.0437012 0 -0.00808232 1.51699e-06 0 6.46654e-07 0 2.07912e-08
147 3 0.001 0.0443341 0 -0.00814441 -1.73322e-06 0 -4.36463e-07 0 2.07909e-08
148 3 0.001 0.044967 0 -0.0082065 4.22874e-06 0 -1.14113e-06 0 2.07943e-08
149 3 0.001 0.0455999 0 -0.00826859 -3.26582e-06 0 -1.82646e-07 0 2.1022e-08
150 3 0.001 0.0462328 0 -0.00833068 1.14333e-06 0 -2.55127e-07 0 2.70256e-08
2 2 0.001 0.0475 0 -0.008455 -0.0158057 0 0.00155173 0 1.64069e-08
151 3 0.001 0.0468664 0 -0.00839284 2.03762e-06 0 -1.67847e-07 0 3.28104e-08
111 3 0.001 0.0215491 0 -0.00590964 2.7392e-06 0 -5.21756e-07 0 2.07637e-08
112 3 0.001 0.022182 0 -0.00597169 3.16537e-07 0 -3.57623e-07 0 2.07678e-08
114 3 0.001 0.0234479 0 -0.0060958 3.52288e-06 0 -1.16966e-06 0 2.07902e-08
113 3 0.001 0.022815 0 -0.00603374 6.53359e-06 0 -7.27739e-07 0 2.07769e-08
117 3 0.001 0.0253466 0 -0.00628198 -7.18378e-06 0 1.32245e-06 0 2.07863e-08
116 3 0.001 0.0247137 0 -0.00621992 5.38742e-06 0 -5.16259e-08 0 2.07887e-08
115 3 0.001 0.0240808 0 -0.00615786 -5.0503e-06 0 2.80184e-07 0 2.07883e-08
118 3 0.001 0.0259795 0 -0.00634405 -6.49378e-06 0 4.48314e-07 0 2.07682e-08
119 3 0.001 0.0266124 0 -0.00640611 4.59643e-06 0 -4.88723e-07 0 2.07657e-08
120 3 0.001 0.0272454 0 -0.00646818 2.58128e-07 0 -8.68672e-07 0 2.07723e-08
121 3 0.001 0.0278783 0 -0.00653025 6.46644e-06 0 -3.97894e-08 0 2.07811e-08
124 3 0.001 0.029777 0 -0.00671647 -1.80119e-06 0 -1.25198e-06 0 2.07885e-08
122 3 0.001 0.0285112 0 -0.00659232 4.41209e-06 0 6.2048e-08 0 2.07953e-08
123 3 0.001 0.0291441 0 -0.0066544 -3.9495e-06 0 2.09844e-07 0 2.07959e-08
126 3 0.001 0.0310429 0 -0.00684062 2.82988e-06 0 1.25955e-06 0 2.07883e-08
125 3 0.001 0.0304099 0 -0.00677855 -5.42393e-07 0 5.06238e-07 0 2.07856e-08
129 3 0.001 0.0329416 0 -0.00702686 5.78107e-06 0 -3.18173e-06 0 2.08084e-08
128 3 0.001 0.0323087 0 -0.00696478 -1.03927e-06 0 4.30036e-07 0 2.08019e-08
127 3 0.001 0.0316758 0 -0.0069027 4.35677e-06 0 -2.37739e-07 0 2.07976e-08
130 3 0.001 0.0335745 0 -0.00708894 1.7802e-06 0 9.94107e-07 0 2.08185e-08
131 3 0.001 0.0342074 0 -0.00715102 -6.35503e-06 0 1.47e-06 0 2.08123e-08
133 3 0.001 0.0354733 0 -0.00727518 3.15667e-06 0 -1.72249e-07 0 2.08206e-08
132 3 0.001 0.0348404 0 -0.0072131 4.83772e-06 0 -8.99481e-08 0 2.08101e-08
134 3 0.001 0.0361062 0 -0.00733727 -7.79756e-07 0 -7.72068e-07 0 2.08238e-08
135 3 0.001 0.0367391 0 -0.00739935 -1.05846e-05 0 8.02551e-07 0 2.0809e-08
136 3 0.001 0.037372 0 -0.00746144 -1.42913e-05 0 1.44895e-06 0 2.07763e-08
84 3 0.001 0.00446016 0 -0.00423603 -1.64148e-07 0 -1.10523e-07 0 2.0806e-08
85 3 0.001 0.0050931 0 -0.00429791 -2.37216e-06 0 1.39131e-06 0 2.08025e-08
86 3 0.001 0.00572603 0 -0.0043598 -1.02803e-05 0 1.66247e-06 0 2.07856e-08
87 3 0.001 0.00635896 0 -0.00442171 -7.03926e-07 0 -1.95516e-06 0 2.07714e-08
88 3 0.001 0.00699189 0 -0.00448363 4.69281e-06 0 -1.12701e-06 0 2.0777e-08
89 3 0.001 0.00762482 0 -0.00454556 2.24709e-06 0 -6.06585e-07 0 2.07862e-08
90 3 0.001 0.00825775 0 -0.0046075 -3.36191e-06 0 1.57678e-06 0 2.07847e-08
91 3 0.001 0.00889068 0 -0.00466944 1.61588e-06 0 -4.69633e-08 0 2.07822e-08
93 3 0.001 0.0101565 0 -0.00479337 2.0656e-06 0 -2.13401e-07 0 2.08191e-08
92 3 0.001 0.0095236 0 -0.0047314 1.21115e-05 0 -1.92211e-06 0 2.08003e-08
94 3 0.001 0.0107895 0 -0.00485534 -7.34789e-06 0 1.60624e-06 0 2.0812e-08
95 3 0.001 0.0114224 0 -0.00491732 -1.05874e-06 0 4.64788e-07 0 2.08008e-08
96 3 0.001 0.0120553 0 -0.0049793 -1.65456e-06 0 -3.66696e-07 0 2.07973e-08
97 3 0.001 0.0126882 0 -0.0050413 -2.52518e-06 0 -5.8076e-08 0 2.07919e-08
98 3 0.001 0.0133212 0 -0.00510329 2.50696e-06 0 -4.10429e-07 0 2.07919e-08
100 3 0.001 0.014587 0 -0.0052273 -2.61171e-06 0 6.51901e-07 0 2.08082e-08
99 3 0.001 0.0139541 0 -0.0051653 6.28392e-06 0 -4.2059e-07 0 2.08035e-08
102 3 0.001 0.0158528 0 -0.00535133 1.86877e-06 0 -1.4776e-07 0 2.07858e-08
103 3 0.001 0.0164858 0 -0.00541335 -1.32984e-06 0 2.13497e-07 0 2.07865e-08
101 3 0.001 0.0152199 0 -0.00528932 -8.16666e-06 0 5.80984e-07 0 2.0794e-08
104 3 0.001 0.0171187 0 -0.00547538 9.20887e-06 0 -8.38322e-07 0 2.07968e-08
105 3 0.001 0.0177516 0 -0.00553741 5.91806e-07 0 -2.59996e-07 0 2.08097e-08
106 3 0.001 0.0183845 0 -0.00559944 -2.99933e-06 0 8.09926e-07 0 2.08065e-08
107 3 0.001 0.0190174 0 -0.00566147 5.53022e-06 0 -4.21606e-07 0 2.08098e-08
108 3 0.001 0.0196504 0 -0.00572351 -3.15805e-06 0 5.58628e-07 0 2.08129e-08
109 3 0.001 0.0202833 0 -0.00578555 -8.76969e-06 0 1.06447e-06 0 2.07971e-08
110 3 0.001 0.0209162 0 -0.0058476 -9.72458e-06 0 6.41757e-07 0 2.07728e-08
57 3 0.001 -0.0126301 0 -0.0025755 -4.749e-06 0 1.09281e-06 0 2.07897e-08
60 3 0.001 -0.010731 0 -0.00275831 1.05429e-05 0 -1.40893e-06 0 2.08088e-08
58 3 0.001 -0.011997 0 -0.00263635 -3.00698e-06 0 -5.85339e-07 0 2.07796e-08
59 3 0.001 -0.011364 0 -0.00269729 7.20874e-06 0 -1.37917e-06 0 2.07853e-08
62 3 0.001 -0.00946498 0 -0.00288055 -3.09055e-06 0 1.50586e-06 0 2.08212e-08
61 3 0.001 -0.010098 0 -0.0028194 1.11971e-06 0 7.90589e-07 0 2.08241e-08
64 3 0.001 -0.00819898 0 -0.00300303 -4.60912e-06 0 -3.15629e-07 0 2.08121e-08
65 3 0.001 -0.00756599 0 -0.00306436 -3.04783e-06 0 3.03794e-07 0 2.08021e-08
63 3 0.001 -0.00883198 0 -0.00294176 3.4192e-07 0 -5.39451e-07 0 2.08175e-08
66 3 0.001 -0.00693301 0 -0.00312573 -2.84804e-06 0 9.11039e-07 0 2.07943e-08
67 3 0.001 -0.00630003 0 -0.00318715 -3.33978e-06 0 7.02784e-07 0 2.0786e-08
68 3 0.001 -0.00566705 0 -0.00324861 -2.1655e-06 0 -3.30677e-07 0 2.07788e-08
69 3 0.001 -0.00503408 0 -0.00331011 -4.26968e-07 0 -8.18625e-07 0 2.07756e-08
71 3 0.001 -0.00376815 0 -0.00343323 2.03132e-06 0 1.05469e-06 0 2.08026e-08
72 3 0.001 -0.00313519 0 -0.00349484 -3.6206e-06 0 -7.65238e-07 0 2.08005e-08
70 3 0.001 -0.00440112 0 -0.00337165 9.62658e-06 0 3.9933e-07 0 2.07876e-08
73 3 0.001 -0.00250223 0 -0.00355647 3.4112e-06 0 -8.81372e-07 0 2.08005e-08
74 3 0.001 -0.00186928 0 -0.00361814 -2.07611e-06 0 -1.0845e-06 0 2.08025e-08
75 3 0.001 -0.00123632 0 -0.00367984 -2.58138e-06 0 9.8659e-07 0 2.07964e-08
76 3 0.001 -0.000603373 0 -0.00374156 5.03379e-06 0 7.43628e-07 0 2.07994e-08
79 3 0.001 0.00129546 0 -0.00392685 1.10888e-05 0 -5.00445e-07 0 2.07967e-08
77 3 0.001 2.95754e-05 0 -0.0038033 -5.54583e-06 0 -2.25093e-07 0 2.07987e-08
78 3 0.001 0.000662521 0 -0.00386506 -3.64305e-06 0 -6.32948e-07 0 2.07868e-08
80 3 0.001 0.00192841 0 -0.00398865 -2.09275e-07 0 6.12732e-07 0 2.08108e-08
81 3 0.001 0.00256135 0 -0.00405047 -3.70499e-06 0 1.45015e-06 0 2.08055e-08
83 3 0.001 0.00382723 0 -0.00417416 -3.15055e-06 0 -3.04629e-07 0 2.08103e-08
82 3 0.001 0.00319429 0 -0.00411231 5.18596e-06 0 -1.34302e-06 0 2.08074e-08
29 3 0.001 -0.030362 0 -0.000946824 -9.44987e-07 0 6.66566e-07 0 2.07851e-08
28 3 0.001 -0.0309958 0 -0.000894009 -3.23676e-07 0 -3.14785e-07 0 2.07862e-08
31 3 0.001 -0.0290946 0 -0.0010543 3.57516e-06 0 6.1135e-10 0 2.07838e-08
30 3 0.001 -0.0297283 0 -0.00100027 -2.14129e-06 0 5.10045e-07 0 2.07815e-08
33 3 0.001 -0.0278275 0 -0.00116397 4.74648e-07 0 -9.37271e-08 0 2.07957e-08
34 3 0.001 -0.027194 0 -0.00121954 -4.7329e-06 0 6.8497e-07 0 2.07904e-08
32 3 0.001 -0.028461 0 -0.00110888 2.2118e-06 0 -3.18263e-07 0 2.07918e-08
35 3 0.001 -0.0265605 0 -0.00127554 -6.76136e-06 0 6.44265e-07 0 2.07755e-08
36 3 0.001 -0.025927 0 -0.00133196 5.34074e-06 0 -1.05196e-06 0 2.07739e-08
38 3 0.001 -0.0246602 0 -0.00144593 3.07834e-06 0 -3.406e-07 0 2.07898e-08
39 3 0.001 -0.0240269 0 -0.00150342 6.0098e-06 0 2.46442e-07 0 2.08019e-08
37 3 0.001 -0.0252936 0 -0.00138876 1.60226e-06 0 -8.53574e-07 0 2.07834e-08
41 3 0.001 -0.0227603 0 -0.00161932 -6.17452e-07 0 -1.87804e-07 0 2.07924e-08
40 3 0.001 -0.0233936 0 -0.00156123 -6.39656e-06 0 2.41101e-07 0 2.08014e-08
42 3 0.001 -0.022127 0 -0.00167769 -9.35979e-07 0 2.55151e-07 0 2.07905e-08
43 3 0.001 -0.0214938 0 -0.0017363 -8.53211e-06 0 1.49479e-06 0 2.0778e-08
45 3 0.001 -0.0202273 0 -0.00185422 7.16946e-06 0 -8.05041e-07 0 2.07825e-08
46 3 0.001 -0.0195942 0 -0.00191348 5.48031e-06 0 -1.56233e-07 0 2.07991e-08
44 3 0.001 -0.0208605 0 -0.00179515 2.35936e-06 0 -9.33499e-08 0 2.07699e-08
47 3 0.001 -0.018961 0 -0.00197294 9.47426e-07 0 1.84526e-07 0 2.08076e-08
48 3 0.001 -0.0183278 0 -0.00203258 3.1014e-06 0 -9.98854e-08 0 2.08129e-08
50 3 0.001 -0.0170616 0 -0.00215233 -2.71353e-06 0 -2.89935e-07 0 2.08035e-08
49 3 0.001 -0.0176947 0 -0.00209238 -3.80318e-06 0 4.46589e-07 0 2.08119e-08
51 3 0.001 -0.0164285 0 -0.00221242 1.71979e-06 0 -3.82459e-07 0 2.08023e-08
52 3 0.001 -0.0157954 0 -0.00227265 -6.62452e-06 0 7.95595e-07 0 2.07959e-08
53 3 0.001 -0.0151623 0 -0.002333 2.94644e-06 0 -6.54205e-07 0 2.07911e-08
55 3 0.001 -0.0138962 0 -0.00245405 -5.49596e-07 0 8.75528e-07 0 2.07974e-08
54 3 0.001 -0.0145292 0 -0.00239347 1.17041e-06 0 -7.07292e-07 0 2.07966e-08
56 3 0.001 -0.0132631 0 -0.00251473 -2.33825e-07 0 -1.33818e-07 0 2.07963e-08
1 1 0.001 -0.0475 0 0 -0.00410228 0 0.0199153 0 1.60362e-34
3 3 0.001 -0.0468667 0 0 0.019909 0 -0.0214655 0 1.6373e-08
4 3 0.001 -0.0462301 0 -7.93554e-06 -2.79104e-06 0 8.86244e-07 0 2.69431e-08
5 3 0.001 -0.0455942 0 -1.95603e-05 -1.3807e-06 0 -6.51101e-09 0 2.09088e-08
6 3 0.001 -0.0449585 0 -3.46294e-05 -3.49334e-06 0 5.22324e-07 0 2.06803e-08
7 3 0.001 -0.0443228 0 -5.2908e-05 4.48246e-06 0 -1.01997e-06 0 2.06955e-08
8 3 0.001 -0.0436872 0 -7.41769e-05 -2.54412e-06 0 3.62414e-07 0 2.07102e-08
9 3 0.001 -0.0430517 0 -9.82316e-05 2.89819e-06 0 8.59541e-07 0 2.07212e-08
10 3 0.001 -0.0424163 0 -0.000124882 -3.155e-06 0 5.65601e-07 0 2.07299e-08
11 3 0.001 -0.041781 0 -0.00015395 2.45371e-06 0 -5.2138e-07 0 2.0737e-08
12 3 0.001 -0.0411458 0 -0.00018527 1.5089e-06 0 4.7635e-07 0 2.0749e-08
13 3 0.001 -0.0405108 0 -0.00021869 -3.54653e-06 0 -1.47703e-06 0 2.07524e-08
14 3 0.001 -0.0398758 0 -0.000254065 1.35666e-06 0 4.3883e-07 0 2.07549e-08
15 3 0.001 -0.0392409 0 -0.000291262 2.16344e-06 0 -6.04312e-07 0 2.0764e-08
16 3 0.001 -0.0386062 0 -0.000330156 -5.39959e-06 0 1.76544e-06 0 2.07636e-08
17 3 0.001 -0.0379715 0 -0.000370631 -6.1304e-06 0 -5.49972e-07 0 2.07519e-08
18 3 0.001 -0.037337 0 -0.000412579 5.24502e-06 0 -9.33551e-08 0 2.07537e-08
19 3 0.001 -0.0367025 0 -0.0004559 2.54354e-06 0 8.75553e-07 0 2.07664e-08
20 3 0.001 -0.0360681 0 -0.0005005 8.27819e-06 0 -1.14438e-06 0 2.07828e-08
21 3 0.001 -0.0354338 0 -0.000546291 6.8437e-06 0 -8.09269e-07 0 2.08046e-08
22 3 0.001 -0.0347996 0 -0.000593192 -5.11884e-06 0 -7.98786e-07 0 2.08087e-08
23 3 0.001 -0.0341654 0 -0.000641127 -1.81983e-06 0 1.72884e-07 0 2.08012e-08
24 3 0.001 -0.0335314 0 -0.000690027 -1.81228e-06 0 1.09215e-06 0 2.07976e-08
25 3 0.001 -0.0328974 0 -0.000739824 3.30741e-06 0 1.1521e-07 0 2.08005e-08
26 3 0.001 -0.0322634 0 -0.000790457 7.01854e-08 0 -3.74005e-07 0 2.08059e-08
27 3 0.001 -0.0316296 0 -0.00084187 -8.07896e-06 0 -2.34391e-07 0 2.07964e-08
