ITEM: TIMESTEP
370000
ITEM: NUMBER OF ATOMS
151
ITEM: BOX BOUNDS ff ff ff
-5.2499999999999998e-02 5.2499999999999998e-02
-6.0000000000000001e-03 6.0000000000000001e-03
-1.4999999999999999e-02 1.4999999999999999e-02
ITEM: ATOMS id type radius x y z fx fy fz c_bendingE c_stretchingE
114 3 0.001 0.0234401 0 -0.00239579 -2.20852e-05 0 8.48636e-07 0 6.84257e-10
115 3 0.001 0.0240733 0 -0.00242478 1.26911e-06 0 7.78101e-07 0 6.793e-10
116 3 0.001 0.0247064 0 -0.0024538 -3.30418e-05 0 4.4167e-06 0 6.71775e-10
117 3 0.001 0.0253395 0 -0.00248286 -6.53974e-05 0 5.66185e-06 0 6.48789e-10
118 3 0.001 0.0259727 0 -0.00251195 5.5715e-06 0 1.15743e-06 0 6.34881e-10
119 3 0.001 0.0266058 0 -0.00254107 7.9364e-05 0 -2.32624e-06 0 6.54586e-10
120 3 0.001 0.0272389 0 -0.00257022 -6.56823e-05 0 1.02896e-06 0 6.57741e-10
121 3 0.001 0.027872 0 -0.00259939 -3.51059e-05 0 -3.3974e-06 0 6.34468e-10
122 3 0.001 0.0285052 0 -0.0026286 0.000125988 0 -4.78448e-06 0 6.55796e-10
123 3 0.001 0.0291383 0 -0.00265785 -1.12838e-05 0 6.17191e-06 0 6.82365e-10
124 3 0.001 0.0297714 0 -0.00268711 1.86804e-05 0 -1.60717e-06 0 6.84072e-10
125 3 0.001 0.0304046 0 -0.00271641 1.65413e-05 0 -6.62311e-06 0 6.92543e-10
126 3 0.001 0.0310377 0 -0.00274574 -7.43178e-05 0 -2.44977e-07 0 6.79002e-10
129 3 0.001 0.032937 0 -0.0028339 0.000115161 0 -5.79129e-06 0 6.73397e-10
128 3 0.001 0.0323039 0 -0.00280449 -9.45809e-06 0 2.20074e-06 0 6.48436e-10
127 3 0.001 0.0316708 0 -0.0027751 -2.31493e-05 0 1.93039e-06 0 6.56041e-10
130 3 0.001 0.0335702 0 -0.00286333 3.93627e-05 0 -2.16846e-06 0 7.10105e-10
131 3 0.001 0.0342033 0 -0.00289279 -3.0816e-05 0 2.7799e-08 0 7.12186e-10
132 3 0.001 0.0348364 0 -0.00292227 7.38376e-06 0 -6.00332e-07 0 7.06514e-10
133 3 0.001 0.0354696 0 -0.00295178 -2.49061e-05 0 3.80185e-06 0 7.02273e-10
134 3 0.001 0.0361027 0 -0.0029813 -3.94496e-05 0 3.07233e-06 0 6.86834e-10
135 3 0.001 0.0367358 0 -0.00301084 -9.9204e-05 0 4.26915e-06 0 6.54363e-10
136 3 0.001 0.0373689 0 -0.0030404 3.50194e-05 0 -4.18053e-06 0 6.39381e-10
137 3 0.001 0.038002 0 -0.00306997 4.97556e-05 0 -5.46771e-06 0 6.59105e-10
138 3 0.001 0.0386351 0 -0.00309957 -2.23934e-06 0 2.86232e-06 0 6.70193e-10
139 3 0.001 0.0392682 0 -0.00312917 5.81559e-05 0 1.73756e-06 0 6.83406e-10
140 3 0.001 0.0399014 0 -0.00315879 -8.33461e-05 0 2.03381e-06 0 6.77479e-10
141 3 0.001 0.0405345 0 -0.00318843 -4.15967e-05 0 -8.17086e-07 0 6.48185e-10
142 3 0.001 0.0411676 0 -0.00321807 0.0001332 0 -6.41706e-06 0 6.69925e-10
143 3 0.001 0.0418007 0 -0.00324773 -2.9456e-06 0 1.33102e-06 0 7.0054e-10
144 3 0.001 0.0424338 0 -0.00327739 -3.57333e-05 0 5.43739e-06 0 6.91237e-10
145 3 0.001 0.0430669 0 -0.00330706 -3.17492e-05 0 1.97144e-06 0 6.75153e-10
146 3 0.001 0.0437 0 -0.00333675 -9.37772e-05 0 -1.94453e-06 0 6.46054e-10
147 3 0.001 0.0443331 0 -0.00336643 -1.82557e-05 0 -3.12896e-06 0 6.20368e-10
148 3 0.001 0.0449662 0 -0.00339613 8.90877e-05 0 -1.7187e-06 0 6.36686e-10
149 3 0.001 0.0455993 0 -0.00342583 2.97658e-05 0 2.97666e-06 0 7.10325e-10
150 3 0.001 0.0462324 0 -0.00345553 -3.88274e-05 0 2.53004e-06 0 2.36351e-09
2 2 0.001 0.0475 0 -0.003515 -0.00281289 0 0.000135379 0 1.98325e-09
151 3 0.001 0.0468662 0 -0.00348526 2.68082e-06 0 3.30147e-07 0 3.96498e-09
55 3 0.001 -0.0139196 0 -0.00079772 -8.95434e-06 0 -1.26065e-06 0 6.68722e-10
56 3 0.001 -0.0132863 0 -0.000821634 1.48185e-05 0 1.50351e-06 0 6.70104e-10
57 3 0.001 -0.0126529 0 -0.000845722 6.19033e-06 0 6.82762e-06 0 6.74971e-10
58 3 0.001 -0.0120196 0 -0.000869978 4.99585e-05 0 7.03367e-07 0 6.88256e-10
59 3 0.001 -0.0113862 0 -0.000894398 -9.05395e-05 0 7.28294e-07 0 6.78736e-10
60 3 0.001 -0.0107529 0 -0.000918978 -0.000119501 0 1.31152e-06 0 6.30105e-10
62 3 0.001 -0.00948632 0 -0.000968602 -6.13613e-05 0 3.36479e-06 0 6.03173e-10
61 3 0.001 -0.0101196 0 -0.000943714 3.1113e-05 0 -2.72676e-06 0 6.09878e-10
63 3 0.001 -0.00885304 0 -0.000993636 7.74131e-06 0 -4.26697e-07 0 5.91183e-10
64 3 0.001 -0.00821977 0 -0.00101881 4.41532e-05 0 -3.19158e-07 0 6.02733e-10
65 3 0.001 -0.00758649 0 -0.00104413 5.29925e-05 0 1.44489e-06 0 6.24574e-10
66 3 0.001 -0.00695321 0 -0.00106958 6.09408e-05 0 -3.22038e-07 0 6.50683e-10
67 3 0.001 -0.00631993 0 -0.00109516 1.79837e-05 0 -6.75401e-07 0 6.69017e-10
68 3 0.001 -0.00568664 0 -0.00112088 7.67997e-06 0 -1.31816e-06 0 6.75068e-10
69 3 0.001 -0.00505336 0 -0.00114671 -5.2357e-05 0 -4.04644e-08 0 6.64646e-10
71 3 0.001 -0.00378683 0 -0.00119876 4.80177e-05 0 -3.10345e-06 0 6.81866e-10
72 3 0.001 -0.00315356 0 -0.00122497 1.806e-05 0 7.67748e-07 0 6.97595e-10
70 3 0.001 -0.0044201 0 -0.00117268 3.8482e-05 0 -5.13751e-06 0 6.61429e-10
73 3 0.001 -0.00252029 0 -0.00125128 -9.13934e-05 0 2.73476e-06 0 6.80265e-10
74 3 0.001 -0.00188705 0 -0.00127771 -3.38354e-05 0 -2.54948e-06 0 6.50809e-10
75 3 0.001 -0.00125381 0 -0.00130425 -4.28294e-05 0 8.73043e-07 0 6.33217e-10
76 3 0.001 -0.000620581 0 -0.00133089 -4.96348e-06 0 2.91008e-06 0 6.22279e-10
77 3 0.001 1.26403e-05 0 -0.00135763 -8.31509e-05 0 5.54816e-06 0 6.02559e-10
78 3 0.001 0.000645844 0 -0.00138447 -2.08711e-05 0 9.75706e-07 0 5.79425e-10
79 3 0.001 0.00127904 0 -0.0014114 0.000165699 0 -8.76076e-06 0 6.12121e-10
80 3 0.001 0.00191226 0 -0.00143842 7.52796e-05 0 -5.77254e-06 0 6.6708e-10
81 3 0.001 0.00254549 0 -0.00146553 1.19957e-05 0 -1.25179e-06 0 6.87645e-10
83 3 0.001 0.00381193 0 -0.00152001 2.40716e-05 0 1.45885e-06 0 6.77723e-10
84 3 0.001 0.00444515 0 -0.00154736 -8.34679e-06 0 -2.53665e-07 0 6.8142e-10
82 3 0.001 0.00317872 0 -0.00149273 -3.87343e-05 0 5.61815e-06 0 6.81283e-10
85 3 0.001 0.00507836 0 -0.0015748 -4.9471e-05 0 8.49171e-07 0 6.6784e-10
86 3 0.001 0.00571156 0 -0.0016023 -4.97546e-05 0 2.24065e-06 0 6.44749e-10
87 3 0.001 0.00634475 0 -0.00162988 7.23549e-05 0 -3.59977e-06 0 6.50037e-10
88 3 0.001 0.00697795 0 -0.00165753 -2.45351e-05 0 5.35912e-07 0 6.61081e-10
89 3 0.001 0.00761115 0 -0.00168524 -0.000102982 0 6.7382e-06 0 6.31806e-10
90 3 0.001 0.00824432 0 -0.00171302 -5.53055e-05 0 5.29583e-06 0 5.95962e-10
91 3 0.001 0.00887748 0 -0.00174086 3.76547e-05 0 -7.77182e-07 0 5.91984e-10
92 3 0.001 0.00951064 0 -0.00176876 1.30658e-05 0 -1.14379e-06 0 6.03228e-10
93 3 0.001 0.0101438 0 -0.00179672 -4.14097e-05 0 5.46921e-07 0 5.96968e-10
94 3 0.001 0.010777 0 -0.00182474 0.00010804 0 -2.37692e-06 0 6.12054e-10
95 3 0.001 0.0114101 0 -0.00185282 7.01254e-05 0 6.33025e-07 0 6.52566e-10
96 3 0.001 0.0120433 0 -0.00188095 1.97538e-05 0 -5.39927e-06 0 6.73519e-10
97 3 0.001 0.0126765 0 -0.00190915 4.9105e-06 0 -5.37523e-06 0 6.79447e-10
98 3 0.001 0.0133097 0 -0.0019374 -6.24924e-05 0 1.27441e-06 0 6.66023e-10
100 3 0.001 0.014576 0 -0.00199406 -1.71155e-05 0 2.63091e-06 0 6.2278e-10
99 3 0.001 0.0139428 0 -0.0019657 -5.37505e-05 0 2.27165e-06 0 6.39031e-10
101 3 0.001 0.0152091 0 -0.00202246 1.95558e-05 0 7.65502e-07 0 6.23299e-10
102 3 0.001 0.0158423 0 -0.00205091 1.70975e-05 0 2.15704e-06 0 6.31595e-10
103 3 0.001 0.0164754 0 -0.00207942 7.50191e-08 0 1.30252e-06 0 6.35473e-10
104 3 0.001 0.0171086 0 -0.00210796 7.2432e-05 0 -6.66176e-06 0 6.52325e-10
105 3 0.001 0.0177417 0 -0.00213656 3.86795e-05 0 -4.00161e-06 0 6.78353e-10
106 3 0.001 0.0183749 0 -0.0021652 -1.48995e-05 0 2.16034e-08 0 6.83994e-10
107 3 0.001 0.0190081 0 -0.00219388 -7.52806e-07 0 -2.24822e-07 0 6.8028e-10
108 3 0.001 0.0196412 0 -0.0022226 2.97418e-05 0 1.71315e-06 0 6.87157e-10
109 3 0.001 0.0202744 0 -0.00225137 -1.81032e-05 0 4.51329e-06 0 6.89848e-10
110 3 0.001 0.0209075 0 -0.00228018 2.12054e-05 0 -2.84516e-06 0 6.90571e-10
111 3 0.001 0.0215407 0 -0.00230902 -7.36074e-06 0 -4.29395e-06 0 6.93947e-10
112 3 0.001 0.0221738 0 -0.00233791 -2.35146e-05 0 -3.75565e-07 0 6.86652e-10
113 3 0.001 0.022807 0 -0.00236683 1.77228e-05 0 -8.91836e-07 0 6.85287e-10
1 1 0.001 -0.0475 0 0 -0.00413182 0 0.00427466 0 1.60362e-34
3 3 0.001 -0.0468667 0 0 0.00692892 0 -0.00440149 0 1.97977e-09
4 3 0.001 -0.0462322 0 -1.69755e-06 6.02741e-05 0 -2.47271e-06 0 2.36377e-09
5 3 0.001 -0.0455984 0 -4.21861e-06 -1.9152e-05 0 -3.35207e-06 0 7.1631e-10
6 3 0.001 -0.0449646 0 -7.54134e-06 -2.61786e-05 0 6.01966e-07 0 6.58539e-10
7 3 0.001 -0.0443308 0 -1.16424e-05 -1.91924e-05 0 2.77561e-06 0 6.4806e-10
8 3 0.001 -0.043697 0 -1.64993e-05 -2.74694e-05 0 1.45218e-06 0 6.37376e-10
9 3 0.001 -0.0430632 0 -2.20903e-05 1.66096e-05 0 -1.91969e-06 0 6.34932e-10
10 3 0.001 -0.0424295 0 -2.83952e-05 0.000103655 0 -5.89745e-06 0 6.63034e-10
11 3 0.001 -0.0417957 0 -3.53937e-05 -8.51944e-06 0 -1.13298e-06 0 6.85309e-10
12 3 0.001 -0.041162 0 -4.3065e-05 -9.25549e-05 0 2.90869e-06 0 6.61712e-10
13 3 0.001 -0.0405282 0 -5.13886e-05 2.12112e-05 0 2.4275e-06 0 6.45017e-10
14 3 0.001 -0.0398945 0 -6.03455e-05 -3.8658e-05 0 2.85823e-06 0 6.41045e-10
15 3 0.001 -0.0392608 0 -6.99173e-05 2.64078e-06 0 -1.99363e-06 0 6.32797e-10
16 3 0.001 -0.0386271 0 -8.00868e-05 0.000150454 0 -5.02442e-06 0 6.68781e-10
17 3 0.001 -0.0379933 0 -9.08372e-05 -7.21765e-05 0 -3.79019e-07 0 6.86982e-10
18 3 0.001 -0.0373596 0 -0.000102151 -6.81401e-05 0 1.38423e-06 0 6.54019e-10
19 3 0.001 -0.0367259 0 -0.000114011 6.91174e-05 0 -1.8003e-06 0 6.54285e-10
20 3 0.001 -0.0360923 0 -0.000126402 3.37694e-05 0 -2.46796e-06 0 6.78371e-10
21 3 0.001 -0.0354586 0 -0.000139306 5.49611e-05 0 -3.122e-07 0 6.99596e-10
22 3 0.001 -0.0348249 0 -0.000152709 -6.55312e-06 0 2.26725e-06 0 7.11224e-10
23 3 0.001 -0.0341912 0 -0.000166595 -1.08774e-05 0 6.55605e-07 0 7.07021e-10
24 3 0.001 -0.0335576 0 -0.000180949 5.67708e-06 0 -1.37256e-06 0 7.05794e-10
25 3 0.001 -0.0329239 0 -0.000195758 -4.81405e-05 0 1.05431e-06 0 6.95661e-10
26 3 0.001 -0.0322903 0 -0.000211007 -3.13981e-05 0 1.57233e-06 0 6.76723e-10
27 3 0.001 -0.0316567 0 -0.000226684 -5.09034e-05 0 5.80549e-06 0 6.57434e-10
28 3 0.001 -0.0310231 0 -0.000242775 4.27653e-05 0 9.81885e-07 0 6.55501e-10
29 3 0.001 -0.0303895 0 -0.000259269 4.24503e-05 0 -1.15342e-06 0 6.75471e-10
30 3 0.001 -0.029756 0 -0.000276155 1.98849e-05 0 -1.16805e-06 0 6.90258e-10
31 3 0.001 -0.0291224 0 -0.000293423 -6.8912e-06 0 -4.80995e-06 0 6.93409e-10
32 3 0.001 -0.0284888 0 -0.000311062 -0.00012932 0 -1.02043e-06 0 6.61629e-10
33 3 0.001 -0.0278553 0 -0.000329062 2.92747e-05 0 -2.42658e-07 0 6.38177e-10
34 3 0.001 -0.0272217 0 -0.00034741 -1.0878e-05 0 3.91884e-06 0 6.42375e-10
35 3 0.001 -0.0265882 0 -0.000366097 -2.22866e-05 0 4.34821e-06 0 6.3473e-10
36 3 0.001 -0.0259547 0 -0.000385111 5.91266e-05 0 -2.27892e-06 0 6.43238e-10
37 3 0.001 -0.0253212 0 -0.000404445 -6.08815e-05 0 6.22995e-07 0 6.42858e-10
38 3 0.001 -0.0246877 0 -0.000424088 7.48471e-06 0 3.18132e-07 0 6.30557e-10
39 3 0.001 -0.0240543 0 -0.000444032 9.08148e-05 0 -4.00851e-06 0 6.53368e-10
40 3 0.001 -0.0234208 0 -0.00046427 3.30483e-06 0 -1.07351e-06 0 6.75262e-10
41 3 0.001 -0.0227873 0 -0.000484792 -5.02659e-05 0 3.90296e-07 0 6.64299e-10
42 3 0.001 -0.0221538 0 -0.00050559 3.65972e-05 0 -3.91554e-07 0 6.6109e-10
43 3 0.001 -0.0215204 0 -0.000526656 2.29836e-06 0 1.53357e-06 0 6.70167e-10
44 3 0.001 -0.020887 0 -0.000547981 -7.03731e-06 0 -1.57573e-06 0 6.69062e-10
45 3 0.001 -0.0202535 0 -0.000569558 1.08957e-05 0 1.39709e-08 0 6.69988e-10
46 3 0.001 -0.0196201 0 -0.00059138 -2.95875e-05 0 4.72356e-06 0 6.65587e-10
47 3 0.001 -0.0189867 0 -0.000613439 1.33566e-05 0 2.48601e-06 0 6.61726e-10
48 3 0.001 -0.0183533 0 -0.000635729 1.28886e-05 0 -1.1414e-06 0 6.67864e-10
49 3 0.001 -0.0177199 0 -0.000658245 -7.09324e-06 0 -5.35601e-06 0 6.69284e-10
50 3 0.001 -0.0170865 0 -0.000680981 -2.62328e-06 0 -5.80274e-06 0 6.67108e-10
51 3 0.001 -0.0164531 0 -0.00070393 3.84721e-06 0 -1.71384e-06 0 6.6747e-10
52 3 0.001 -0.0158197 0 -0.000727086 -7.06838e-05 0 7.28632e-06 0 6.51956e-10
53 3 0.001 -0.0151863 0 -0.00075044 3.15581e-05 0 2.43456e-07 0 6.4278e-10
54 3 0.001 -0.014553 0 -0.000773987 4.43748e-05 0 -3.83396e-06 0 6.60425e-10
