ITEM: TIMESTEP
650000
ITEM: NUMBER OF ATOMS
151
ITEM: BOX BOUNDS ff ff ff
-5.2499999999999998e-02 5.2499999999999998e-02
-6.0000000000000001e-03 6.0000000000000001e-03
-1.4999999999999999e-02 1.4999999999999999e-02
ITEM: ATOMS id type radius x y z fx fy fz c_bendingE c_stretchingE
142 3 0.001 0.0411687 0 -0.00570387 -1.51582e-05 0 4.01557e-07 0 6.08396e-09
143 3 0.001 0.0418017 0 -0.00575097 -2.6409e-05 0 1.24664e-06 0 6.05456e-09
144 3 0.001 0.0424347 0 -0.00579807 -2.14048e-06 0 9.69565e-07 0 6.03433e-09
145 3 0.001 0.0430677 0 -0.00584517 -5.51944e-07 0 1.64585e-06 0 6.0323e-09
146 3 0.001 0.0437006 0 -0.00589227 -5.0351e-06 0 2.35388e-06 0 6.02817e-09
147 3 0.001 0.0443336 0 -0.00593937 1.87362e-05 0 -3.95139e-07 0 6.03771e-09
148 3 0.001 0.0449666 0 -0.00598647 4.96154e-06 0 -5.94545e-07 0 6.05444e-09
149 3 0.001 0.0455996 0 -0.00603358 -1.2321e-05 0 -6.90356e-07 0 6.17933e-09
150 3 0.001 0.0462327 0 -0.00608068 1.9244e-05 0 -4.6589e-06 0 9.7735e-09
2 2 0.001 0.0475 0 -0.006175 -0.00854141 0 0.000640736 0 6.60975e-09
151 3 0.001 0.0468663 0 -0.00612784 -1.29682e-05 0 -1.24607e-06 0 1.32329e-08
108 3 0.001 0.0196466 0 -0.00410456 3.66687e-06 0 1.62061e-06 0 6.07733e-09
109 3 0.001 0.0202797 0 -0.00415149 -2.45955e-05 0 9.70937e-07 0 6.06245e-09
110 3 0.001 0.0209127 0 -0.00419844 -1.23332e-05 0 -4.9225e-07 0 6.0364e-09
111 3 0.001 0.0215457 0 -0.00424539 9.65347e-06 0 -2.82853e-06 0 6.03469e-09
112 3 0.001 0.0221787 0 -0.00429236 7.08307e-06 0 -2.43182e-06 0 6.04674e-09
114 3 0.001 0.0234447 0 -0.00438631 -5.96937e-06 0 8.10374e-07 0 6.03269e-09
113 3 0.001 0.0228117 0 -0.00433933 -1.05368e-05 0 9.29733e-07 0 6.04439e-09
116 3 0.001 0.0247107 0 -0.0044803 2.70188e-05 0 5.18204e-07 0 6.06374e-09
117 3 0.001 0.0253437 0 -0.00452731 -1.51217e-05 0 2.30583e-06 0 6.07197e-09
115 3 0.001 0.0240777 0 -0.0044333 1.15908e-05 0 4.9991e-07 0 6.03658e-09
118 3 0.001 0.0259767 0 -0.00457432 -1.63291e-05 0 4.57008e-07 0 6.04966e-09
119 3 0.001 0.0266097 0 -0.00462133 -1.623e-05 0 8.77694e-07 0 6.02668e-09
120 3 0.001 0.0272427 0 -0.00466835 -2.13489e-05 0 7.0404e-07 0 6.00021e-09
121 3 0.001 0.0278757 0 -0.00471538 2.39151e-05 0 -3.67832e-06 0 6.00217e-09
122 3 0.001 0.0285087 0 -0.00476242 3.81732e-05 0 -4.88336e-06 0 6.04627e-09
123 3 0.001 0.0291417 0 -0.00480946 2.6482e-05 0 -2.53651e-06 0 6.09226e-09
124 3 0.001 0.0297747 0 -0.00485651 -9.97959e-06 0 2.57201e-06 0 6.10391e-09
126 3 0.001 0.0310407 0 -0.00495061 -1.41252e-05 0 2.8692e-06 0 6.0504e-09
125 3 0.001 0.0304077 0 -0.00490356 -2.53648e-05 0 3.73978e-06 0 6.07861e-09
129 3 0.001 0.0329397 0 -0.00509179 7.35118e-06 0 -2.29599e-06 0 6.02031e-09
128 3 0.001 0.0323067 0 -0.00504473 -1.70226e-05 0 1.47229e-06 0 6.02707e-09
127 3 0.001 0.0316737 0 -0.00499767 -7.40526e-07 0 1.41312e-06 0 6.03971e-09
130 3 0.001 0.0335727 0 -0.00513886 1.31936e-05 0 -3.93204e-06 0 6.03509e-09
131 3 0.001 0.0342057 0 -0.00518593 -1.5891e-05 0 5.61296e-07 0 6.03337e-09
132 3 0.001 0.0348387 0 -0.005233 2.07147e-05 0 -1.50717e-06 0 6.03682e-09
133 3 0.001 0.0354717 0 -0.00528008 5.42847e-06 0 -9.1089e-07 0 6.05535e-09
134 3 0.001 0.0361047 0 -0.00532716 -1.49582e-05 0 1.67771e-06 0 6.04859e-09
135 3 0.001 0.0367377 0 -0.00537425 4.65203e-06 0 2.43008e-06 0 6.04112e-09
136 3 0.001 0.0373707 0 -0.00542133 1.57135e-05 0 1.29988e-06 0 6.05527e-09
137 3 0.001 0.0380037 0 -0.00546841 -1.18751e-05 0 1.32593e-06 0 6.05784e-09
138 3 0.001 0.0386367 0 -0.0055155 -6.10391e-06 0 -8.25695e-07 0 6.04514e-09
139 3 0.001 0.0392697 0 -0.00556259 2.58566e-05 0 -3.1615e-06 0 6.05928e-09
140 3 0.001 0.0399027 0 -0.00560968 5.24774e-06 0 -1.11167e-06 0 6.08144e-09
141 3 0.001 0.0405357 0 -0.00565677 6.56578e-06 0 -1.85496e-06 0 6.08995e-09
73 3 0.001 -0.00250963 0 -0.00247489 9.42064e-06 0 -2.76944e-06 0 6.05346e-09
74 3 0.001 -0.00187655 0 -0.00252083 -9.70865e-06 0 -2.38569e-06 0 6.05352e-09
75 3 0.001 -0.00124348 0 -0.00256684 -5.4937e-06 0 -1.31547e-06 0 6.043e-09
76 3 0.001 -0.000610405 0 -0.0026129 -7.79169e-06 0 2.37017e-06 0 6.0336e-09
79 3 0.001 0.00128878 0 -0.00275139 1.52151e-05 0 -3.12788e-07 0 6.04866e-09
77 3 0.001 2.26609e-05 0 -0.00265902 -3.20616e-06 0 3.53492e-06 0 6.02556e-09
78 3 0.001 0.000655723 0 -0.00270518 1.05823e-05 0 8.83063e-07 0 6.03053e-09
80 3 0.001 0.00192184 0 -0.00279764 1.20689e-05 0 -2.20296e-07 0 6.06792e-09
81 3 0.001 0.0025549 0 -0.00284394 -7.11167e-06 0 -5.91737e-08 0 6.07143e-09
83 3 0.001 0.00382101 0 -0.00293666 -1.4091e-06 0 -1.89959e-06 0 6.05971e-09
84 3 0.001 0.00445405 0 -0.00298307 -1.12071e-05 0 -8.37266e-07 0 6.05096e-09
82 3 0.001 0.00318796 0 -0.00289028 -4.30461e-06 0 -2.43718e-06 0 6.06351e-09
85 3 0.001 0.0050871 0 -0.00302952 1.11396e-06 0 -1.00193e-07 0 6.04391e-09
86 3 0.001 0.00572014 0 -0.00307601 -3.20989e-06 0 1.24518e-06 0 6.04237e-09
87 3 0.001 0.00635318 0 -0.00312253 -9.24008e-06 0 3.03699e-06 0 6.0334e-09
88 3 0.001 0.00698621 0 -0.00316907 2.02943e-05 0 1.50015e-06 0 6.04095e-09
89 3 0.001 0.00761925 0 -0.00321564 9.48548e-06 0 3.14046e-07 0 6.06183e-09
90 3 0.001 0.00825228 0 -0.00326225 -2.40119e-05 0 -6.51876e-08 0 6.05159e-09
91 3 0.001 0.00888531 0 -0.00330887 2.60369e-05 0 -4.50887e-06 0 6.05326e-09
93 3 0.001 0.0101514 0 -0.0034022 -1.20763e-05 0 8.09638e-07 0 6.05047e-09
92 3 0.001 0.00951834 0 -0.00335552 -9.06244e-06 0 4.31311e-07 0 6.06543e-09
94 3 0.001 0.0107844 0 -0.0034489 1.11807e-05 0 -1.40802e-06 0 6.04987e-09
95 3 0.001 0.0114174 0 -0.00349562 -1.49387e-05 0 -2.02167e-08 0 6.04729e-09
96 3 0.001 0.0120504 0 -0.00354236 8.45992e-06 0 2.55057e-07 0 6.04272e-09
97 3 0.001 0.0126835 0 -0.00358913 3.44945e-06 0 1.83504e-06 0 6.051e-09
98 3 0.001 0.0133165 0 -0.0036359 -4.18535e-06 0 2.09198e-06 0 6.05027e-09
100 3 0.001 0.0145825 0 -0.00372951 1.04984e-05 0 -1.67043e-06 0 6.0544e-09
99 3 0.001 0.0139495 0 -0.0036827 -9.68728e-08 0 1.57078e-06 0 6.04707e-09
102 3 0.001 0.0158486 0 -0.00382319 -3.70707e-06 0 -2.1463e-06 0 6.07585e-09
103 3 0.001 0.0164816 0 -0.00387005 1.54192e-05 0 -3.09093e-06 0 6.0844e-09
101 3 0.001 0.0152155 0 -0.00377634 1.14286e-05 0 -3.21361e-06 0 6.07012e-09
104 3 0.001 0.0171146 0 -0.00391693 1.05147e-05 0 -5.2245e-07 0 6.10293e-09
105 3 0.001 0.0177476 0 -0.00396382 -2.52974e-05 0 2.65682e-06 0 6.09238e-09
106 3 0.001 0.0183806 0 -0.00401072 -9.79325e-06 0 2.557e-06 0 6.06732e-09
107 3 0.001 0.0190136 0 -0.00405763 1.04217e-05 0 1.48348e-06 0 6.06755e-09
35 3 0.001 -0.0265734 0 -0.000824227 -6.50263e-07 0 -2.84492e-06 0 6.00131e-09
36 3 0.001 -0.0259398 0 -0.000863191 3.84285e-05 0 -4.67405e-06 0 6.02833e-09
38 3 0.001 -0.0246728 0 -0.00094233 -2.396e-05 0 2.55078e-06 0 6.07244e-09
39 3 0.001 -0.0240393 0 -0.000982463 -1.47116e-05 0 3.40511e-06 0 6.04496e-09
37 3 0.001 -0.0253063 0 -0.000902566 2.37378e-05 0 -2.16702e-06 0 6.07253e-09
41 3 0.001 -0.0227724 0 -0.00106376 -3.26783e-06 0 2.69822e-06 0 6.0246e-09
40 3 0.001 -0.0234059 0 -0.00102295 -5.1468e-06 0 3.35409e-06 0 6.03074e-09
42 3 0.001 -0.022139 0 -0.00110489 1.33489e-05 0 -1.6034e-06 0 6.0317e-09
43 3 0.001 -0.0215056 0 -0.00114632 -1.58155e-07 0 -3.01554e-06 0 6.04125e-09
45 3 0.001 -0.0202389 0 -0.00123002 1.57084e-05 0 -3.75951e-06 0 6.05127e-09
46 3 0.001 -0.0196056 0 -0.00127227 1.40174e-06 0 -9.18556e-07 0 6.06359e-09
44 3 0.001 -0.0208723 0 -0.00118803 -1.12382e-06 0 -2.58656e-06 0 6.04065e-09
47 3 0.001 -0.0189722 0 -0.00131476 1.13752e-05 0 9.25192e-07 0 6.07265e-09
48 3 0.001 -0.0183389 0 -0.00135748 3.13164e-07 0 2.89292e-06 0 6.08075e-09
50 3 0.001 -0.0170723 0 -0.00144357 -5.14372e-06 0 1.56098e-06 0 6.09206e-09
49 3 0.001 -0.0177056 0 -0.00140042 1.0658e-05 0 1.84273e-06 0 6.0883e-09
51 3 0.001 -0.0164391 0 -0.00148691 1.91161e-05 0 -1.55668e-06 0 6.10197e-09
52 3 0.001 -0.0158058 0 -0.00153044 4.35764e-06 0 -1.21339e-06 0 6.11874e-09
53 3 0.001 -0.0151726 0 -0.00157416 -2.64168e-05 0 8.46718e-07 0 6.10316e-09
55 3 0.001 -0.0139061 0 -0.00166208 -6.61198e-06 0 -2.19234e-06 0 6.07133e-09
54 3 0.001 -0.0145393 0 -0.00161804 -6.1489e-06 0 -1.23457e-06 0 6.08015e-09
56 3 0.001 -0.0132729 0 -0.00170628 7.60786e-06 0 -1.39375e-06 0 6.07222e-09
57 3 0.001 -0.0126397 0 -0.00175063 -1.33572e-05 0 2.48077e-06 0 6.06813e-09
58 3 0.001 -0.0120065 0 -0.00179511 -1.50793e-06 0 1.35566e-06 0 6.05746e-09
59 3 0.001 -0.0113733 0 -0.00183972 5.80855e-06 0 1.0806e-06 0 6.06038e-09
60 3 0.001 -0.0107402 0 -0.00188446 -1.79735e-05 0 3.08882e-06 0 6.05162e-09
62 3 0.001 -0.00947387 0 -0.00197428 -3.37686e-06 0 -2.62196e-07 0 6.05724e-09
61 3 0.001 -0.010107 0 -0.00192931 1.47247e-05 0 -3.92344e-07 0 6.0492e-09
63 3 0.001 -0.00884072 0 -0.00201935 -1.42859e-06 0 -1.70726e-06 0 6.05396e-09
64 3 0.001 -0.00820759 0 -0.00206452 2.549e-05 0 -3.54941e-06 0 6.07121e-09
65 3 0.001 -0.00757445 0 -0.00210979 -3.37821e-05 0 1.55018e-06 0 6.06548e-09
66 3 0.001 -0.00694133 0 -0.00215516 -1.71359e-06 0 5.51869e-08 0 6.04037e-09
67 3 0.001 -0.00630821 0 -0.00220061 1.11354e-05 0 -2.58492e-07 0 6.04702e-09
68 3 0.001 -0.0056751 0 -0.00224614 -1.5311e-05 0 2.47767e-06 0 6.04397e-09
69 3 0.001 -0.005042 0 -0.00229175 -5.28729e-07 0 2.99906e-06 0 6.03254e-09
71 3 0.001 -0.00377581 0 -0.00238318 -1.80987e-06 0 -2.85452e-07 0 6.04039e-09
72 3 0.001 -0.00314272 0 -0.002429 5.26885e-06 0 -1.22223e-06 0 6.0429e-09
70 3 0.001 -0.0044089 0 -0.00233743 6.84477e-06 0 1.07272e-07 0 6.03683e-09
1 1 0.001 -0.0475 0 0 -0.00411869 0 0.0113793 0 1.60362e-34
3 3 0.001 -0.0468667 0 0 0.0126837 0 -0.0120095 0 6.63779e-09
4 3 0.001 -0.0462313 0 -4.52573e-06 -3.58873e-05 0 -1.01989e-06 0 9.77567e-09
5 3 0.001 -0.0455965 0 -1.11965e-05 1.55309e-05 0 -2.30153e-06 0 6.15386e-09
6 3 0.001 -0.0449618 0 -1.99087e-05 1.46749e-06 0 -2.48549e-06 0 6.03411e-09
7 3 0.001 -0.0443272 0 -3.05597e-05 -4.32044e-07 0 -1.85587e-06 0 6.03696e-09
8 3 0.001 -0.0436926 0 -4.30512e-05 -9.27842e-06 0 9.54903e-08 0 6.03201e-09
9 3 0.001 -0.043058 0 -5.72894e-05 -1.88533e-05 0 2.08211e-06 0 6.01384e-09
10 3 0.001 -0.0424234 0 -7.31854e-05 1.25284e-05 0 2.27014e-06 0 6.01083e-09
11 3 0.001 -0.0417889 0 -9.06549e-05 2.19429e-05 0 8.40835e-07 0 6.03642e-09
12 3 0.001 -0.0411545 0 -0.000109619 8.41015e-06 0 1.76776e-07 0 6.05904e-09
13 3 0.001 -0.04052 0 -0.000130001 6.65542e-06 0 -1.84754e-07 0 6.07079e-09
14 3 0.001 -0.0398857 0 -0.000151732 6.31801e-06 0 -9.78002e-07 0 6.081e-09
15 3 0.001 -0.0392513 0 -0.000174742 -2.4581e-05 0 -5.76465e-07 0 6.06903e-09
16 3 0.001 -0.0386171 0 -0.000198968 -2.6305e-06 0 -1.44447e-06 0 6.05066e-09
17 3 0.001 -0.0379828 0 -0.000224348 -3.63838e-06 0 -8.54172e-07 0 6.04704e-09
18 3 0.001 -0.0373486 0 -0.000250824 -7.37074e-06 0 1.1044e-07 0 6.03996e-09
19 3 0.001 -0.0367145 0 -0.00027834 2.26364e-05 0 -2.57427e-08 0 6.05134e-09
20 3 0.001 -0.0360804 0 -0.000306843 -1.87316e-06 0 1.26716e-06 0 6.06649e-09
21 3 0.001 -0.0354463 0 -0.000336283 -1.45199e-05 0 2.6967e-06 0 6.05527e-09
22 3 0.001 -0.0348123 0 -0.000366612 1.59131e-06 0 6.70538e-07 0 6.04647e-09
23 3 0.001 -0.0341783 0 -0.000397787 2.84684e-06 0 -3.85008e-07 0 6.04998e-09
24 3 0.001 -0.0335444 0 -0.000429764 -2.47842e-05 0 -2.10214e-07 0 6.0349e-09
25 3 0.001 -0.0329105 0 -0.000462504 1.36839e-06 0 -2.58588e-06 0 6.01882e-09
26 3 0.001 -0.0322766 0 -0.000495969 3.4154e-06 0 -1.91907e-06 0 6.02264e-09
27 3 0.001 -0.0316428 0 -0.000530121 -1.84167e-05 0 1.41245e-08 0 6.01243e-09
28 3 0.001 -0.031009 0 -0.000564925 1.50231e-05 0 -2.3006e-07 0 6.01029e-09
29 3 0.001 -0.0303752 0 -0.000600349 3.18164e-05 0 -2.63907e-07 0 6.04351e-09
30 3 0.001 -0.0297415 0 -0.000636359 1.35017e-05 0 2.47754e-06 0 6.07559e-09
31 3 0.001 -0.0291078 0 -0.000672926 -8.30374e-07 0 3.25488e-06 0 6.08448e-09
32 3 0.001 -0.0284742 0 -0.000710021 -8.57212e-06 0 1.50842e-06 0 6.07779e-09
33 3 0.001 -0.0278405 0 -0.000747619 -3.05991e-05 0 4.03919e-07 0 6.05021e-09
34 3 0.001 -0.0272069 0 -0.000785696 -1.94389e-05 0 -1.38225e-06 0 6.01514e-09
