ITEM: TIMESTEP
8500000
ITEM: NUMBER OF ATOMS
151
ITEM: BOX BOUNDS ff ff ff
-5.5000000000000000e-02 5.5000000000000000e-02
-6.0000000000000001e-03 6.0000000000000001e-03
-2.5000000000000001e-02 2.5000000000000001e-02
ITEM: ATOMS id type radius x y z fx fy fz c_bendingE c_stretchingE
132 3 0.001 0.0366734 0 -0.00725273 -1.96503e-09 0 -1.09959e-07 0 1.823e-08
133 3 0.001 0.0373397 0 -0.00731508 1.07381e-09 0 -4.65333e-08 0 1.82301e-08
134 3 0.001 0.038006 0 -0.00737744 2.03573e-08 0 2.74364e-07 0 1.82301e-08
135 3 0.001 0.0386722 0 -0.0074398 -3.30774e-08 0 -3.83186e-07 0 1.82301e-08
136 3 0.001 0.0393385 0 -0.00750215 3.018e-08 0 3.1631e-07 0 1.82301e-08
137 3 0.001 0.0400048 0 -0.00756451 -2.81796e-08 0 -2.01261e-07 0 1.823e-08
138 3 0.001 0.040671 0 -0.00762687 -7.35049e-10 0 5.9015e-08 0 1.823e-08
139 3 0.001 0.0413373 0 -0.00768923 8.9445e-10 0 4.15402e-09 0 1.823e-08
140 3 0.001 0.0420036 0 -0.00775158 1.4958e-08 0 6.78955e-08 0 1.823e-08
141 3 0.001 0.0426699 0 -0.00781394 -4.33181e-10 0 -5.8881e-08 0 1.82301e-08
142 3 0.001 0.0433361 0 -0.0078763 -1.14701e-08 0 -1.05768e-07 0 1.82301e-08
143 3 0.001 0.0440024 0 -0.00793866 3.60089e-08 0 3.53078e-07 0 1.82301e-08
144 3 0.001 0.0446687 0 -0.00800102 -3.72781e-08 0 -4.0299e-07 0 1.82301e-08
145 3 0.001 0.0453349 0 -0.00806338 -4.00367e-09 0 6.13335e-08 0 1.82301e-08
148 3 0.001 0.0473338 0 -0.00825045 1.32815e-08 0 8.32949e-08 0 1.823e-08
146 3 0.001 0.0460012 0 -0.00812573 1.61983e-08 0 2.39819e-07 0 1.823e-08
147 3 0.001 0.0466675 0 -0.00818809 -1.62405e-08 0 -2.27673e-07 0 1.823e-08
149 3 0.001 0.048 0 -0.00831281 6.59087e-09 0 6.58186e-08 0 1.82301e-08
150 3 0.001 0.0486663 0 -0.00837517 -1.3945e-08 0 -1.53925e-07 0 2.2968e-08
2 2 0.001 0.05 0 -0.0085 -0.0144287 0 0.00135049 0 1.3853e-08
151 3 0.001 0.0493331 0 -0.00843759 1.90172e-08 0 1.35533e-07 0 2.7706e-08
107 3 0.001 0.0200166 0 -0.00569412 1.16935e-08 0 1.29497e-07 0 1.823e-08
108 3 0.001 0.0206829 0 -0.00575644 8.77013e-09 0 1.13509e-08 0 1.823e-08
109 3 0.001 0.0213492 0 -0.00581877 2.43635e-10 0 -1.18416e-08 0 1.82301e-08
112 3 0.001 0.023348 0 -0.00600577 2.55962e-08 0 2.45353e-07 0 1.823e-08
110 3 0.001 0.0220154 0 -0.0058811 -1.85043e-09 0 7.47242e-08 0 1.823e-08
111 3 0.001 0.0226817 0 -0.00594344 -2.33975e-08 0 -2.55581e-07 0 1.823e-08
113 3 0.001 0.0240143 0 -0.00606811 -1.23176e-08 0 -6.05231e-08 0 1.823e-08
114 3 0.001 0.0246805 0 -0.00613045 -2.06264e-09 0 -6.75397e-09 0 1.823e-08
115 3 0.001 0.0253468 0 -0.00619279 -8.62652e-09 0 -1.11046e-07 0 1.823e-08
116 3 0.001 0.0260131 0 -0.00625513 2.53484e-08 0 1.84105e-07 0 1.823e-08
117 3 0.001 0.0266793 0 -0.00631747 1.71948e-09 0 -5.61745e-08 0 1.82301e-08
118 3 0.001 0.0273456 0 -0.00637982 -1.34303e-08 0 -5.33586e-08 0 1.82301e-08
120 3 0.001 0.0286782 0 -0.00650451 -2.18788e-08 0 -2.49179e-07 0 1.823e-08
121 3 0.001 0.0293444 0 -0.00656686 2.87496e-08 0 3.48921e-07 0 1.823e-08
119 3 0.001 0.0280119 0 -0.00644216 4.457e-09 0 8.98531e-08 0 1.823e-08
122 3 0.001 0.0300107 0 -0.0066292 -1.76868e-08 0 -1.66941e-07 0 1.823e-08
123 3 0.001 0.030677 0 -0.00669155 -2.05967e-09 0 -3.51098e-08 0 1.823e-08
124 3 0.001 0.0313432 0 -0.0067539 2.26045e-09 0 -3.6398e-08 0 1.823e-08
125 3 0.001 0.0320095 0 -0.00681625 2.21444e-08 0 1.82576e-07 0 1.823e-08
126 3 0.001 0.0326758 0 -0.00687861 -4.90609e-09 0 -2.33725e-08 0 1.82301e-08
127 3 0.001 0.0333421 0 -0.00694096 -2.57906e-08 0 -2.38159e-07 0 1.823e-08
128 3 0.001 0.0340083 0 -0.00700331 1.92253e-08 0 2.03795e-07 0 1.823e-08
129 3 0.001 0.0346746 0 -0.00706566 -3.84729e-09 0 -2.74558e-08 0 1.823e-08
130 3 0.001 0.0353409 0 -0.00712802 -1.09461e-08 0 -8.42863e-08 0 1.823e-08
131 3 0.001 0.0360071 0 -0.00719037 1.19127e-08 0 1.41234e-07 0 1.823e-08
81 3 0.001 0.00269333 0 -0.00407539 3.5167e-10 0 -5.7065e-08 0 1.823e-08
82 3 0.001 0.00335962 0 -0.00413753 7.65678e-09 0 1.76107e-08 0 1.823e-08
83 3 0.001 0.00402591 0 -0.00419969 8.9857e-09 0 1.42767e-07 0 1.823e-08
84 3 0.001 0.0046922 0 -0.00426187 -2.21946e-08 0 -2.2323e-07 0 1.823e-08
86 3 0.001 0.00602477 0 -0.00438625 3.16699e-08 0 3.45354e-07 0 1.823e-08
87 3 0.001 0.00669106 0 -0.00444846 -3.32023e-08 0 -2.85739e-07 0 1.823e-08
85 3 0.001 0.00535849 0 -0.00432405 1.30999e-09 0 -3.9092e-08 0 1.823e-08
88 3 0.001 0.00735734 0 -0.00451068 -1.6003e-09 0 4.18803e-08 0 1.823e-08
89 3 0.001 0.00802362 0 -0.00457291 9.18844e-09 0 4.66508e-08 0 1.823e-08
91 3 0.001 0.00935619 0 -0.0046974 -1.9781e-08 0 -1.90744e-07 0 1.823e-08
90 3 0.001 0.00868991 0 -0.00463515 1.07973e-08 0 6.3259e-08 0 1.823e-08
92 3 0.001 0.0100225 0 -0.00475965 1.38665e-08 0 1.17315e-07 0 1.823e-08
93 3 0.001 0.0106887 0 -0.00482192 7.68977e-09 0 6.33313e-09 0 1.823e-08
94 3 0.001 0.011355 0 -0.00488418 -4.8446e-09 0 2.76349e-09 0 1.823e-08
95 3 0.001 0.0120213 0 -0.00494646 -4.63711e-09 0 7.03958e-08 0 1.823e-08
96 3 0.001 0.0126876 0 -0.00500874 -1.05403e-08 0 -1.27614e-07 0 1.823e-08
97 3 0.001 0.0133539 0 -0.00507103 3.89567e-10 0 -4.70265e-08 0 1.823e-08
98 3 0.001 0.0140201 0 -0.00513332 1.78182e-08 0 1.68474e-07 0 1.823e-08
99 3 0.001 0.0146864 0 -0.00519561 -4.45205e-09 0 -7.11091e-08 0 1.823e-08
100 3 0.001 0.0153527 0 -0.00525791 -4.71852e-09 0 -7.64537e-08 0 1.823e-08
101 3 0.001 0.016019 0 -0.00532022 6.80381e-09 0 7.64399e-08 0 1.823e-08
102 3 0.001 0.0166852 0 -0.00538253 4.58577e-09 0 1.28165e-07 0 1.823e-08
104 3 0.001 0.0180178 0 -0.00550715 -3.44474e-10 0 -3.36901e-08 0 1.823e-08
105 3 0.001 0.0186841 0 -0.00556947 3.24029e-08 0 3.07756e-07 0 1.823e-08
103 3 0.001 0.0173515 0 -0.00544484 -2.49704e-08 0 -2.21267e-07 0 1.823e-08
106 3 0.001 0.0193503 0 -0.00563179 -3.01218e-08 0 -3.05617e-07 0 1.823e-08
55 3 0.001 -0.0146312 0 -0.00247062 1.22123e-08 0 6.39828e-08 0 1.82299e-08
56 3 0.001 -0.0139649 0 -0.00253163 -3.85409e-08 0 -4.13471e-07 0 1.823e-08
57 3 0.001 -0.0132985 0 -0.00259274 3.16498e-08 0 3.3483e-07 0 1.823e-08
58 3 0.001 -0.0126321 0 -0.00265393 1.45962e-08 0 8.72212e-08 0 1.823e-08
59 3 0.001 -0.0119657 0 -0.00271519 -2.24424e-08 0 -2.11753e-07 0 1.823e-08
60 3 0.001 -0.0112993 0 -0.00277654 -8.45798e-09 0 5.4408e-09 0 1.823e-08
62 3 0.001 -0.00996664 0 -0.00289943 -1.87514e-08 0 -1.89478e-07 0 1.823e-08
61 3 0.001 -0.010633 0 -0.00283795 1.4065e-08 0 1.63489e-07 0 1.823e-08
63 3 0.001 -0.00930029 0 -0.00296097 4.45874e-09 0 4.26496e-08 0 1.823e-08
64 3 0.001 -0.00863395 0 -0.00302256 2.27442e-08 0 2.41947e-07 0 1.823e-08
66 3 0.001 -0.00730128 0 -0.00314591 3.32253e-08 0 2.64262e-07 0 1.823e-08
65 3 0.001 -0.00796761 0 -0.00308421 -3.58777e-08 0 -4.13368e-07 0 1.823e-08
69 3 0.001 -0.00530231 0 -0.00333125 2.06948e-08 0 2.64011e-07 0 1.823e-08
67 3 0.001 -0.00663495 0 -0.00320765 7.57927e-09 0 7.44445e-08 0 1.823e-08
68 3 0.001 -0.00596863 0 -0.00326943 -2.92493e-08 0 -2.68532e-07 0 1.823e-08
71 3 0.001 -0.00396967 0 -0.00345501 2.30615e-08 0 2.66762e-07 0 1.823e-08
70 3 0.001 -0.00463599 0 -0.00339311 -3.31131e-08 0 -2.85933e-07 0 1.823e-08
72 3 0.001 -0.00330336 0 -0.00351693 -1.07876e-09 0 -4.98297e-08 0 1.823e-08
73 3 0.001 -0.00263706 0 -0.00357889 -5.07259e-09 0 -1.14322e-07 0 1.823e-08
74 3 0.001 -0.00197075 0 -0.00364087 1.64306e-08 0 1.15059e-07 0 1.823e-08
75 3 0.001 -0.00130445 0 -0.00370288 -6.78348e-09 0 -6.34733e-08 0 1.823e-08
76 3 0.001 -0.000638145 0 -0.00376491 -1.74182e-08 0 -1.24744e-07 0 1.823e-08
77 3 0.001 2.81541e-05 0 -0.00382697 3.2162e-08 0 3.51488e-07 0 1.823e-08
78 3 0.001 0.000694451 0 -0.00388905 -3.22097e-08 0 -3.57872e-07 0 1.823e-08
79 3 0.001 0.00136075 0 -0.00395114 1.16983e-08 0 1.70439e-07 0 1.823e-08
80 3 0.001 0.00202704 0 -0.00401326 -2.84348e-09 0 -1.386e-09 0 1.823e-08
27 3 0.001 -0.0332979 0 -0.000848655 5.07847e-09 0 6.15898e-08 0 1.82257e-08
28 3 0.001 -0.0326308 0 -0.000901154 -2.44192e-08 0 -3.06891e-07 0 1.82263e-08
30 3 0.001 -0.0312967 0 -0.00100814 8.63054e-09 0 2.30026e-08 0 1.82272e-08
29 3 0.001 -0.0319637 0 -0.00095433 2.39418e-08 0 3.07582e-07 0 1.82268e-08
32 3 0.001 -0.0299628 0 -0.00111747 1.04947e-08 0 1.84437e-07 0 1.82279e-08
31 3 0.001 -0.0306297 0 -0.00106253 -1.11958e-08 0 -2.66054e-07 0 1.82276e-08
35 3 0.001 -0.0279623 0 -0.0012852 4.35717e-08 0 5.09391e-07 0 1.82286e-08
33 3 0.001 -0.0292959 0 -0.00117292 -3.20755e-09 0 6.45008e-08 0 1.82282e-08
34 3 0.001 -0.0286291 0 -0.00122884 -2.78646e-08 0 -3.63729e-07 0 1.82284e-08
37 3 0.001 -0.0266288 0 -0.00139914 7.40155e-09 0 1.23999e-07 0 1.8229e-08
36 3 0.001 -0.0272955 0 -0.00134198 -3.33795e-08 0 -3.55043e-07 0 1.82288e-08
38 3 0.001 -0.0259621 0 -0.00145665 6.16936e-09 0 4.46565e-08 0 1.82291e-08
39 3 0.001 -0.0252954 0 -0.0015145 -1.55257e-08 0 -2.59965e-07 0 1.82292e-08
40 3 0.001 -0.0246287 0 -0.00157265 4.55497e-08 0 5.13612e-07 0 1.82294e-08
41 3 0.001 -0.0239621 0 -0.0016311 -5.47776e-08 0 -5.6567e-07 0 1.82294e-08
44 3 0.001 -0.0219624 0 -0.00180797 -2.6257e-08 0 -1.8783e-07 0 1.82296e-08
42 3 0.001 -0.0232955 0 -0.00168981 3.11682e-08 0 3.07848e-07 0 1.82295e-08
43 3 0.001 -0.0226289 0 -0.00174878 5.58269e-09 0 2.72432e-08 0 1.82296e-08
45 3 0.001 -0.0212958 0 -0.00186738 1.15331e-08 0 1.80491e-07 0 1.82297e-08
46 3 0.001 -0.0206293 0 -0.001927 -1.06521e-08 0 -1.58495e-07 0 1.82297e-08
48 3 0.001 -0.0192963 0 -0.00204678 3.5086e-09 0 1.41397e-08 0 1.82298e-08
47 3 0.001 -0.0199628 0 -0.0019868 1.44258e-08 0 1.09267e-07 0 1.82298e-08
49 3 0.001 -0.0186298 0 -0.00210692 -9.13571e-09 0 -1.07239e-07 0 1.82298e-08
50 3 0.001 -0.0179634 0 -0.00216722 2.01061e-08 0 1.529e-07 0 1.82299e-08
51 3 0.001 -0.0172969 0 -0.00222765 -2.0195e-08 0 -1.81261e-07 0 1.82299e-08
52 3 0.001 -0.0166305 0 -0.00228822 3.45369e-09 0 1.59274e-07 0 1.82299e-08
53 3 0.001 -0.0159641 0 -0.00234891 -1.73092e-08 0 -1.53934e-07 0 1.82299e-08
54 3 0.001 -0.0152977 0 -0.00240971 1.97316e-08 0 1.61846e-07 0 1.82299e-08
1 1 0.001 -0.05 0 0 -0.00339764 0 0.0172494 0 1.14427e-32
3 3 0.001 -0.0493333 0 0 0.0178263 0 -0.0185997 0 1.38158e-08
4 3 0.001 -0.0486636 0 -8.01345e-06 1.22373e-08 0 3.28418e-08 0 2.28786e-08
5 3 0.001 -0.0479945 0 -1.97525e-05 -2.65925e-09 0 -3.04987e-07 0 1.81325e-08
6 3 0.001 -0.0473255 0 -3.49681e-05 1.15781e-08 0 5.86846e-07 0 1.81454e-08
7 3 0.001 -0.0466566 0 -5.34214e-05 -8.69784e-09 0 -3.20098e-07 0 1.81566e-08
8 3 0.001 -0.0459878 0 -7.48903e-05 -1.16895e-08 0 -3.34479e-07 0 1.81663e-08
9 3 0.001 -0.045319 0 -9.91675e-05 1.95352e-08 0 5.73279e-07 0 1.81747e-08
10 3 0.001 -0.0446504 0 -0.00012606 -1.61871e-08 0 -3.403e-07 0 1.8182e-08
11 3 0.001 -0.0439819 0 -0.000155389 4.65717e-09 0 1.98715e-07 0 1.81884e-08
12 3 0.001 -0.0433134 0 -0.000186985 -3.77108e-09 0 -1.54219e-07 0 1.81939e-08
13 3 0.001 -0.0426451 0 -0.000220695 2.9803e-09 0 -6.14523e-08 0 1.81987e-08
14 3 0.001 -0.0419769 0 -0.000256371 1.03945e-08 0 2.58357e-07 0 1.82028e-08
15 3 0.001 -0.0413088 0 -0.00029388 -1.31882e-08 0 -2.50399e-07 0 1.82064e-08
16 3 0.001 -0.0406407 0 -0.000333095 1.52363e-08 0 1.78204e-07 0 1.82096e-08
17 3 0.001 -0.0399728 0 -0.000373899 -1.5625e-08 0 -1.69679e-07 0 1.82123e-08
18 3 0.001 -0.0393049 0 -0.000416183 1.0223e-08 0 2.29824e-07 0 1.82146e-08
19 3 0.001 -0.0386372 0 -0.000459845 -1.73492e-08 0 -2.45232e-07 0 1.82166e-08
20 3 0.001 -0.0379695 0 -0.000504791 4.35605e-09 0 7.22543e-08 0 1.82184e-08
21 3 0.001 -0.0373019 0 -0.000550932 1.32797e-08 0 1.69206e-07 0 1.82199e-08
22 3 0.001 -0.0366344 0 -0.000598186 -3.19175e-09 0 -1.16145e-07 0 1.82213e-08
23 3 0.001 -0.035967 0 -0.000646477 -6.53212e-09 0 -1.63609e-07 0 1.82225e-08
24 3 0.001 -0.0352996 0 -0.000695733 1.69832e-08 0 2.18285e-07 0 1.82235e-08
25 3 0.001 -0.0346323 0 -0.000745889 -1.35944e-08 0 -1.06582e-07 0 1.82243e-08
26 3 0.001 -0.0339651 0 -0.000796882 -2.86858e-09 0 6.99241e-08 0 1.82251e-08
