ITEM: TIMESTEP
4800000
ITEM: NUMBER OF ATOMS
151
ITEM: BOX BOUNDS ff ff ff
-5.5000000000000000e-02 5.5000000000000000e-02
-6.0000000000000001e-03 6.0000000000000001e-03
-2.5000000000000001e-02 2.5000000000000001e-02
ITEM: ATOMS id type radius x y z fx fy fz c_bendingE c_stretchingE
133 3 0.001 0.0373371 0 -0.00407815 8.47452e-10 0 1.59995e-08 0 1.93595e-09
134 3 0.001 0.0380035 0 -0.0041161 1.98487e-10 0 -1.32074e-09 0 1.93595e-09
135 3 0.001 0.0386699 0 -0.00415406 -1.14557e-09 0 -1.99016e-08 0 1.93595e-09
136 3 0.001 0.0393364 0 -0.00419203 9.00939e-10 0 2.08704e-08 0 1.93595e-09
137 3 0.001 0.0400028 0 -0.00423 -4.34655e-10 0 -7.3486e-09 0 1.93595e-09
138 3 0.001 0.0406692 0 -0.00426797 -4.46448e-11 0 -1.33298e-09 0 1.93595e-09
139 3 0.001 0.0413356 0 -0.00430595 3.15096e-10 0 4.30487e-09 0 1.93595e-09
140 3 0.001 0.042002 0 -0.00434394 -7.44154e-11 0 -3.28017e-09 0 1.93595e-09
141 3 0.001 0.0426684 0 -0.00438192 -4.11813e-10 0 -3.30622e-09 0 1.93595e-09
142 3 0.001 0.0433348 0 -0.00441991 6.64244e-10 0 1.01851e-08 0 1.93595e-09
143 3 0.001 0.0440012 0 -0.00445791 -1.51819e-10 0 -6.40954e-09 0 1.93595e-09
144 3 0.001 0.0446676 0 -0.0044959 -4.44996e-10 0 -4.05634e-09 0 1.93595e-09
145 3 0.001 0.045334 0 -0.0045339 2.13199e-10 0 5.57096e-09 0 1.93595e-09
146 3 0.001 0.0460004 0 -0.0045719 2.17527e-10 0 1.6825e-09 0 1.93595e-09
147 3 0.001 0.0466668 0 -0.00460991 -3.64585e-10 0 -5.67474e-09 0 1.93595e-09
148 3 0.001 0.0473332 0 -0.00464791 2.49509e-10 0 1.61931e-09 0 1.93595e-09
149 3 0.001 0.0479996 0 -0.00468591 2.84498e-10 0 4.02783e-09 0 1.93595e-09
150 3 0.001 0.048666 0 -0.00472392 -5.88901e-10 0 -6.42788e-09 0 3.83123e-09
2 2 0.001 0.05 0 -0.0048 -0.00471478 0 0.000270155 0 2.86326e-09
151 3 0.001 0.049333 0 -0.00476196 4.55482e-10 0 5.49204e-09 0 5.72652e-09
90 3 0.001 0.00868092 0 -0.00245902 -7.35023e-10 0 -1.20489e-08 0 1.93594e-09
91 3 0.001 0.00934737 0 -0.00249615 5.44115e-10 0 4.17834e-09 0 1.93594e-09
92 3 0.001 0.0100138 0 -0.00253331 3.37193e-10 0 4.97318e-09 0 1.93594e-09
93 3 0.001 0.0106803 0 -0.00257052 -3.50148e-10 0 -3.64693e-09 0 1.93594e-09
94 3 0.001 0.0113467 0 -0.00260776 -2.27894e-10 0 -3.80518e-09 0 1.93594e-09
95 3 0.001 0.0120132 0 -0.00264505 2.60773e-10 0 7.69181e-09 0 1.93594e-09
96 3 0.001 0.0126796 0 -0.00268236 -1.58011e-10 0 -4.07693e-09 0 1.93594e-09
97 3 0.001 0.013346 0 -0.00271971 1.27998e-10 0 -7.07162e-10 0 1.93594e-09
98 3 0.001 0.0140125 0 -0.00275709 -1.92841e-10 0 8.74867e-10 0 1.93594e-09
99 3 0.001 0.0146789 0 -0.0027945 -2.76177e-10 0 -5.19546e-09 0 1.93594e-09
100 3 0.001 0.0153454 0 -0.00283195 8.58308e-10 0 1.05276e-08 0 1.93594e-09
101 3 0.001 0.0160118 0 -0.00286942 -4.16333e-10 0 -5.72274e-09 0 1.93594e-09
102 3 0.001 0.0166782 0 -0.00290691 2.32575e-10 0 6.76743e-09 0 1.93594e-09
103 3 0.001 0.0173447 0 -0.00294444 -1.03077e-09 0 -1.86421e-08 0 1.93594e-09
104 3 0.001 0.0180111 0 -0.00298199 6.9597e-10 0 1.34471e-08 0 1.93594e-09
105 3 0.001 0.0186775 0 -0.00301956 6.72646e-10 0 8.68358e-09 0 1.93594e-09
106 3 0.001 0.0193439 0 -0.00305715 -8.54173e-10 0 -1.48391e-08 0 1.93594e-09
107 3 0.001 0.0200104 0 -0.00309477 -7.55712e-11 0 2.32523e-09 0 1.93594e-09
108 3 0.001 0.0206768 0 -0.00313241 6.3144e-10 0 7.11865e-09 0 1.93594e-09
109 3 0.001 0.0213432 0 -0.00317007 -2.31578e-10 0 -5.43836e-09 0 1.93594e-09
110 3 0.001 0.0220096 0 -0.00320775 -5.51226e-10 0 -6.79269e-09 0 1.93594e-09
111 3 0.001 0.0226761 0 -0.00324544 1.05313e-09 0 1.73282e-08 0 1.93594e-09
112 3 0.001 0.0233425 0 -0.00328316 -8.03703e-10 0 -1.33898e-08 0 1.93594e-09
113 3 0.001 0.0240089 0 -0.00332089 -1.10811e-11 0 1.17002e-09 0 1.93594e-09
114 3 0.001 0.0246753 0 -0.00335864 7.22391e-10 0 9.75219e-09 0 1.93594e-09
115 3 0.001 0.0253417 0 -0.0033964 -7.59613e-10 0 -1.21048e-08 0 1.93594e-09
116 3 0.001 0.0260081 0 -0.00343418 6.16948e-11 0 2.36516e-09 0 1.93594e-09
117 3 0.001 0.0266746 0 -0.00347197 8.54766e-10 0 1.06555e-08 0 1.93594e-09
118 3 0.001 0.027341 0 -0.00350978 -9.85035e-10 0 -1.36836e-08 0 1.93594e-09
119 3 0.001 0.0280074 0 -0.0035476 2.9505e-10 0 6.99064e-09 0 1.93594e-09
120 3 0.001 0.0286738 0 -0.00358543 1.35091e-11 0 -2.41733e-09 0 1.93594e-09
121 3 0.001 0.0293402 0 -0.00362327 4.00696e-11 0 2.27537e-09 0 1.93594e-09
122 3 0.001 0.0300066 0 -0.00366113 -1.90629e-10 0 -3.78652e-09 0 1.93594e-09
123 3 0.001 0.030673 0 -0.00369899 1.48303e-10 0 3.08449e-09 0 1.93594e-09
124 3 0.001 0.0313395 0 -0.00373687 1.18878e-10 0 3.43943e-09 0 1.93594e-09
125 3 0.001 0.0320059 0 -0.00377476 -2.53821e-10 0 -8.84515e-09 0 1.93594e-09
126 3 0.001 0.0326723 0 -0.00381265 7.72842e-10 0 1.23705e-08 0 1.93595e-09
127 3 0.001 0.0333387 0 -0.00385056 -1.12588e-09 0 -1.41873e-08 0 1.93595e-09
128 3 0.001 0.0340051 0 -0.00388847 4.69609e-10 0 6.94112e-09 0 1.93595e-09
129 3 0.001 0.0346715 0 -0.00392639 2.1858e-10 0 1.86895e-09 0 1.93595e-09
130 3 0.001 0.0353379 0 -0.00396432 -3.30712e-10 0 -3.99068e-09 0 1.93595e-09
131 3 0.001 0.0360043 0 -0.00400225 4.52055e-10 0 6.11804e-09 0 1.93595e-09
132 3 0.001 0.0366707 0 -0.0040402 -8.02149e-10 0 -1.29343e-08 0 1.93595e-09
44 3 0.001 -0.021981 0 -0.000845769 7.92077e-11 0 3.07073e-09 0 1.93574e-09
45 3 0.001 -0.0213142 0 -0.000877244 -1.22615e-10 0 -6.84779e-09 0 1.93575e-09
46 3 0.001 -0.0206475 0 -0.000908985 2.26215e-10 0 5.94365e-09 0 1.93577e-09
48 3 0.001 -0.0193141 0 -0.000973221 -5.49036e-10 0 -1.64189e-08 0 1.93579e-09
47 3 0.001 -0.0199808 0 -0.00094098 -1.01417e-10 0 2.32838e-09 0 1.93578e-09
49 3 0.001 -0.0186474 0 -0.0010057 1.13751e-09 0 2.12092e-08 0 1.93581e-09
50 3 0.001 -0.0179807 0 -0.0010384 -4.45104e-10 0 -7.45776e-09 0 1.93582e-09
51 3 0.001 -0.017314 0 -0.00107132 -5.38796e-10 0 -1.24816e-08 0 1.93583e-09
52 3 0.001 -0.0166473 0 -0.00110445 1.07925e-09 0 2.60837e-08 0 1.93583e-09
53 3 0.001 -0.0159807 0 -0.00113777 -1.49049e-09 0 -2.95217e-08 0 1.93584e-09
54 3 0.001 -0.015314 0 -0.00117129 1.12405e-09 0 1.94105e-08 0 1.93585e-09
55 3 0.001 -0.0146474 0 -0.001205 -1.94252e-10 0 -1.33566e-09 0 1.93586e-09
56 3 0.001 -0.0139808 0 -0.00123888 -3.99742e-10 0 -8.12967e-09 0 1.93586e-09
57 3 0.001 -0.0133142 0 -0.00127293 9.37235e-11 0 -2.22996e-09 0 1.93587e-09
58 3 0.001 -0.0126476 0 -0.00130714 6.35383e-10 0 1.45961e-08 0 1.93588e-09
59 3 0.001 -0.011981 0 -0.00134152 -3.48932e-10 0 -4.94912e-09 0 1.93588e-09
60 3 0.001 -0.0113144 0 -0.00137604 -6.6627e-10 0 -1.25533e-08 0 1.93589e-09
61 3 0.001 -0.0106478 0 -0.00141071 8.58188e-10 0 1.7288e-08 0 1.93589e-09
62 3 0.001 -0.00998119 0 -0.00144551 -5.25135e-10 0 -1.39471e-08 0 1.93589e-09
63 3 0.001 -0.00931462 0 -0.00148045 1.46174e-10 0 3.99301e-09 0 1.9359e-09
64 3 0.001 -0.00864806 0 -0.00151552 1.05313e-10 0 7.80408e-09 0 1.9359e-09
65 3 0.001 -0.0079815 0 -0.00155071 -1.24625e-10 0 -6.34778e-09 0 1.9359e-09
66 3 0.001 -0.00731495 0 -0.00158602 2.87634e-10 0 6.7972e-10 0 1.93591e-09
69 3 0.001 -0.00531533 0 -0.00169261 -9.04408e-10 0 -1.69987e-08 0 1.93591e-09
67 3 0.001 -0.0066484 0 -0.00162144 -3.6141e-10 0 -3.66817e-09 0 1.93591e-09
68 3 0.001 -0.00598186 0 -0.00165697 4.70896e-10 0 8.88935e-09 0 1.93591e-09
70 3 0.001 -0.0046488 0 -0.00172834 1.08498e-09 0 2.15816e-08 0 1.93592e-09
71 3 0.001 -0.00398227 0 -0.00176418 -2.80981e-10 0 -7.63185e-09 0 1.93592e-09
72 3 0.001 -0.00331576 0 -0.0018001 -5.99007e-10 0 -8.00956e-09 0 1.93592e-09
73 3 0.001 -0.00264924 0 -0.00183612 2.22308e-10 0 4.87096e-09 0 1.93592e-09
74 3 0.001 -0.00198273 0 -0.00187222 3.4313e-10 0 5.20053e-10 0 1.93592e-09
75 3 0.001 -0.00131623 0 -0.0019084 3.08399e-10 0 7.39868e-09 0 1.93593e-09
76 3 0.001 -0.000649725 0 -0.00194466 -1.056e-09 0 -1.7485e-08 0 1.93593e-09
77 3 0.001 1.67714e-05 0 -0.00198099 8.86663e-10 0 1.58632e-08 0 1.93593e-09
78 3 0.001 0.000683264 0 -0.0020174 -5.25499e-10 0 -7.97169e-09 0 1.93593e-09
79 3 0.001 0.00134975 0 -0.00205388 3.61558e-10 0 5.24473e-09 0 1.93593e-09
80 3 0.001 0.00201624 0 -0.00209042 8.33974e-11 0 1.93877e-10 0 1.93593e-09
81 3 0.001 0.00268272 0 -0.00212703 -9.54538e-10 0 -1.23117e-08 0 1.93593e-09
82 3 0.001 0.0033492 0 -0.0021637 1.02246e-09 0 1.56954e-08 0 1.93593e-09
83 3 0.001 0.00401567 0 -0.00220044 -3.75743e-10 0 -1.00499e-08 0 1.93593e-09
84 3 0.001 0.00468215 0 -0.00223722 1.53634e-10 0 6.4906e-09 0 1.93593e-09
85 3 0.001 0.00534862 0 -0.00227406 1.70169e-11 0 -1.30786e-09 0 1.93594e-09
86 3 0.001 0.00601508 0 -0.00231096 -1.24363e-10 0 -3.15429e-09 0 1.93594e-09
87 3 0.001 0.00668154 0 -0.0023479 -2.47077e-10 0 -2.05781e-09 0 1.93594e-09
88 3 0.001 0.00734801 0 -0.0023849 3.04636e-10 0 4.10682e-09 0 1.93594e-09
89 3 0.001 0.00801446 0 -0.00242194 2.37502e-10 0 6.07363e-09 0 1.93594e-09
1 1 0.001 -0.05 0 0 -0.0034105 0 0.0062921 0 1.14427e-32
3 3 0.001 -0.0493333 0 0 0.00812527 0 -0.00656212 0 2.86625e-09
4 3 0.001 -0.0486653 0 -2.91572e-06 -2.05655e-10 0 1.66076e-08 0 3.83173e-09
5 3 0.001 -0.0479978 0 -7.22919e-06 2.21723e-10 0 -6.14e-09 0 1.93115e-09
6 3 0.001 -0.0473303 0 -1.28874e-05 2.94328e-11 0 -3.4711e-09 0 1.93153e-09
7 3 0.001 -0.0466629 0 -1.9837e-05 -9.90835e-11 0 -3.52377e-09 0 1.93187e-09
8 3 0.001 -0.0459954 0 -2.80266e-05 3.39207e-10 0 1.78026e-08 0 1.93219e-09
9 3 0.001 -0.045328 0 -3.7407e-05 -4.82768e-10 0 -2.15645e-08 0 1.93248e-09
10 3 0.001 -0.0446606 0 -4.79309e-05 1.02881e-10 0 9.16693e-09 0 1.93275e-09
11 3 0.001 -0.0439932 0 -5.95529e-05 2.3715e-10 0 3.17529e-09 0 1.933e-09
12 3 0.001 -0.0433259 0 -7.22294e-05 -1.55733e-10 0 -2.40317e-09 0 1.93322e-09
13 3 0.001 -0.0426585 0 -8.59185e-05 -5.40417e-11 0 -1.28185e-09 0 1.93344e-09
14 3 0.001 -0.0419912 0 -0.00010058 1.83824e-10 0 1.9392e-10 0 1.93363e-09
15 3 0.001 -0.0413239 0 -0.000116175 -2.79212e-10 0 -7.52055e-09 0 1.93381e-09
16 3 0.001 -0.0406566 0 -0.000132667 6.2229e-10 0 2.16439e-08 0 1.93398e-09
17 3 0.001 -0.0399894 0 -0.000150019 -6.13251e-10 0 -2.29037e-08 0 1.93413e-09
18 3 0.001 -0.0393221 0 -0.000168199 8.11626e-12 0 9.04264e-09 0 1.93427e-09
19 3 0.001 -0.0386549 0 -0.000187172 3.00529e-10 0 6.82807e-09 0 1.9344e-09
20 3 0.001 -0.0379877 0 -0.000206908 -2.94408e-10 0 -1.08423e-08 0 1.93452e-09
21 3 0.001 -0.0373205 0 -0.000227376 -6.61109e-11 0 4.40732e-09 0 1.93463e-09
22 3 0.001 -0.0366534 0 -0.000248547 1.40345e-10 0 -1.59273e-09 0 1.93473e-09
23 3 0.001 -0.0359863 0 -0.000270393 4.33027e-10 0 6.43522e-09 0 1.93483e-09
24 3 0.001 -0.0353191 0 -0.000292887 -6.12331e-10 0 -1.28473e-08 0 1.93491e-09
25 3 0.001 -0.0346521 0 -0.000316004 3.04983e-10 0 1.16003e-08 0 1.93499e-09
26 3 0.001 -0.033985 0 -0.000339719 -1.71487e-10 0 -2.72444e-09 0 1.93507e-09
27 3 0.001 -0.033318 0 -0.000364007 1.67894e-12 0 -1.55418e-09 0 1.93513e-09
28 3 0.001 -0.0326509 0 -0.000388847 5.6587e-11 0 -4.43816e-09 0 1.9352e-09
29 3 0.001 -0.0319839 0 -0.000414216 1.54596e-10 0 8.66657e-09 0 1.93526e-09
30 3 0.001 -0.0313169 0 -0.000440094 -4.63738e-11 0 -4.77897e-11 0 1.93531e-09
31 3 0.001 -0.03065 0 -0.000466459 1.42113e-11 0 -6.7968e-09 0 1.93536e-09
32 3 0.001 -0.029983 0 -0.000493293 1.13691e-10 0 2.91631e-09 0 1.9354e-09
33 3 0.001 -0.0293161 0 -0.000520578 -2.64504e-10 0 -2.16955e-09 0 1.93545e-09
34 3 0.001 -0.0286492 0 -0.000548294 8.30364e-11 0 2.94675e-09 0 1.93548e-09
35 3 0.001 -0.0279823 0 -0.000576426 -6.392e-11 0 2.38159e-09 0 1.93552e-09
36 3 0.001 -0.0273154 0 -0.000604956 -1.37422e-10 0 -7.03177e-09 0 1.93555e-09
37 3 0.001 -0.0266486 0 -0.000633868 5.8532e-10 0 7.96627e-09 0 1.93558e-09
38 3 0.001 -0.0259817 0 -0.000663148 -7.11874e-10 0 -9.0136e-09 0 1.93561e-09
39 3 0.001 -0.0253149 0 -0.000692782 5.00739e-10 0 1.07223e-08 0 1.93564e-09
40 3 0.001 -0.0246481 0 -0.000722754 -3.14341e-10 0 -1.14777e-08 0 1.93566e-09
41 3 0.001 -0.0239813 0 -0.000753051 4.02136e-10 0 1.14201e-08 0 1.93568e-09
42 3 0.001 -0.0233145 0 -0.000783661 -4.68112e-10 0 -9.75656e-09 0 1.9357e-09
43 3 0.001 -0.0226477 0 -0.000814571 1.39386e-10 0 4.03863e-09 0 1.93572e-09
