ITEM: TIMESTEP
790000
ITEM: NUMBER OF ATOMS
151
ITEM: BOX BOUNDS ff ff ff
-5.2499999999999998e-02 5.2499999999999998e-02
-6.0000000000000001e-03 6.0000000000000001e-03
-1.4999999999999999e-02 1.4999999999999999e-02
ITEM: ATOMS id type radius x y z fx fy fz c_bendingE c_stretchingE
145 3 0.001 0.043068 0 -0.007114 6.77124e-06 0 -2.12249e-06 0 1.30179e-08
146 3 0.001 0.043701 0 -0.00716983 5.33005e-06 0 -4.50978e-07 0 1.30306e-08
147 3 0.001 0.0443339 0 -0.00722567 -2.49404e-06 0 1.75258e-07 0 1.30336e-08
148 3 0.001 0.0449669 0 -0.00728152 -1.91413e-05 0 1.66033e-06 0 1.30111e-08
149 3 0.001 0.0455998 0 -0.00733736 -1.06938e-05 0 1.41742e-06 0 1.3164e-08
150 3 0.001 0.0462328 0 -0.0073932 -4.47893e-06 0 1.32474e-06 0 1.80517e-08
2 2 0.001 0.0475 0 -0.007505 -0.0125008 0 0.00110184 0 1.14015e-08
151 3 0.001 0.0468664 0 -0.0074491 1.33335e-05 0 3.69578e-08 0 2.27849e-08
117 3 0.001 0.0253454 0 -0.00555101 3.10229e-06 0 -3.57072e-07 0 1.3028e-08
118 3 0.001 0.0259784 0 -0.00560681 3.9293e-06 0 -1.05193e-06 0 1.30353e-08
119 3 0.001 0.0266113 0 -0.0056626 -7.85669e-06 0 2.31612e-07 0 1.30314e-08
120 3 0.001 0.0272443 0 -0.0057184 -5.15041e-06 0 1.11536e-06 0 1.30178e-08
121 3 0.001 0.0278772 0 -0.0057742 5.28467e-06 0 4.7811e-07 0 1.30178e-08
124 3 0.001 0.0297761 0 -0.00594162 -3.46082e-06 0 -5.43342e-07 0 1.30332e-08
122 3 0.001 0.0285102 0 -0.00583 1.72463e-06 0 -6.69338e-07 0 1.30251e-08
123 3 0.001 0.0291432 0 -0.00588581 4.65458e-06 0 -9.7003e-07 0 1.30318e-08
126 3 0.001 0.031042 0 -0.00605325 -1.40947e-06 0 7.02584e-07 0 1.30243e-08
125 3 0.001 0.0304091 0 -0.00599743 -1.89296e-06 0 -1.22109e-07 0 1.30277e-08
129 3 0.001 0.0329408 0 -0.0062207 2.69379e-06 0 -7.53591e-07 0 1.301e-08
128 3 0.001 0.0323079 0 -0.00616488 -2.38478e-06 0 1.1725e-06 0 1.30097e-08
127 3 0.001 0.031675 0 -0.00610907 -4.97488e-06 0 9.39703e-07 0 1.30175e-08
130 3 0.001 0.0335738 0 -0.00627653 -7.01842e-06 0 5.69897e-07 0 1.30056e-08
131 3 0.001 0.0342067 0 -0.00633235 7.46643e-06 0 2.19834e-07 0 1.3006e-08
133 3 0.001 0.0354726 0 -0.006444 -6.06335e-06 0 -3.22842e-07 0 1.30251e-08
132 3 0.001 0.0348397 0 -0.00638817 8.51354e-06 0 -8.12773e-07 0 1.30225e-08
134 3 0.001 0.0361056 0 -0.00649983 -5.71615e-08 0 3.96935e-07 0 1.30188e-08
135 3 0.001 0.0367385 0 -0.00655565 -9.02498e-06 0 3.79262e-07 0 1.30094e-08
136 3 0.001 0.0373715 0 -0.00661148 -1.50153e-06 0 1.45369e-06 0 1.29984e-08
137 3 0.001 0.0380044 0 -0.00666731 2.91778e-06 0 -1.42645e-06 0 1.29998e-08
138 3 0.001 0.0386374 0 -0.00672315 4.91572e-06 0 -1.48269e-06 0 1.30082e-08
139 3 0.001 0.0392703 0 -0.00677898 9.55037e-06 0 -1.25333e-06 0 1.30234e-08
140 3 0.001 0.0399033 0 -0.00683481 2.53045e-06 0 2.24524e-07 0 1.30359e-08
142 3 0.001 0.0411692 0 -0.00694648 -2.69827e-06 0 1.68361e-06 0 1.30085e-08
143 3 0.001 0.0418021 0 -0.00700232 2.78005e-06 0 -1.13586e-06 0 1.30085e-08
141 3 0.001 0.0405362 0 -0.00689065 -1.28566e-05 0 3.10524e-06 0 1.3025e-08
144 3 0.001 0.0424351 0 -0.00705816 -4.67349e-07 0 -1.05904e-06 0 1.30111e-08
89 3 0.001 0.00762259 0 -0.00399121 -6.42213e-06 0 4.40236e-07 0 1.30106e-08
90 3 0.001 0.00825556 0 -0.0040468 -3.25103e-06 0 1.40603e-06 0 1.30005e-08
91 3 0.001 0.00888852 0 -0.00410239 2.19024e-06 0 6.36523e-07 0 1.29992e-08
93 3 0.001 0.0101545 0 -0.00421363 -8.94751e-07 0 -4.75496e-07 0 1.29882e-08
92 3 0.001 0.00952149 0 -0.004158 -5.92376e-06 0 9.10919e-07 0 1.29952e-08
94 3 0.001 0.0107874 0 -0.00426926 4.27076e-06 0 -6.61135e-07 0 1.29918e-08
95 3 0.001 0.0114204 0 -0.00432491 1.46975e-05 0 -1.88369e-07 0 1.30114e-08
96 3 0.001 0.0120533 0 -0.00438056 1.13769e-05 0 -4.70448e-07 0 1.30384e-08
97 3 0.001 0.0126863 0 -0.00443623 -4.48209e-07 0 -2.99796e-07 0 1.30497e-08
98 3 0.001 0.0133193 0 -0.0044919 -2.95237e-06 0 -8.61864e-07 0 1.30463e-08
100 3 0.001 0.0145852 0 -0.00460328 -6.20389e-06 0 1.80299e-06 0 1.30379e-08
99 3 0.001 0.0139522 0 -0.00454759 4.57704e-07 0 -7.63833e-07 0 1.30439e-08
102 3 0.001 0.0158511 0 -0.00471469 6.64547e-06 0 -2.70755e-07 0 1.30067e-08
103 3 0.001 0.0164841 0 -0.0047704 8.38323e-06 0 -1.72938e-06 0 1.30224e-08
101 3 0.001 0.0152182 0 -0.00465898 -1.51208e-05 0 1.36496e-06 0 1.30156e-08
104 3 0.001 0.017117 0 -0.00482613 -1.41198e-05 0 2.03018e-06 0 1.30165e-08
105 3 0.001 0.01775 0 -0.00488186 -2.25811e-06 0 2.31635e-07 0 1.29994e-08
106 3 0.001 0.0183829 0 -0.00493759 9.69551e-06 0 -1.27486e-06 0 1.30071e-08
107 3 0.001 0.0190159 0 -0.00499333 -3.91647e-07 0 -6.87112e-07 0 1.30169e-08
108 3 0.001 0.0196489 0 -0.00504908 3.90227e-06 0 -1.29817e-06 0 1.30207e-08
109 3 0.001 0.0202818 0 -0.00510483 6.50518e-06 0 -4.17415e-07 0 1.30316e-08
110 3 0.001 0.0209148 0 -0.00516059 -2.97019e-06 0 1.62241e-06 0 1.30352e-08
111 3 0.001 0.0215477 0 -0.00521635 -2.73071e-06 0 1.38645e-06 0 1.3029e-08
112 3 0.001 0.0221807 0 -0.00527212 1.06524e-05 0 -6.3754e-07 0 1.30371e-08
114 3 0.001 0.0234466 0 -0.00538367 -3.00488e-06 0 -4.96224e-07 0 1.30338e-08
113 3 0.001 0.0228136 0 -0.00532789 -5.47201e-06 0 1.33369e-07 0 1.30425e-08
116 3 0.001 0.0247125 0 -0.00549523 -4.30813e-06 0 4.3287e-07 0 1.30292e-08
115 3 0.001 0.0240795 0 -0.00543944 1.38854e-06 0 -3.23155e-07 0 1.30322e-08
60 3 0.001 -0.0107347 0 -0.00239204 -1.50459e-05 0 1.88453e-06 0 1.30181e-08
62 3 0.001 -0.00946853 0 -0.00250097 5.64972e-06 0 -1.14691e-06 0 1.29838e-08
61 3 0.001 -0.0101016 0 -0.00244646 -1.17508e-05 0 1.36099e-06 0 1.29901e-08
64 3 0.001 -0.00820242 0 -0.00261021 8.31708e-06 0 -1.03788e-06 0 1.30056e-08
65 3 0.001 -0.00756938 0 -0.00266493 -3.42058e-06 0 6.85702e-07 0 1.30106e-08
63 3 0.001 -0.00883547 0 -0.00255555 3.37171e-06 0 -7.80992e-07 0 1.29933e-08
66 3 0.001 -0.00693634 0 -0.00271973 7.31479e-06 0 4.33425e-07 0 1.30146e-08
67 3 0.001 -0.00630331 0 -0.00277458 9.20137e-06 0 -6.35825e-07 0 1.30316e-08
68 3 0.001 -0.00567028 0 -0.00282949 -2.11609e-06 0 -7.13076e-07 0 1.30391e-08
69 3 0.001 -0.00503725 0 -0.00288445 -7.53136e-06 0 7.42012e-07 0 1.30291e-08
71 3 0.001 -0.00377122 0 -0.00299453 8.31436e-06 0 -8.88048e-07 0 1.30156e-08
72 3 0.001 -0.0031382 0 -0.00304964 1.55147e-06 0 4.4493e-07 0 1.30258e-08
70 3 0.001 -0.00440423 0 -0.00293947 -6.91135e-06 0 6.0652e-07 0 1.30141e-08
73 3 0.001 -0.0025052 0 -0.00310478 -6.94448e-06 0 4.60307e-07 0 1.30202e-08
74 3 0.001 -0.00187219 0 -0.00315997 2.98435e-06 0 4.3671e-07 0 1.3016e-08
75 3 0.001 -0.00123919 0 -0.00321519 -1.09141e-06 0 9.55554e-07 0 1.30178e-08
76 3 0.001 -0.000606192 0 -0.00327045 1.46892e-05 0 -4.08283e-07 0 1.30318e-08
79 3 0.001 0.00129279 0 -0.00343642 6.09967e-08 0 -4.32589e-07 0 1.3031e-08
77 3 0.001 2.68055e-05 0 -0.00332574 -1.6268e-06 0 -6.03618e-07 0 1.30454e-08
78 3 0.001 0.0006598 0 -0.00338106 -6.31489e-06 0 -1.05842e-06 0 1.30373e-08
80 3 0.001 0.00192578 0 -0.00349179 -9.93853e-06 0 1.12919e-06 0 1.30208e-08
81 3 0.001 0.00255876 0 -0.0035472 7.73084e-06 0 3.06303e-07 0 1.30184e-08
83 3 0.001 0.00382473 0 -0.00365808 -7.22644e-07 0 2.72543e-07 0 1.30323e-08
84 3 0.001 0.00445771 0 -0.00371355 -2.20214e-06 0 3.705e-07 0 1.30292e-08
82 3 0.001 0.00319175 0 -0.00360263 3.23897e-06 0 -4.52404e-07 0 1.30297e-08
85 3 0.001 0.00509069 0 -0.00376905 -3.30959e-06 0 4.28851e-07 0 1.30235e-08
86 3 0.001 0.00572367 0 -0.00382456 6.3789e-06 0 -1.1042e-06 0 1.30267e-08
87 3 0.001 0.00635664 0 -0.0038801 -3.34706e-08 0 -1.25254e-06 0 1.30335e-08
88 3 0.001 0.00698962 0 -0.00393565 -7.91255e-06 0 -4.24446e-07 0 1.30254e-08
29 3 0.001 -0.0303675 0 -0.000798163 1.07476e-05 0 -4.13634e-07 0 1.3005e-08
31 3 0.001 -0.0291001 0 -0.000891066 -7.07544e-06 0 1.00256e-07 0 1.3024e-08
30 3 0.001 -0.0297338 0 -0.000844321 6.94902e-06 0 -1.03227e-06 0 1.30238e-08
33 3 0.001 -0.0278329 0 -0.000986175 -1.47905e-07 0 4.22444e-07 0 1.30307e-08
34 3 0.001 -0.0271993 0 -0.00103447 4.51549e-06 0 5.29981e-07 0 1.30354e-08
32 3 0.001 -0.0284665 0 -0.000938362 6.51932e-06 0 -1.0328e-06 0 1.30238e-08
35 3 0.001 -0.0265658 0 -0.00108323 1.53884e-06 0 1.00892e-06 0 1.30417e-08
36 3 0.001 -0.0259323 0 -0.00113241 -1.97584e-06 0 9.25222e-07 0 1.30413e-08
38 3 0.001 -0.0246653 0 -0.00123196 -9.12457e-06 0 -1.49544e-07 0 1.30444e-08
39 3 0.001 -0.0240319 0 -0.00128228 -7.6389e-06 0 -6.94168e-07 0 1.30273e-08
37 3 0.001 -0.0252988 0 -0.001182 6.88593e-06 0 -8.32233e-07 0 1.30465e-08
41 3 0.001 -0.0227652 0 -0.00138389 4.48978e-06 0 -5.36189e-07 0 1.30416e-08
40 3 0.001 -0.0233986 0 -0.00133293 8.27904e-06 0 -1.09771e-06 0 1.30282e-08
42 3 0.001 -0.0221319 0 -0.00143515 -3.71142e-06 0 3.82119e-07 0 1.30426e-08
43 3 0.001 -0.0214985 0 -0.00148668 4.43554e-06 0 8.43818e-08 0 1.30433e-08
45 3 0.001 -0.020232 0 -0.00159051 -3.70235e-06 0 1.54904e-06 0 1.30437e-08
46 3 0.001 -0.0195987 0 -0.00164278 1.80287e-06 0 -5.4495e-07 0 1.30417e-08
44 3 0.001 -0.0208652 0 -0.00153848 -1.07225e-07 0 1.07718e-06 0 1.30478e-08
47 3 0.001 -0.0189655 0 -0.00169526 -9.47989e-06 0 -1.08551e-08 0 1.30338e-08
48 3 0.001 -0.0183323 0 -0.00174794 -1.42058e-05 0 2.84716e-07 0 1.30094e-08
50 3 0.001 -0.0170659 0 -0.00185386 1.59267e-06 0 -5.08308e-07 0 1.30084e-08
49 3 0.001 -0.0176991 0 -0.00180081 5.76189e-06 0 -3.54596e-07 0 1.30007e-08
51 3 0.001 -0.0164327 0 -0.00190707 -9.35748e-06 0 7.39478e-07 0 1.30004e-08
52 3 0.001 -0.0157995 0 -0.00196045 2.09265e-07 0 4.51861e-07 0 1.29909e-08
53 3 0.001 -0.0151664 0 -0.00201397 5.70631e-06 0 -3.69596e-07 0 1.2997e-08
55 3 0.001 -0.0139001 0 -0.00212141 1.03118e-05 0 -3.62738e-07 0 1.30107e-08
54 3 0.001 -0.0145333 0 -0.00206762 -1.34361e-06 0 9.32168e-07 0 1.30015e-08
56 3 0.001 -0.013267 0 -0.00217532 1.06854e-05 0 -9.05712e-07 0 1.30325e-08
57 3 0.001 -0.0126339 0 -0.00222935 1.84297e-06 0 -6.30887e-07 0 1.30456e-08
58 3 0.001 -0.0120008 0 -0.00228348 -3.21223e-06 0 -9.81727e-07 0 1.30444e-08
59 3 0.001 -0.0113677 0 -0.00233771 -3.55689e-06 0 1.24328e-07 0 1.30374e-08
1 1 0.001 -0.0475 0 0 -0.00410975 0 0.0160989 0 1.60362e-34
3 3 0.001 -0.0468667 0 0 0.0166087 0 -0.0172021 0 1.13884e-08
4 3 0.001 -0.0462306 0 -6.40934e-06 2.58013e-06 0 1.14787e-06 0 1.804e-08
5 3 0.001 -0.0455953 0 -1.58219e-05 -4.33527e-06 0 8.40163e-07 0 1.31108e-08
6 3 0.001 -0.04496 0 -2.80606e-05 1.07138e-05 0 -9.88879e-07 0 1.29331e-08
7 3 0.001 -0.0443248 0 -4.29539e-05 1.0334e-05 0 -2.91286e-07 0 1.29617e-08
8 3 0.001 -0.0436896 0 -6.03399e-05 1.41409e-05 0 -7.94322e-07 0 1.2993e-08
9 3 0.001 -0.0430545 0 -8.00669e-05 -6.50887e-06 0 7.65391e-07 0 1.30062e-08
10 3 0.001 -0.0424195 0 -0.000101992 -1.15544e-05 0 1.00836e-06 0 1.29921e-08
11 3 0.001 -0.0417845 0 -0.000125981 -1.06562e-05 0 -7.90782e-07 0 1.29732e-08
12 3 0.001 -0.0411497 0 -0.000151909 9.01457e-06 0 -1.48535e-06 0 1.29753e-08
13 3 0.001 -0.0405149 0 -0.000179656 1.315e-05 0 -4.35954e-07 0 1.30015e-08
14 3 0.001 -0.0398801 0 -0.000209113 -3.28016e-06 0 4.26345e-07 0 1.30145e-08
15 3 0.001 -0.0392455 0 -0.000240175 7.77606e-07 0 6.71066e-07 0 1.30143e-08
16 3 0.001 -0.0386109 0 -0.000272743 -4.29653e-06 0 6.91995e-07 0 1.30128e-08
17 3 0.001 -0.0379764 0 -0.000306726 -1.14391e-05 0 1.40993e-07 0 1.29984e-08
18 3 0.001 -0.037342 0 -0.000342037 -9.38586e-07 0 3.26805e-07 0 1.29873e-08
19 3 0.001 -0.0367076 0 -0.000378595 4.21317e-06 0 1.93971e-07 0 1.29922e-08
20 3 0.001 -0.0360734 0 -0.000416325 4.46931e-06 0 9.19788e-07 0 1.30024e-08
21 3 0.001 -0.0354391 0 -0.000455155 9.17034e-06 0 -6.72478e-07 0 1.30177e-08
22 3 0.001 -0.034805 0 -0.000495018 -3.61834e-06 0 -1.97549e-06 0 1.30246e-08
23 3 0.001 -0.0341709 0 -0.000535852 -4.72209e-06 0 -8.31262e-07 0 1.30171e-08
24 3 0.001 -0.0335369 0 -0.000577598 -4.71024e-06 0 1.0042e-06 0 1.30081e-08
25 3 0.001 -0.0329029 0 -0.000620199 -5.56163e-06 0 1.09262e-06 0 1.29981e-08
26 3 0.001 -0.032269 0 -0.000663604 1.44515e-06 0 4.69384e-07 0 1.29944e-08
27 3 0.001 -0.0316351 0 -0.000707762 3.64564e-07 0 3.08133e-07 0 1.29967e-08
28 3 0.001 -0.0310013 0 -0.00075263 -2.0752e-06 0 -1.0066e-06 0 1.29955e-08
