ITEM: TIMESTEP
8100000
ITEM: NUMBER OF ATOMS
151
ITEM: BOX BOUNDS ff ff ff
-5.5000000000000000e-02 5.5000000000000000e-02
-6.0000000000000001e-03 6.0000000000000001e-03
-2.5000000000000001e-02 2.5000000000000001e-02
ITEM: ATOMS id type radius x y z fx fy fz c_bendingE c_stretchingE
132 3 0.001 0.0366731 0 -0.00690551 -1.59001e-08 0 -1.14862e-07 0 1.50854e-08
133 3 0.001 0.0373394 0 -0.00696522 1.14141e-08 0 1.10022e-07 0 1.50854e-08
134 3 0.001 0.0380057 0 -0.00702494 -8.23698e-09 0 -1.25303e-07 0 1.50854e-08
135 3 0.001 0.038672 0 -0.00708466 4.31866e-10 0 2.25208e-09 0 1.50854e-08
136 3 0.001 0.0393383 0 -0.00714437 1.03991e-08 0 1.22149e-07 0 1.50854e-08
137 3 0.001 0.0400046 0 -0.00720409 -2.12462e-09 0 -3.86082e-08 0 1.50854e-08
138 3 0.001 0.0406709 0 -0.00726381 -1.23302e-08 0 -1.26258e-07 0 1.50854e-08
139 3 0.001 0.0413371 0 -0.00732353 5.37058e-09 0 1.29118e-07 0 1.50854e-08
140 3 0.001 0.0420034 0 -0.00738325 1.56764e-09 0 1.66311e-08 0 1.50854e-08
141 3 0.001 0.0426697 0 -0.00744297 -2.79914e-09 0 -1.26314e-07 0 1.50854e-08
142 3 0.001 0.043336 0 -0.00750269 1.48888e-08 0 1.27576e-07 0 1.50855e-08
143 3 0.001 0.0440023 0 -0.00756241 -1.79031e-08 0 -1.47574e-07 0 1.50855e-08
144 3 0.001 0.0446686 0 -0.00762213 8.24958e-09 0 1.64269e-07 0 1.50854e-08
145 3 0.001 0.0453348 0 -0.00768185 2.87251e-10 0 -6.62677e-10 0 1.50854e-08
148 3 0.001 0.0473337 0 -0.00786101 2.79853e-10 0 -3.624e-09 0 1.50854e-08
146 3 0.001 0.0460011 0 -0.00774157 -1.27818e-08 0 -1.96879e-07 0 1.50854e-08
147 3 0.001 0.0466674 0 -0.00780129 1.21577e-08 0 1.55671e-07 0 1.50854e-08
149 3 0.001 0.048 0 -0.00792073 7.99967e-09 0 3.32459e-08 0 1.50855e-08
150 3 0.001 0.0486663 0 -0.00798045 -1.59972e-08 0 -1.38197e-07 0 1.94451e-08
2 2 0.001 0.05 0 -0.0081 -0.0131301 0 0.00117699 0 1.19023e-08
151 3 0.001 0.0493331 0 -0.00804023 2.66353e-09 0 9.50319e-08 0 2.38047e-08
107 3 0.001 0.020016 0 -0.00541298 8.06678e-09 0 9.37081e-08 0 1.50854e-08
108 3 0.001 0.0206823 0 -0.00547266 2.08512e-10 0 4.70041e-08 0 1.50854e-08
109 3 0.001 0.0213486 0 -0.00553234 -8.02233e-09 0 -1.025e-07 0 1.50854e-08
112 3 0.001 0.0233474 0 -0.0057114 -1.10502e-08 0 -8.49623e-08 0 1.50854e-08
110 3 0.001 0.0220149 0 -0.00559202 8.27435e-09 0 4.82591e-08 0 1.50854e-08
111 3 0.001 0.0226811 0 -0.00565171 6.67484e-09 0 3.72292e-08 0 1.50854e-08
113 3 0.001 0.0240137 0 -0.00577109 7.58607e-10 0 7.57432e-08 0 1.50854e-08
114 3 0.001 0.02468 0 -0.00583078 1.00014e-09 0 -4.84726e-09 0 1.50854e-08
115 3 0.001 0.0253463 0 -0.00589048 -3.64191e-09 0 -6.6757e-08 0 1.50854e-08
116 3 0.001 0.0260126 0 -0.00595017 6.6133e-09 0 5.9073e-08 0 1.50854e-08
117 3 0.001 0.0266789 0 -0.00600987 7.26529e-10 0 -3.08082e-08 0 1.50854e-08
118 3 0.001 0.0273452 0 -0.00606957 9.46733e-09 0 9.5776e-08 0 1.50854e-08
120 3 0.001 0.0286777 0 -0.00618898 1.69417e-08 0 2.75263e-07 0 1.50854e-08
121 3 0.001 0.029344 0 -0.00624868 -1.52328e-08 0 -1.60166e-07 0 1.50854e-08
119 3 0.001 0.0280114 0 -0.00612927 -2.40818e-08 0 -2.26655e-07 0 1.50854e-08
122 3 0.001 0.0300103 0 -0.00630839 7.46887e-09 0 -1.79809e-08 0 1.50854e-08
123 3 0.001 0.0306766 0 -0.0063681 1.2923e-08 0 1.05303e-07 0 1.50854e-08
124 3 0.001 0.0313429 0 -0.00642781 -7.6482e-09 0 -5.91548e-08 0 1.50854e-08
125 3 0.001 0.0320092 0 -0.00648752 -7.81174e-09 0 -6.71861e-08 0 1.50854e-08
126 3 0.001 0.0326754 0 -0.00654723 1.10206e-08 0 1.59117e-07 0 1.50854e-08
127 3 0.001 0.0333417 0 -0.00660694 -1.05446e-08 0 -1.07336e-07 0 1.50854e-08
128 3 0.001 0.034008 0 -0.00666665 5.65244e-10 0 -3.88615e-09 0 1.50854e-08
129 3 0.001 0.0346743 0 -0.00672636 9.30738e-09 0 8.22956e-08 0 1.50854e-08
130 3 0.001 0.0353406 0 -0.00678608 -1.11997e-08 0 -1.78799e-07 0 1.50854e-08
131 3 0.001 0.0360069 0 -0.00684579 1.52213e-08 0 1.97099e-07 0 1.50854e-08
81 3 0.001 0.00269231 0 -0.00386354 -1.20724e-08 0 -7.22893e-08 0 1.50854e-08
82 3 0.001 0.00335862 0 -0.003923 6.9291e-09 0 1.07317e-07 0 1.50854e-08
83 3 0.001 0.00402492 0 -0.00398248 -1.0435e-08 0 -1.36622e-07 0 1.50854e-08
84 3 0.001 0.00469123 0 -0.00404197 4.39428e-09 0 2.32432e-08 0 1.50854e-08
86 3 0.001 0.00602383 0 -0.00416099 -2.08747e-08 0 -2.25693e-07 0 1.50854e-08
87 3 0.001 0.00669014 0 -0.00422053 1.7194e-08 0 1.76815e-07 0 1.50854e-08
85 3 0.001 0.00535753 0 -0.00410147 1.56188e-08 0 1.54327e-07 0 1.50854e-08
88 3 0.001 0.00735644 0 -0.00428007 -2.98556e-09 0 -1.56347e-08 0 1.50854e-08
89 3 0.001 0.00802273 0 -0.00433963 -2.03582e-08 0 -1.53312e-07 0 1.50854e-08
91 3 0.001 0.00935533 0 -0.00445878 -5.81144e-09 0 -1.35823e-07 0 1.50854e-08
90 3 0.001 0.00868903 0 -0.0043992 1.75564e-08 0 1.85565e-07 0 1.50854e-08
92 3 0.001 0.0100216 0 -0.00451836 1.02278e-08 0 7.72023e-08 0 1.50854e-08
93 3 0.001 0.0106879 0 -0.00457796 6.56724e-10 0 3.39683e-08 0 1.50854e-08
94 3 0.001 0.0113542 0 -0.00463756 -1.67759e-08 0 -1.49909e-07 0 1.50854e-08
95 3 0.001 0.0120205 0 -0.00469718 1.6407e-08 0 1.71673e-07 0 1.50854e-08
96 3 0.001 0.0126868 0 -0.0047568 -1.42521e-08 0 -1.26514e-07 0 1.50854e-08
97 3 0.001 0.0133531 0 -0.00481642 1.37267e-09 0 4.16606e-08 0 1.50854e-08
98 3 0.001 0.0140194 0 -0.00487606 1.58784e-08 0 9.13023e-08 0 1.50854e-08
99 3 0.001 0.0146857 0 -0.0049357 -1.42348e-08 0 -1.93874e-07 0 1.50854e-08
100 3 0.001 0.015352 0 -0.00499534 1.33602e-08 0 2.068e-07 0 1.50854e-08
101 3 0.001 0.0160183 0 -0.00505499 -2.32771e-08 0 -1.94963e-07 0 1.50854e-08
102 3 0.001 0.0166846 0 -0.00511464 1.52442e-08 0 1.60446e-07 0 1.50854e-08
104 3 0.001 0.0180171 0 -0.00523397 -2.21599e-08 0 -2.40524e-07 0 1.50854e-08
105 3 0.001 0.0186834 0 -0.00529363 2.7636e-08 0 3.48337e-07 0 1.50854e-08
103 3 0.001 0.0173508 0 -0.0051743 6.69893e-09 0 2.04797e-10 0 1.50854e-08
106 3 0.001 0.0193497 0 -0.00535331 -2.03666e-08 0 -2.56938e-07 0 1.50854e-08
55 3 0.001 -0.0146328 0 -0.00233028 9.91901e-10 0 1.37863e-08 0 1.50853e-08
56 3 0.001 -0.0139664 0 -0.00238846 6.2826e-09 0 4.55934e-08 0 1.50853e-08
57 3 0.001 -0.0133 0 -0.00244674 -2.4046e-09 0 2.09469e-09 0 1.50854e-08
58 3 0.001 -0.0126336 0 -0.00250512 -9.35863e-09 0 -6.70646e-08 0 1.50854e-08
59 3 0.001 -0.0119672 0 -0.00256358 6.13227e-09 0 6.93038e-08 0 1.50854e-08
60 3 0.001 -0.0113008 0 -0.00262213 -7.83238e-10 0 -5.96275e-08 0 1.50854e-08
62 3 0.001 -0.00996803 0 -0.00273944 6.64753e-09 0 1.2214e-07 0 1.50854e-08
61 3 0.001 -0.0106344 0 -0.00268075 3.69653e-09 0 -4.81208e-09 0 1.50854e-08
63 3 0.001 -0.00930167 0 -0.0027982 -1.5204e-08 0 -1.34544e-07 0 1.50854e-08
64 3 0.001 -0.0086353 0 -0.00285703 5.48127e-09 0 6.08271e-08 0 1.50854e-08
66 3 0.001 -0.00730259 0 -0.00297485 4.64316e-09 0 4.42975e-08 0 1.50854e-08
65 3 0.001 -0.00796894 0 -0.00291591 -3.69534e-09 0 -2.25759e-08 0 1.50854e-08
69 3 0.001 -0.00530355 0 -0.00315196 -1.06707e-09 0 1.62864e-08 0 1.50854e-08
67 3 0.001 -0.00663624 0 -0.00303384 -5.7852e-09 0 -1.13775e-07 0 1.50854e-08
68 3 0.001 -0.00596989 0 -0.00309288 1.57447e-08 0 1.18768e-07 0 1.50854e-08
71 3 0.001 -0.00397088 0 -0.00327025 -3.58505e-09 0 -4.00805e-08 0 1.50854e-08
70 3 0.001 -0.00463722 0 -0.00321108 -1.57949e-08 0 -8.67986e-08 0 1.50854e-08
72 3 0.001 -0.00330455 0 -0.00332945 2.02739e-08 0 1.87226e-07 0 1.50854e-08
73 3 0.001 -0.00263822 0 -0.00338868 -1.63877e-08 0 -1.98922e-07 0 1.50854e-08
74 3 0.001 -0.0019719 0 -0.00344795 4.95396e-09 0 5.22643e-08 0 1.50854e-08
75 3 0.001 -0.00130558 0 -0.00350724 1.12079e-08 0 1.23889e-07 0 1.50854e-08
76 3 0.001 -0.000639257 0 -0.00356657 -1.56434e-08 0 -1.78643e-07 0 1.50854e-08
77 3 0.001 2.70606e-05 0 -0.00362592 9.81362e-09 0 1.35372e-07 0 1.50854e-08
78 3 0.001 0.000693376 0 -0.00368529 -6.54616e-09 0 -2.92993e-08 0 1.50854e-08
79 3 0.001 0.00135969 0 -0.00374469 -1.69726e-09 0 -7.1562e-08 0 1.50854e-08
80 3 0.001 0.002026 0 -0.00380411 1.19215e-08 0 8.67415e-08 0 1.50854e-08
27 3 0.001 -0.0333001 0 -0.000791506 -2.54117e-08 0 -2.36088e-07 0 1.50816e-08
28 3 0.001 -0.032633 0 -0.000840943 1.64236e-08 0 2.28579e-07 0 1.5082e-08
30 3 0.001 -0.0312989 0 -0.000941794 1.39191e-08 0 1.46831e-07 0 1.50829e-08
29 3 0.001 -0.0319659 0 -0.000891054 -3.42734e-09 0 -2.03015e-07 0 1.50825e-08
32 3 0.001 -0.029965 0 -0.001045 -1.14277e-08 0 -9.92557e-08 0 1.50835e-08
31 3 0.001 -0.0306319 0 -0.000993124 -8.83692e-09 0 -5.50402e-08 0 1.50832e-08
35 3 0.001 -0.0279644 0 -0.00120359 1.66594e-09 0 4.9377e-08 0 1.50841e-08
33 3 0.001 -0.0292981 0 -0.0010974 1.79727e-08 0 2.37644e-07 0 1.50837e-08
34 3 0.001 -0.0286312 0 -0.00115027 -1.49823e-08 0 -2.03304e-07 0 1.50839e-08
37 3 0.001 -0.0266308 0 -0.00131147 8.60623e-09 0 2.8988e-08 0 1.50844e-08
36 3 0.001 -0.0272976 0 -0.00125733 2.28517e-09 0 5.71469e-09 0 1.50843e-08
38 3 0.001 -0.0259641 0 -0.00136597 3.1483e-10 0 2.75792e-08 0 1.50846e-08
39 3 0.001 -0.0252974 0 -0.00142081 -1.78982e-08 0 -1.54449e-07 0 1.50847e-08
40 3 0.001 -0.0246307 0 -0.00147597 1.23249e-08 0 1.59104e-07 0 1.50848e-08
41 3 0.001 -0.023964 0 -0.00153143 3.32035e-09 0 5.58763e-10 0 1.50848e-08
44 3 0.001 -0.0219642 0 -0.00169941 -8.1925e-09 0 -1.01922e-07 0 1.5085e-08
42 3 0.001 -0.0232974 0 -0.00158717 -1.13101e-08 0 -1.6012e-07 0 1.50849e-08
43 3 0.001 -0.0226308 0 -0.00164317 1.35615e-08 0 1.95159e-07 0 1.5085e-08
45 3 0.001 -0.0212977 0 -0.00175588 1.23785e-09 0 6.4648e-09 0 1.50851e-08
46 3 0.001 -0.0206311 0 -0.00181257 -1.16477e-08 0 -7.2819e-08 0 1.50851e-08
48 3 0.001 -0.0192981 0 -0.00192652 -6.67578e-09 0 -1.68409e-07 0 1.50852e-08
47 3 0.001 -0.0199646 0 -0.00186945 1.82795e-08 0 1.95154e-07 0 1.50852e-08
49 3 0.001 -0.0186316 0 -0.00198376 1.33348e-09 0 9.98451e-09 0 1.50852e-08
50 3 0.001 -0.0179651 0 -0.00204117 4.59177e-09 0 1.0375e-07 0 1.50853e-08
51 3 0.001 -0.0172986 0 -0.00209873 -8.63987e-09 0 -5.18023e-08 0 1.50853e-08
52 3 0.001 -0.0166321 0 -0.00215643 -5.11245e-09 0 -6.73055e-08 0 1.50853e-08
53 3 0.001 -0.0159657 0 -0.00221426 1.45956e-08 0 1.24246e-07 0 1.50853e-08
54 3 0.001 -0.0152992 0 -0.00227221 -9.0224e-09 0 -1.00719e-07 0 1.50853e-08
1 1 0.001 -0.05 0 0 -0.00339935 0 0.0158286 0 1.14427e-32
3 3 0.001 -0.0493333 0 0 0.0165294 0 -0.0170055 0 1.1876e-08
4 3 0.001 -0.0486638 0 -7.35094e-06 -1.06173e-09 0 2.49824e-08 0 1.93783e-08
5 3 0.001 -0.047995 0 -1.81308e-05 6.08588e-09 0 -3.39893e-08 0 1.50097e-08
6 3 0.001 -0.0473262 0 -3.21209e-05 2.48654e-09 0 -5.08463e-08 0 1.50193e-08
7 3 0.001 -0.0466574 0 -4.91107e-05 -3.16068e-09 0 5.07831e-08 0 1.50276e-08
8 3 0.001 -0.0459888 0 -6.89036e-05 -3.06033e-09 0 9.73107e-08 0 1.50349e-08
9 3 0.001 -0.0453202 0 -9.13156e-05 -8.17678e-09 0 -1.85564e-07 0 1.50413e-08
10 3 0.001 -0.0446517 0 -0.000116175 1.10745e-08 0 1.27725e-07 0 1.50469e-08
11 3 0.001 -0.0439833 0 -0.000143321 3.61654e-10 0 -5.37944e-08 0 1.50518e-08
12 3 0.001 -0.043315 0 -0.000172604 -2.12189e-09 0 7.1011e-09 0 1.50561e-08
13 3 0.001 -0.0426468 0 -0.000203883 4.90942e-09 0 7.76972e-08 0 1.50598e-08
14 3 0.001 -0.0419786 0 -0.000237027 -6.71389e-09 0 -1.29094e-07 0 1.5063e-08
15 3 0.001 -0.0413106 0 -0.000271915 -2.14279e-09 0 4.14824e-08 0 1.50659e-08
16 3 0.001 -0.0406426 0 -0.000308431 3.78579e-09 0 1.01933e-07 0 1.50683e-08
17 3 0.001 -0.0399748 0 -0.000346469 -2.14599e-09 0 -1.23822e-07 0 1.50705e-08
18 3 0.001 -0.039307 0 -0.000385929 8.29448e-09 0 4.67196e-08 0 1.50724e-08
19 3 0.001 -0.0386393 0 -0.000426718 -4.42138e-09 0 5.04481e-09 0 1.5074e-08
20 3 0.001 -0.0379716 0 -0.000468748 -9.82299e-09 0 -6.82433e-08 0 1.50755e-08
21 3 0.001 -0.0373041 0 -0.000511938 9.11975e-09 0 1.02457e-07 0 1.50767e-08
22 3 0.001 -0.0366366 0 -0.000556211 6.87861e-10 0 -2.73512e-08 0 1.50778e-08
23 3 0.001 -0.0359692 0 -0.000601498 7.67543e-10 0 6.52426e-09 0 1.50788e-08
24 3 0.001 -0.0353018 0 -0.000647731 -2.86848e-09 0 -5.72689e-08 0 1.50796e-08
25 3 0.001 -0.0346345 0 -0.000694848 -1.9073e-09 0 -3.33809e-08 0 1.50804e-08
26 3 0.001 -0.0339673 0 -0.000742791 1.20997e-08 0 1.88464e-07 0 1.5081e-08
