ITEM: TIMESTEP
5500000
ITEM: NUMBER OF ATOMS
151
ITEM: BOX BOUNDS ff ff ff
-5.5000000000000000e-02 5.5000000000000000e-02
-6.0000000000000001e-03 6.0000000000000001e-03
-2.5000000000000001e-02 2.5000000000000001e-02
ITEM: ATOMS id type radius x y z fx fy fz c_bendingE c_stretchingE
122 3 0.001 0.0300075 0 -0.00422225 1.4132e-11 0 1.85136e-09 0 3.30257e-09
123 3 0.001 0.0306739 0 -0.00426478 9.39135e-10 0 7.94455e-09 0 3.30257e-09
124 3 0.001 0.0313402 0 -0.00430732 4.8544e-10 0 7.13896e-09 0 3.30257e-09
125 3 0.001 0.0320066 0 -0.00434986 -5.7791e-10 0 -8.29876e-09 0 3.30257e-09
126 3 0.001 0.032673 0 -0.00439241 -1.74353e-09 0 -2.28509e-08 0 3.30257e-09
127 3 0.001 0.0333394 0 -0.00443496 2.90686e-09 0 4.53783e-08 0 3.30257e-09
128 3 0.001 0.0340058 0 -0.00447752 -1.63397e-09 0 -2.98499e-08 0 3.30257e-09
129 3 0.001 0.0346721 0 -0.00452008 -2.54299e-10 0 -3.22479e-09 0 3.30257e-09
130 3 0.001 0.0353385 0 -0.00456265 1.05219e-09 0 1.87279e-08 0 3.30257e-09
131 3 0.001 0.0360049 0 -0.00460523 -8.34729e-10 0 -1.36456e-08 0 3.30257e-09
132 3 0.001 0.0366713 0 -0.00464781 5.67037e-10 0 7.0935e-09 0 3.30257e-09
133 3 0.001 0.0373377 0 -0.00469039 -2.34122e-10 0 -3.35994e-09 0 3.30257e-09
134 3 0.001 0.038004 0 -0.00473297 -9.20725e-11 0 -2.25282e-09 0 3.30257e-09
135 3 0.001 0.0386704 0 -0.00477556 4.32181e-10 0 8.52474e-09 0 3.30257e-09
136 3 0.001 0.0393368 0 -0.00481816 9.28821e-11 0 -3.71027e-09 0 3.30257e-09
137 3 0.001 0.0400032 0 -0.00486075 -7.3344e-10 0 -9.84749e-09 0 3.30257e-09
138 3 0.001 0.0406696 0 -0.00490335 2.50396e-10 0 1.4295e-08 0 3.30257e-09
139 3 0.001 0.0413359 0 -0.00494595 -9.70029e-10 0 -1.67333e-08 0 3.30257e-09
140 3 0.001 0.0420023 0 -0.00498856 1.57349e-09 0 2.12503e-08 0 3.30257e-09
141 3 0.001 0.0426687 0 -0.00503116 -4.12278e-10 0 -1.22581e-08 0 3.30257e-09
142 3 0.001 0.0433351 0 -0.00507377 -1.7456e-10 0 -1.59203e-09 0 3.30257e-09
143 3 0.001 0.0440014 0 -0.00511638 5.68818e-10 0 9.28398e-09 0 3.30257e-09
144 3 0.001 0.0446678 0 -0.00515899 -1.61996e-09 0 -2.35311e-08 0 3.30257e-09
145 3 0.001 0.0453342 0 -0.00520161 2.7452e-09 0 4.3085e-08 0 3.30257e-09
146 3 0.001 0.0460006 0 -0.00524422 -3.00651e-09 0 -4.57404e-08 0 3.30257e-09
147 3 0.001 0.0466669 0 -0.00528684 8.26582e-10 0 1.98399e-08 0 3.30257e-09
148 3 0.001 0.0473333 0 -0.00532945 9.14875e-10 0 7.73138e-09 0 3.30257e-09
149 3 0.001 0.0479997 0 -0.00537207 2.8804e-10 0 -1.82355e-09 0 3.30257e-09
150 3 0.001 0.0486661 0 -0.00541469 -1.12281e-09 0 -1.58171e-08 0 5.62128e-09
2 2 0.001 0.05 0 -0.0055 -0.00615549 0 0.000394457 0 3.96999e-09
151 3 0.001 0.049333 0 -0.00545734 4.41593e-10 0 1.27214e-08 0 7.93998e-09
83 3 0.001 0.00401787 0 -0.00257506 -3.40059e-09 0 -5.05092e-08 0 3.30256e-09
84 3 0.001 0.0046843 0 -0.00261679 2.52718e-09 0 3.87808e-08 0 3.30256e-09
85 3 0.001 0.00535073 0 -0.00265857 -1.12844e-10 0 -6.43306e-09 0 3.30256e-09
86 3 0.001 0.00601716 0 -0.00270038 -2.90983e-10 0 -8.72385e-09 0 3.30256e-09
87 3 0.001 0.00668358 0 -0.00274224 -3.4692e-11 0 6.15613e-09 0 3.30256e-09
88 3 0.001 0.00735 0 -0.00278414 -6.56451e-10 0 -5.96414e-09 0 3.30256e-09
89 3 0.001 0.00801642 0 -0.00282607 6.44571e-10 0 9.03188e-09 0 3.30256e-09
90 3 0.001 0.00868284 0 -0.00286803 -8.68861e-11 0 -6.2138e-09 0 3.30256e-09
91 3 0.001 0.00934926 0 -0.00291003 4.41805e-10 0 4.20328e-09 0 3.30256e-09
92 3 0.001 0.0100157 0 -0.00295206 -5.01814e-10 0 -4.46583e-09 0 3.30256e-09
93 3 0.001 0.0106821 0 -0.00299411 2.86404e-10 0 8.17013e-10 0 3.30256e-09
94 3 0.001 0.0113485 0 -0.0030362 -7.58972e-10 0 -9.57048e-09 0 3.30256e-09
95 3 0.001 0.0120149 0 -0.00307832 1.56077e-09 0 2.779e-08 0 3.30256e-09
96 3 0.001 0.0126813 0 -0.00312046 -1.61533e-09 0 -2.11136e-08 0 3.30256e-09
97 3 0.001 0.0133477 0 -0.00316262 3.13082e-10 0 5.78896e-10 0 3.30256e-09
98 3 0.001 0.0140141 0 -0.00320481 2.15939e-10 0 -2.55297e-09 0 3.30257e-09
99 3 0.001 0.0146805 0 -0.00324702 8.7708e-10 0 1.50856e-08 0 3.30257e-09
100 3 0.001 0.0153469 0 -0.00328926 -9.94108e-10 0 -1.46982e-08 0 3.30257e-09
101 3 0.001 0.0160133 0 -0.00333151 1.92261e-10 0 8.94172e-09 0 3.30257e-09
102 3 0.001 0.0166797 0 -0.00337378 1.44447e-10 0 -2.23809e-10 0 3.30257e-09
103 3 0.001 0.0173461 0 -0.00341608 -1.17764e-09 0 -2.0997e-08 0 3.30257e-09
104 3 0.001 0.0180125 0 -0.00345839 1.76793e-09 0 3.06637e-08 0 3.30257e-09
105 3 0.001 0.0186789 0 -0.00350071 -5.37258e-10 0 -6.97416e-09 0 3.30257e-09
106 3 0.001 0.0193453 0 -0.00354306 -7.27274e-10 0 -1.48765e-08 0 3.30257e-09
107 3 0.001 0.0200117 0 -0.00358542 7.08031e-10 0 9.17931e-09 0 3.30257e-09
108 3 0.001 0.0206781 0 -0.00362779 4.94868e-10 0 1.00705e-08 0 3.30257e-09
109 3 0.001 0.0213445 0 -0.00367018 -1.89451e-09 0 -2.79328e-08 0 3.30257e-09
110 3 0.001 0.0220109 0 -0.00371258 1.67695e-09 0 2.51743e-08 0 3.30257e-09
111 3 0.001 0.0226772 0 -0.003755 4.71525e-10 0 -1.02953e-09 0 3.30257e-09
112 3 0.001 0.0233436 0 -0.00379742 -1.18949e-09 0 -1.26473e-08 0 3.30257e-09
113 3 0.001 0.02401 0 -0.00383986 -5.19122e-10 0 7.00007e-10 0 3.30257e-09
114 3 0.001 0.0246764 0 -0.00388231 1.48605e-09 0 2.06042e-08 0 3.30257e-09
115 3 0.001 0.0253428 0 -0.00392477 -1.94675e-09 0 -3.37125e-08 0 3.30257e-09
116 3 0.001 0.0260092 0 -0.00396724 1.96663e-09 0 2.59209e-08 0 3.30257e-09
117 3 0.001 0.0266756 0 -0.00400972 -2.13711e-10 0 -1.56061e-09 0 3.30257e-09
118 3 0.001 0.027342 0 -0.00405221 -4.42484e-10 0 -8.7542e-09 0 3.30257e-09
119 3 0.001 0.0280083 0 -0.00409471 -6.80959e-10 0 -7.99977e-09 0 3.30257e-09
120 3 0.001 0.0286747 0 -0.00413722 1.67624e-09 0 2.76487e-08 0 3.30257e-09
121 3 0.001 0.0293411 0 -0.00417973 -1.73543e-09 0 -2.44487e-08 0 3.30257e-09
40 3 0.001 -0.0246443 0 -0.00087338 6.08037e-10 0 1.37316e-08 0 3.30218e-09
41 3 0.001 -0.0239775 0 -0.000909047 -1.37496e-10 0 -2.10792e-09 0 3.30221e-09
44 3 0.001 -0.0219772 0 -0.0010179 -5.41068e-10 0 -3.64221e-09 0 3.3023e-09
42 3 0.001 -0.0233107 0 -0.000945032 -1.67014e-09 0 -3.66161e-08 0 3.30224e-09
43 3 0.001 -0.022644 0 -0.00098132 2.37281e-09 0 4.29051e-08 0 3.30227e-09
45 3 0.001 -0.0213105 0 -0.00105475 -1.19861e-09 0 -2.06443e-08 0 3.30232e-09
46 3 0.001 -0.0206438 0 -0.00109187 3.19687e-10 0 1.00869e-08 0 3.30234e-09
48 3 0.001 -0.0193104 0 -0.00116685 2.10234e-10 0 -5.50617e-10 0 3.30238e-09
47 3 0.001 -0.0199771 0 -0.00112924 4.21382e-10 0 -3.78283e-10 0 3.30236e-09
49 3 0.001 -0.0186438 0 -0.0012047 5.07174e-11 0 1.44315e-09 0 3.3024e-09
50 3 0.001 -0.0179771 0 -0.00124276 3.81541e-10 0 6.59276e-09 0 3.30241e-09
51 3 0.001 -0.0173105 0 -0.00128103 -7.8827e-10 0 -1.20975e-08 0 3.30243e-09
52 3 0.001 -0.0166439 0 -0.0013195 -2.84307e-10 0 -1.27249e-09 0 3.30244e-09
53 3 0.001 -0.0159772 0 -0.00135816 4.37233e-11 0 7.3016e-09 0 3.30245e-09
54 3 0.001 -0.0153106 0 -0.001397 1.10128e-09 0 1.33571e-08 0 3.30246e-09
55 3 0.001 -0.014644 0 -0.00143602 -1.5017e-09 0 -3.02738e-08 0 3.30247e-09
56 3 0.001 -0.0139775 0 -0.0014752 1.34288e-09 0 1.80867e-08 0 3.30248e-09
57 3 0.001 -0.0133109 0 -0.00151455 -3.45846e-10 0 -1.39221e-09 0 3.30248e-09
58 3 0.001 -0.0126443 0 -0.00155404 -3.35461e-10 0 8.46797e-10 0 3.30249e-09
59 3 0.001 -0.0119777 0 -0.00159368 1.89206e-10 0 -3.7667e-10 0 3.3025e-09
60 3 0.001 -0.0113112 0 -0.00163346 6.34092e-12 0 -2.68138e-09 0 3.3025e-09
61 3 0.001 -0.0106447 0 -0.00167337 -2.73091e-10 0 -2.6635e-09 0 3.30251e-09
62 3 0.001 -0.00997812 0 -0.0017134 2.41795e-10 0 6.06974e-09 0 3.30251e-09
63 3 0.001 -0.00931159 0 -0.00175356 2.87137e-10 0 5.40527e-09 0 3.30252e-09
64 3 0.001 -0.00864506 0 -0.00179383 -1.42273e-09 0 -2.14551e-08 0 3.30252e-09
65 3 0.001 -0.00797855 0 -0.00183421 1.47888e-09 0 2.08279e-08 0 3.30253e-09
66 3 0.001 -0.00731204 0 -0.00187469 1.73062e-10 0 2.78333e-09 0 3.30253e-09
69 3 0.001 -0.00531255 0 -0.00199672 -1.16709e-09 0 -1.05829e-08 0 3.30254e-09
67 3 0.001 -0.00664554 0 -0.00191527 -1.4303e-09 0 -2.58584e-08 0 3.30253e-09
68 3 0.001 -0.00597904 0 -0.00195595 1.91161e-09 0 2.37304e-08 0 3.30254e-09
70 3 0.001 -0.00464606 0 -0.00203758 -1.04419e-10 0 5.30813e-09 0 3.30254e-09
71 3 0.001 -0.00397958 0 -0.00207852 -3.47135e-10 0 -4.50451e-09 0 3.30254e-09
72 3 0.001 -0.0033131 0 -0.00211954 7.41852e-10 0 3.61894e-09 0 3.30254e-09
73 3 0.001 -0.00264663 0 -0.00216063 1.78691e-10 0 -3.18347e-10 0 3.30255e-09
74 3 0.001 -0.00198017 0 -0.0022018 1.38533e-11 0 3.90418e-10 0 3.30255e-09
75 3 0.001 -0.0013137 0 -0.00224304 -2.59045e-10 0 -4.03574e-09 0 3.30255e-09
76 3 0.001 -0.000647243 0 -0.00228434 -4.85871e-10 0 -3.44304e-09 0 3.30255e-09
77 3 0.001 1.92119e-05 0 -0.0023257 1.324e-09 0 2.02392e-08 0 3.30255e-09
78 3 0.001 0.000685663 0 -0.00236713 -2.29775e-09 0 -3.02796e-08 0 3.30255e-09
79 3 0.001 0.00135211 0 -0.00240861 1.66365e-09 0 2.48359e-08 0 3.30255e-09
80 3 0.001 0.00201856 0 -0.00245015 -1.41191e-10 0 -1.02333e-08 0 3.30256e-09
81 3 0.001 0.002685 0 -0.00249174 -2.65964e-10 0 -4.70772e-09 0 3.30256e-09
82 3 0.001 0.00335143 0 -0.00253337 1.49629e-09 0 2.84875e-08 0 3.30256e-09
1 1 0.001 -0.05 0 0 -0.00340858 0 0.00797685 0 1.14427e-32
3 3 0.001 -0.0493333 0 0 0.00956407 0 -0.00837115 0 3.97185e-09
4 3 0.001 -0.048665 0 -3.6978e-06 1.85495e-10 0 -2.27698e-08 0 5.618e-09
5 3 0.001 -0.0479973 0 -9.15801e-06 2.87951e-10 0 1.81629e-08 0 3.29275e-09
6 3 0.001 -0.0473296 0 -1.6304e-05 1.64684e-10 0 2.06789e-09 0 3.29361e-09
7 3 0.001 -0.0466619 0 -2.50594e-05 -5.06764e-10 0 -1.3486e-08 0 3.2944e-09
8 3 0.001 -0.0459943 0 -3.53515e-05 3.70904e-10 0 1.39367e-08 0 3.29513e-09
9 3 0.001 -0.0453266 0 -4.71106e-05 -2.87445e-10 0 -1.23411e-08 0 3.29578e-09
10 3 0.001 -0.044659 0 -6.02703e-05 -1.08498e-10 0 3.84153e-09 0 3.29638e-09
11 3 0.001 -0.0439915 0 -7.47672e-05 1.67333e-10 0 6.00247e-09 0 3.29693e-09
12 3 0.001 -0.0433239 0 -9.05407e-05 -2.32827e-11 0 -8.17444e-09 0 3.29743e-09
13 3 0.001 -0.0426564 0 -0.000107533 4.98764e-10 0 7.90123e-09 0 3.29788e-09
14 3 0.001 -0.0419889 0 -0.000125689 -4.40673e-10 0 -6.49236e-09 0 3.29829e-09
15 3 0.001 -0.0413214 0 -0.000144956 -3.84322e-10 0 1.43129e-09 0 3.29867e-09
16 3 0.001 -0.040654 0 -0.000165283 2.49411e-10 0 4.47297e-10 0 3.29902e-09
17 3 0.001 -0.0399866 0 -0.000186623 6.89544e-10 0 3.52154e-09 0 3.29933e-09
18 3 0.001 -0.0393192 0 -0.00020893 -4.25603e-10 0 -4.42778e-09 0 3.29962e-09
19 3 0.001 -0.0386519 0 -0.00023216 -3.2153e-10 0 3.54133e-09 0 3.29988e-09
20 3 0.001 -0.0379846 0 -0.000256271 -2.66108e-10 0 -3.63394e-09 0 3.30011e-09
21 3 0.001 -0.0373173 0 -0.000281223 1.62572e-10 0 7.9772e-10 0 3.30033e-09
22 3 0.001 -0.0366501 0 -0.000306978 6.45167e-10 0 2.00061e-09 0 3.30053e-09
23 3 0.001 -0.0359829 0 -0.0003335 -4.1759e-10 0 -5.20104e-09 0 3.30071e-09
24 3 0.001 -0.0353157 0 -0.000360753 9.83624e-11 0 3.96707e-09 0 3.30087e-09
25 3 0.001 -0.0346486 0 -0.000388706 4.61803e-10 0 8.58594e-09 0 3.30102e-09
26 3 0.001 -0.0339814 0 -0.000417326 -6.67073e-10 0 -1.77285e-08 0 3.30116e-09
27 3 0.001 -0.0333143 0 -0.000446583 3.75925e-11 0 1.04519e-08 0 3.30128e-09
28 3 0.001 -0.0326473 0 -0.000476448 -3.12449e-10 0 3.40953e-10 0 3.3014e-09
29 3 0.001 -0.0319802 0 -0.000506893 6.06547e-10 0 1.96686e-09 0 3.3015e-09
30 3 0.001 -0.0313132 0 -0.000537893 -9.577e-11 0 -4.81806e-09 0 3.30159e-09
31 3 0.001 -0.0306462 0 -0.000569422 -1.37872e-10 0 -8.31176e-09 0 3.30168e-09
32 3 0.001 -0.0299792 0 -0.000601457 5.47637e-10 0 1.74662e-08 0 3.30176e-09
33 3 0.001 -0.0293123 0 -0.000633973 -4.29898e-10 0 -5.91167e-09 0 3.30183e-09
34 3 0.001 -0.0286454 0 -0.000666951 -2.94906e-10 0 -1.06314e-08 0 3.30189e-09
35 3 0.001 -0.0279785 0 -0.000700367 6.32584e-10 0 1.57766e-08 0 3.30195e-09
36 3 0.001 -0.0273116 0 -0.000734204 -5.59715e-10 0 -7.42917e-09 0 3.30201e-09
37 3 0.001 -0.0266447 0 -0.000768441 -6.22347e-11 0 -2.07641e-09 0 3.30206e-09
38 3 0.001 -0.0259779 0 -0.000803061 2.15308e-10 0 1.36555e-10 0 3.3021e-09
39 3 0.001 -0.0253111 0 -0.000838046 -1.55294e-10 0 -1.51642e-09 0 3.30214e-09
