ITEM: TIMESTEP
7500000
ITEM: NUMBER OF ATOMS
151
ITEM: BOX BOUNDS ff ff ff
-5.5000000000000000e-02 5.5000000000000000e-02
-6.0000000000000001e-03 6.0000000000000001e-03
-2.5000000000000001e-02 2.5000000000000001e-02
ITEM: ATOMS id type radius x y z fx fy fz c_bendingE c_stretchingE
149 3 0.001 0.0479999 0 -0.0073326 7.14861e-09 0 6.26841e-08 0 1.11511e-08
150 3 0.001 0.0486662 0 -0.00738837 -5.36911e-09 0 -3.73079e-08 0 1.4975e-08
2 2 0.001 0.05 0 -0.0075 -0.0112945 0 0.000945503 0 9.39947e-09
151 3 0.001 0.0493331 0 -0.00744418 1.74419e-09 0 7.70288e-09 0 1.87989e-08
120 3 0.001 0.0286771 0 -0.00571558 6.97297e-09 0 5.60983e-08 0 1.11511e-08
121 3 0.001 0.0293434 0 -0.00577132 -5.03154e-09 0 -3.86475e-08 0 1.11511e-08
122 3 0.001 0.0300097 0 -0.00582707 -3.73514e-10 0 8.12346e-09 0 1.11511e-08
123 3 0.001 0.030676 0 -0.00588281 9.48101e-10 0 2.88227e-08 0 1.11511e-08
124 3 0.001 0.0313423 0 -0.00593856 -4.4071e-09 0 -9.04981e-08 0 1.11511e-08
125 3 0.001 0.0320086 0 -0.00599431 1.38473e-08 0 1.57592e-07 0 1.11511e-08
126 3 0.001 0.0326749 0 -0.00605006 -1.83299e-08 0 -1.70918e-07 0 1.11511e-08
127 3 0.001 0.0333412 0 -0.00610582 1.36796e-08 0 1.28758e-07 0 1.11511e-08
128 3 0.001 0.0340075 0 -0.00616157 -4.82977e-09 0 -8.63129e-08 0 1.11511e-08
129 3 0.001 0.0346738 0 -0.00621733 -6.4625e-10 0 3.53083e-08 0 1.11511e-08
130 3 0.001 0.0353401 0 -0.00627308 2.32435e-09 0 2.94451e-08 0 1.11511e-08
131 3 0.001 0.0360064 0 -0.00632884 -5.91495e-09 0 -7.10874e-08 0 1.11511e-08
132 3 0.001 0.0366727 0 -0.0063846 9.27873e-09 0 9.98769e-08 0 1.11511e-08
133 3 0.001 0.037339 0 -0.00644036 -7.67501e-09 0 -9.9949e-08 0 1.11511e-08
134 3 0.001 0.0380053 0 -0.00649612 2.61553e-09 0 5.97871e-08 0 1.11511e-08
135 3 0.001 0.0386716 0 -0.00655188 2.832e-11 0 -4.51656e-08 0 1.11511e-08
136 3 0.001 0.039338 0 -0.00660764 4.41604e-09 0 4.11742e-08 0 1.11511e-08
137 3 0.001 0.0400043 0 -0.00666341 -2.42892e-09 0 2.54164e-08 0 1.11511e-08
138 3 0.001 0.0406706 0 -0.00671917 -7.65934e-09 0 -8.86591e-08 0 1.11511e-08
139 3 0.001 0.0413369 0 -0.00677493 5.35073e-09 0 5.89876e-08 0 1.11511e-08
140 3 0.001 0.0420032 0 -0.0068307 -1.24138e-10 0 -1.33986e-08 0 1.11511e-08
141 3 0.001 0.0426695 0 -0.00688646 3.82498e-09 0 4.0203e-08 0 1.11511e-08
142 3 0.001 0.0433358 0 -0.00694223 -7.0037e-09 0 -6.3774e-08 0 1.11511e-08
143 3 0.001 0.0440021 0 -0.006998 2.55331e-09 0 -5.28783e-09 0 1.11511e-08
144 3 0.001 0.0446684 0 -0.00705376 8.6855e-09 0 1.01362e-07 0 1.11511e-08
145 3 0.001 0.0453347 0 -0.00710953 -1.22061e-08 0 -1.19464e-07 0 1.11511e-08
148 3 0.001 0.0473336 0 -0.00727683 -4.53032e-09 0 -6.40983e-08 0 1.11511e-08
146 3 0.001 0.046001 0 -0.0071653 5.11215e-09 0 5.67308e-08 0 1.11511e-08
147 3 0.001 0.0466673 0 -0.00722106 6.16742e-10 0 2.31138e-08 0 1.11511e-08
91 3 0.001 0.00935401 0 -0.00410084 -4.03242e-09 0 -1.71688e-08 0 1.1151e-08
92 3 0.001 0.0100203 0 -0.00415642 2.96401e-09 0 3.56667e-08 0 1.1151e-08
93 3 0.001 0.0106867 0 -0.00421201 -3.60811e-09 0 -8.18561e-08 0 1.11511e-08
94 3 0.001 0.011353 0 -0.00426761 4.90183e-09 0 8.30806e-08 0 1.11511e-08
95 3 0.001 0.0120193 0 -0.00432322 -1.68555e-09 0 -1.13957e-08 0 1.1151e-08
96 3 0.001 0.0126856 0 -0.00437884 -3.63431e-09 0 -3.73554e-08 0 1.1151e-08
97 3 0.001 0.0133519 0 -0.00443447 2.66463e-11 0 -7.44415e-10 0 1.1151e-08
98 3 0.001 0.0140182 0 -0.00449011 6.9078e-09 0 4.56362e-08 0 1.11511e-08
99 3 0.001 0.0146846 0 -0.00454576 -3.04196e-09 0 -1.24099e-08 0 1.11511e-08
100 3 0.001 0.0153509 0 -0.00460141 -4.06011e-09 0 -2.87158e-08 0 1.1151e-08
101 3 0.001 0.0160172 0 -0.00465707 2.4976e-09 0 -3.47786e-09 0 1.11511e-08
102 3 0.001 0.0166835 0 -0.00471274 -2.20864e-10 0 2.12723e-08 0 1.11511e-08
104 3 0.001 0.0180161 0 -0.0048241 -8.58464e-09 0 -1.07644e-07 0 1.11511e-08
105 3 0.001 0.0186824 0 -0.00487979 9.50404e-09 0 1.20505e-07 0 1.11511e-08
103 3 0.001 0.0173498 0 -0.00476842 3.63709e-09 0 4.11033e-08 0 1.11511e-08
106 3 0.001 0.0193487 0 -0.00493548 -5.79459e-09 0 -9.27888e-08 0 1.11511e-08
107 3 0.001 0.0200151 0 -0.00499117 2.64848e-09 0 5.49515e-08 0 1.11511e-08
108 3 0.001 0.0206814 0 -0.00504688 -1.71712e-09 0 -1.36216e-08 0 1.11511e-08
109 3 0.001 0.0213477 0 -0.00510258 1.9352e-10 0 -3.14377e-08 0 1.11511e-08
112 3 0.001 0.0233466 0 -0.00526973 -5.16305e-09 0 -7.70156e-08 0 1.11511e-08
110 3 0.001 0.022014 0 -0.00515829 2.37629e-09 0 4.89316e-08 0 1.11511e-08
111 3 0.001 0.0226803 0 -0.00521401 -7.53608e-10 0 -7.95096e-09 0 1.11511e-08
113 3 0.001 0.0240129 0 -0.00532545 9.12146e-09 0 1.30499e-07 0 1.11511e-08
114 3 0.001 0.0246792 0 -0.00538117 -6.65211e-09 0 -7.34466e-08 0 1.11511e-08
115 3 0.001 0.0253455 0 -0.0054369 -4.98545e-09 0 -5.13904e-08 0 1.11511e-08
116 3 0.001 0.0260118 0 -0.00549263 1.16583e-08 0 1.0958e-07 0 1.11511e-08
117 3 0.001 0.0266781 0 -0.00554837 -5.44379e-09 0 -8.15376e-08 0 1.11511e-08
118 3 0.001 0.0273444 0 -0.0056041 7.8228e-10 0 5.15029e-08 0 1.11511e-08
119 3 0.001 0.0280108 0 -0.00565984 -2.94626e-09 0 -5.13235e-08 0 1.11511e-08
62 3 0.001 -0.0099702 0 -0.00250013 7.7773e-09 0 9.40934e-08 0 1.1151e-08
63 3 0.001 -0.00930379 0 -0.00255469 -9.83896e-09 0 -1.36198e-07 0 1.1151e-08
64 3 0.001 -0.00863739 0 -0.00260932 1.06547e-08 0 1.31515e-07 0 1.1151e-08
66 3 0.001 -0.00730461 0 -0.00271879 1.02106e-09 0 -2.4135e-08 0 1.1151e-08
65 3 0.001 -0.007971 0 -0.00266403 -6.89533e-09 0 -6.84176e-08 0 1.1151e-08
69 3 0.001 -0.00530548 0 -0.00288345 1.70864e-09 0 -3.47065e-09 0 1.1151e-08
67 3 0.001 -0.00663823 0 -0.00277362 4.34777e-09 0 6.84879e-08 0 1.1151e-08
68 3 0.001 -0.00597185 0 -0.00282851 -5.15818e-09 0 -3.89039e-08 0 1.1151e-08
71 3 0.001 -0.00397275 0 -0.00299348 -5.88253e-09 0 -7.35681e-08 0 1.1151e-08
70 3 0.001 -0.00463911 0 -0.00293844 1.34594e-09 0 3.34532e-08 0 1.1151e-08
72 3 0.001 -0.00330638 0 -0.00304857 1.2076e-08 0 1.32641e-07 0 1.1151e-08
73 3 0.001 -0.00264003 0 -0.00310369 -1.12417e-08 0 -1.33909e-07 0 1.1151e-08
74 3 0.001 -0.00197367 0 -0.00315886 4.2122e-09 0 1.83682e-08 0 1.1151e-08
75 3 0.001 -0.00130732 0 -0.00321406 5.52338e-09 0 1.00149e-07 0 1.1151e-08
76 3 0.001 -0.00064097 0 -0.0032693 -1.25085e-08 0 -1.27803e-07 0 1.1151e-08
77 3 0.001 2.53758e-05 0 -0.00332456 1.12026e-08 0 1.02362e-07 0 1.1151e-08
78 3 0.001 0.000691719 0 -0.00337986 -5.32327e-09 0 -4.0235e-08 0 1.1151e-08
79 3 0.001 0.00135806 0 -0.00343519 -5.53389e-09 0 -5.01573e-08 0 1.1151e-08
80 3 0.001 0.0020244 0 -0.00349055 1.13411e-08 0 1.07938e-07 0 1.1151e-08
81 3 0.001 0.00269074 0 -0.00354593 -6.08855e-09 0 -8.52384e-08 0 1.1151e-08
82 3 0.001 0.00335707 0 -0.00360134 4.9153e-09 0 4.12259e-08 0 1.1151e-08
83 3 0.001 0.0040234 0 -0.00365676 -8.20713e-09 0 -6.26668e-08 0 1.1151e-08
84 3 0.001 0.00468974 0 -0.00371221 5.91564e-09 0 8.25364e-08 0 1.1151e-08
85 3 0.001 0.00535607 0 -0.00376768 9.16409e-10 0 -2.2711e-08 0 1.1151e-08
86 3 0.001 0.00602239 0 -0.00382317 -6.33183e-09 0 -5.49788e-08 0 1.1151e-08
87 3 0.001 0.00668872 0 -0.00387867 5.50635e-09 0 7.23237e-08 0 1.1151e-08
88 3 0.001 0.00735505 0 -0.00393419 -1.02899e-09 0 -1.70365e-08 0 1.1151e-08
89 3 0.001 0.00802137 0 -0.00398973 -2.80943e-09 0 -3.83387e-08 0 1.1151e-08
90 3 0.001 0.00868769 0 -0.00404528 4.79978e-09 0 3.53063e-08 0 1.1151e-08
30 3 0.001 -0.0313022 0 -0.000844046 7.83237e-09 0 1.08144e-07 0 1.11489e-08
32 3 0.001 -0.0299682 0 -0.000938055 3.04694e-09 0 2.89104e-08 0 1.11493e-08
31 3 0.001 -0.0306352 0 -0.000890775 -4.22424e-09 0 -7.72065e-08 0 1.11491e-08
35 3 0.001 -0.0279676 0 -0.00108287 -3.54265e-09 0 -5.26887e-08 0 1.11499e-08
33 3 0.001 -0.0293013 0 -0.000985852 -5.52623e-09 0 -3.78609e-08 0 1.11495e-08
34 3 0.001 -0.0286344 0 -0.00103413 6.93622e-09 0 6.33661e-08 0 1.11497e-08
37 3 0.001 -0.0266339 0 -0.00118161 4.75974e-10 0 7.60095e-09 0 1.11501e-08
36 3 0.001 -0.0273007 0 -0.00113204 4.40043e-10 0 3.2373e-08 0 1.115e-08
38 3 0.001 -0.0259672 0 -0.00123156 -6.17101e-09 0 -7.27305e-08 0 1.11502e-08
39 3 0.001 -0.0253004 0 -0.00128186 7.99534e-09 0 8.62342e-08 0 1.11503e-08
40 3 0.001 -0.0246337 0 -0.00133249 -2.70861e-09 0 -4.49445e-08 0 1.11504e-08
41 3 0.001 -0.023967 0 -0.00138344 1.26742e-09 0 3.87924e-08 0 1.11505e-08
44 3 0.001 -0.0219671 0 -0.00153797 -8.24074e-10 0 1.57328e-08 0 1.11507e-08
42 3 0.001 -0.0233004 0 -0.00143468 -1.53839e-11 0 -2.52765e-08 0 1.11506e-08
43 3 0.001 -0.0226337 0 -0.0014862 -2.60588e-09 0 -3.33264e-08 0 1.11506e-08
45 3 0.001 -0.0213005 0 -0.00158999 4.64754e-09 0 7.05292e-08 0 1.11507e-08
46 3 0.001 -0.0206339 0 -0.00164224 -5.49949e-09 0 -5.97647e-08 0 1.11507e-08
48 3 0.001 -0.0193008 0 -0.00174737 1.04727e-08 0 1.26184e-07 0 1.11508e-08
47 3 0.001 -0.0199673 0 -0.0016947 -9.53625e-10 0 -5.96031e-08 0 1.11508e-08
49 3 0.001 -0.0186342 0 -0.00180022 -7.81884e-09 0 -5.97539e-08 0 1.11508e-08
50 3 0.001 -0.0179677 0 -0.00185325 -2.00681e-09 0 -6.18416e-08 0 1.11509e-08
51 3 0.001 -0.0173012 0 -0.00190645 1.10894e-08 0 1.36422e-07 0 1.11509e-08
52 3 0.001 -0.0166347 0 -0.0019598 -1.05071e-08 0 -9.14849e-08 0 1.11509e-08
53 3 0.001 -0.0159682 0 -0.0020133 -3.97215e-09 0 -5.06158e-08 0 1.11509e-08
54 3 0.001 -0.0153017 0 -0.00206694 1.00798e-08 0 1.30147e-07 0 1.11509e-08
55 3 0.001 -0.0146352 0 -0.00212071 -7.12641e-10 0 -4.97334e-08 0 1.11509e-08
56 3 0.001 -0.0139688 0 -0.0021746 -7.86893e-09 0 -9.85097e-08 0 1.1151e-08
57 3 0.001 -0.0133023 0 -0.00222861 1.10853e-08 0 1.7631e-07 0 1.1151e-08
58 3 0.001 -0.0126359 0 -0.00228272 -1.00864e-08 0 -1.62812e-07 0 1.1151e-08
59 3 0.001 -0.0119695 0 -0.00233694 9.92087e-09 0 1.06849e-07 0 1.1151e-08
60 3 0.001 -0.011303 0 -0.00239125 -6.36569e-09 0 -3.12919e-08 0 1.1151e-08
61 3 0.001 -0.0106366 0 -0.00244565 -3.31689e-09 0 -3.77175e-08 0 1.1151e-08
1 1 0.001 -0.05 0 0 -0.00340178 0 0.0138012 0 1.14427e-32
3 3 0.001 -0.0493333 0 0 0.0146963 0 -0.0147466 0 9.38508e-09
4 3 0.001 -0.0486641 0 -6.40635e-06 3.43096e-09 0 7.18048e-08 0 1.49338e-08
5 3 0.001 -0.0479956 0 -1.58159e-05 1.89468e-09 0 -4.87125e-08 0 1.11005e-08
6 3 0.001 -0.0473271 0 -2.8051e-05 -3.11245e-09 0 4.90931e-08 0 1.11065e-08
7 3 0.001 -0.0466586 0 -4.29395e-05 -1.35829e-09 0 -6.00358e-08 0 1.11117e-08
8 3 0.001 -0.0459902 0 -6.03199e-05 3.73648e-09 0 -7.64217e-10 0 1.11164e-08
9 3 0.001 -0.0453219 0 -8.00401e-05 -5.84831e-10 0 4.77118e-08 0 1.11205e-08
10 3 0.001 -0.0446536 0 -0.000101958 -2.5086e-09 0 -2.48881e-08 0 1.11241e-08
11 3 0.001 -0.0439854 0 -0.000125938 1.50229e-09 0 2.67454e-08 0 1.11272e-08
12 3 0.001 -0.0433172 0 -0.000151857 -2.51036e-09 0 -8.23043e-08 0 1.11301e-08
13 3 0.001 -0.0426492 0 -0.000179595 6.98564e-09 0 1.35821e-07 0 1.11325e-08
14 3 0.001 -0.0419812 0 -0.000209041 -1.06711e-08 0 -1.56447e-07 0 1.11347e-08
15 3 0.001 -0.0413133 0 -0.000240091 7.42517e-09 0 1.26315e-07 0 1.11366e-08
16 3 0.001 -0.0406455 0 -0.000272648 1.20735e-09 0 -2.95425e-08 0 1.11383e-08
17 3 0.001 -0.0399777 0 -0.00030662 -5.39998e-09 0 -5.57809e-08 0 1.11398e-08
18 3 0.001 -0.03931 0 -0.00034192 3.5435e-09 0 4.43301e-08 0 1.11412e-08
19 3 0.001 -0.0386423 0 -0.000378467 -1.11046e-09 0 -2.70025e-08 0 1.11423e-08
20 3 0.001 -0.0379748 0 -0.000416186 7.62819e-10 0 3.79886e-08 0 1.11434e-08
21 3 0.001 -0.0373073 0 -0.000455005 1.03339e-09 0 4.11106e-09 0 1.11443e-08
22 3 0.001 -0.0366398 0 -0.000494856 -3.23907e-09 0 -3.25716e-08 0 1.11451e-08
23 3 0.001 -0.0359724 0 -0.000535678 2.96265e-10 0 -1.9781e-08 0 1.11458e-08
24 3 0.001 -0.0353051 0 -0.00057741 5.53677e-09 0 7.41381e-08 0 1.11464e-08
25 3 0.001 -0.0346378 0 -0.000619997 -5.08085e-09 0 -4.34945e-08 0 1.11469e-08
26 3 0.001 -0.0339706 0 -0.000663388 2.09693e-10 0 -3.03596e-08 0 1.11474e-08
27 3 0.001 -0.0333034 0 -0.000707533 -2.35682e-10 0 1.27361e-08 0 1.11479e-08
28 3 0.001 -0.0326363 0 -0.000752385 1.82259e-09 0 7.05791e-08 0 1.11482e-08
29 3 0.001 -0.0319692 0 -0.000797903 -5.33766e-09 0 -1.06134e-07 0 1.11486e-08
