ITEM: TIMESTEP
30000
ITEM: NUMBER OF ATOMS
151
ITEM: BOX BOUNDS ff ff ff
-5.2499999999999998e-02 5.2499999999999998e-02
-6.0000000000000001e-03 6.0000000000000001e-03
-1.4999999999999999e-02 1.4999999999999999e-02
ITEM: ATOMS id type radius x y z fx fy fz c_bendingE c_stretchingE
1 1 0.001 -0.0475 0 0 -0.00413902 0 5.05604e-05 0 1.60362e-34
3 3 0.001 -0.0468667 0 0 0.00387646 0 -8.34224e-05 0 6.196e-10
4 3 0.001 -0.0462327 0 -2.00628e-08 -0.000262086 0 3.20331e-05 0 6.24026e-10
5 3 0.001 -0.0455994 0 -4.3607e-08 0.000235564 0 1.95251e-05 0 7.87277e-12
6 3 0.001 -0.0449661 0 -7.0487e-08 0.000299356 0 -1.22748e-05 0 3.45081e-12
7 3 0.001 -0.0443328 0 -1.04412e-07 -0.00018738 0 -1.21109e-05 0 1.29854e-12
8 3 0.001 -0.0436995 0 -1.46653e-07 0.000163062 0 -2.27025e-06 0 1.30245e-12
9 3 0.001 -0.0430662 0 -1.9608e-07 0.000477301 0 1.68377e-06 0 8.85318e-12
10 3 0.001 -0.0424327 0 -2.51116e-07 -3.66016e-05 0 9.93158e-06 0 1.63473e-11
11 3 0.001 -0.0417993 0 -3.10517e-07 -8.81171e-05 0 1.39271e-05 0 1.22253e-11
12 3 0.001 -0.041166 0 -3.75011e-07 -0.000355833 0 1.24991e-05 0 4.73545e-12
13 3 0.001 -0.0405326 0 -4.48089e-07 -0.000193024 0 -8.68949e-06 0 1.83789e-12
14 3 0.001 -0.0398993 0 -5.3572e-07 0.000120216 0 -1.04304e-05 0 2.16077e-12
15 3 0.001 -0.039266 0 -6.42147e-07 0.000388986 0 1.22123e-05 0 4.0168e-12
16 3 0.001 -0.0386326 0 -7.69553e-07 0.000235162 0 -3.93626e-06 0 1.54377e-11
17 3 0.001 -0.0379992 0 -9.22547e-07 -0.000178491 0 -1.40184e-05 0 1.69659e-11
18 3 0.001 -0.0373658 0 -1.10496e-06 -7.24149e-05 0 2.89679e-06 0 8.5121e-12
19 3 0.001 -0.0367324 0 -1.31784e-06 3.43497e-05 0 8.79811e-06 0 7.4547e-12
20 3 0.001 -0.036099 0 -1.56283e-06 7.35602e-05 0 -3.28394e-06 0 1.04526e-11
21 3 0.001 -0.0354656 0 -1.84332e-06 0.000117448 0 -9.64217e-06 0 1.69555e-11
22 3 0.001 -0.0348322 0 -2.16204e-06 -0.00054141 0 4.73715e-06 0 1.07001e-11
23 3 0.001 -0.0341989 0 -2.51977e-06 -0.000355614 0 7.59025e-06 0 6.27194e-12
24 3 0.001 -0.0335656 0 -2.91826e-06 0.000154039 0 -8.60248e-06 0 8.49544e-12
25 3 0.001 -0.0329323 0 -3.36074e-06 -0.000580769 0 -1.86358e-05 0 2.96765e-11
26 3 0.001 -0.0322991 0 -3.84862e-06 0.000286675 0 -4.27429e-06 0 3.89314e-11
27 3 0.001 -0.0316659 0 -4.3797e-06 0.00030175 0 7.43053e-06 0 1.3647e-11
28 3 0.001 -0.0310326 0 -4.95089e-06 -0.000187141 0 7.67945e-06 0 9.19411e-12
29 3 0.001 -0.0303993 0 -5.56054e-06 0.000420879 0 -6.14249e-07 0 7.07232e-12
30 3 0.001 -0.029766 0 -6.20864e-06 -0.000157643 0 5.96774e-06 0 9.39757e-13
31 3 0.001 -0.0291327 0 -6.89496e-06 4.68425e-05 0 1.51366e-05 0 1.38367e-12
32 3 0.001 -0.0284994 0 -7.62054e-06 0.000330696 0 -1.31631e-05 0 2.56521e-12
33 3 0.001 -0.027866 0 -8.38946e-06 -0.000207904 0 -1.01936e-05 0 2.13403e-12
34 3 0.001 -0.0272327 0 -9.20311e-06 -0.000146104 0 4.86897e-07 0 6.82292e-13
35 3 0.001 -0.0265994 0 -1.00609e-05 -0.000103473 0 -6.7614e-06 0 2.86195e-12
36 3 0.001 -0.0259661 0 -1.09623e-05 -0.000357406 0 -9.11717e-06 0 1.64525e-11
37 3 0.001 -0.0253328 0 -1.19054e-05 0.000180324 0 2.91443e-06 0 2.11118e-11
38 3 0.001 -0.0246996 0 -1.28864e-05 0.000252562 0 1.9038e-05 0 7.8461e-12
39 3 0.001 -0.0240663 0 -1.39023e-05 0.000105883 0 6.52679e-06 0 1.0925e-12
40 3 0.001 -0.0234329 0 -1.49535e-05 -6.66964e-05 0 2.16559e-06 0 6.54406e-13
41 3 0.001 -0.0227996 0 -1.60421e-05 -6.3201e-05 0 8.23897e-06 0 1.87777e-12
42 3 0.001 -0.0221663 0 -1.71704e-05 0.000212447 0 -7.13843e-06 0 1.3692e-12
43 3 0.001 -0.021533 0 -1.83426e-05 -6.6461e-05 0 -3.15974e-06 0 9.10917e-14
44 3 0.001 -0.0208997 0 -1.95612e-05 0.000150803 0 -1.15979e-05 0 6.16213e-13
45 3 0.001 -0.0202663 0 -2.08282e-05 7.05337e-05 0 -1.6312e-05 0 2.03214e-12
46 3 0.001 -0.0196329 0 -2.21434e-05 -0.000355595 0 8.01995e-06 0 2.61634e-12
47 3 0.001 -0.0189996 0 -2.35032e-05 -0.000248698 0 5.65487e-06 0 8.29449e-12
48 3 0.001 -0.0183664 0 -2.49056e-05 -0.000207715 0 -4.89431e-06 0 2.31852e-11
49 3 0.001 -0.0177331 0 -2.63497e-05 0.000104146 0 -7.77136e-06 0 2.71793e-11
50 3 0.001 -0.0170999 0 -2.78334e-05 0.000170123 0 4.66076e-06 0 1.61701e-11
51 3 0.001 -0.0164666 0 -2.93532e-05 0.000274491 0 1.60462e-05 0 5.26863e-12
52 3 0.001 -0.0158333 0 -3.09066e-05 0.000454335 0 1.20534e-06 0 6.16487e-12
53 3 0.001 -0.0151999 0 -3.24944e-05 -4.50332e-05 0 -1.68984e-05 0 1.05419e-11
54 3 0.001 -0.0145665 0 -3.41175e-05 7.36857e-05 0 -1.01943e-05 0 1.1475e-11
55 3 0.001 -0.0139331 0 -3.57739e-05 -5.81117e-05 0 1.85974e-05 0 1.19143e-11
56 3 0.001 -0.0132997 0 -3.74593e-05 -1.34224e-05 0 2.10649e-05 0 9.71499e-12
57 3 0.001 -0.0126663 0 -3.91733e-05 -0.00040194 0 2.40754e-06 0 4.84372e-12
58 3 0.001 -0.012033 0 -4.09193e-05 -0.00029042 0 -1.46528e-05 0 5.40086e-12
59 3 0.001 -0.0113998 0 -4.27013e-05 0.000174986 0 -7.80194e-06 0 6.57349e-12
60 3 0.001 -0.0107665 0 -4.45204e-05 -0.00013044 0 5.23244e-06 0 5.34765e-12
61 3 0.001 -0.0101332 0 -4.63759e-05 0.000196551 0 -1.1191e-05 0 4.54126e-12
62 3 0.001 -0.00949987 0 -4.82683e-05 0.000246912 0 -7.62512e-06 0 1.26319e-12
63 3 0.001 -0.00886651 0 -5.01958e-05 6.74493e-05 0 4.45799e-06 0 2.36203e-12
64 3 0.001 -0.00823315 0 -5.21554e-05 -0.00035626 0 1.06233e-06 0 2.6542e-12
65 3 0.001 -0.00759985 0 -5.41445e-05 -0.000179397 0 7.99618e-06 0 5.66908e-12
66 3 0.001 -0.00696657 0 -5.61611e-05 -5.51061e-06 0 9.28213e-06 0 9.46902e-12
67 3 0.001 -0.0063333 0 -5.82046e-05 7.99681e-05 0 -1.80371e-05 0 7.63372e-12
68 3 0.001 -0.00570001 0 -6.02761e-05 0.000241237 0 -1.13952e-05 0 2.83886e-12
69 3 0.001 -0.00506668 0 -6.23733e-05 0.000408031 0 1.05268e-05 0 6.21329e-12
70 3 0.001 -0.00443329 0 -6.44918e-05 0.000343077 0 1.40226e-05 0 2.82105e-11
71 3 0.001 -0.00379984 0 -6.66294e-05 6.59644e-05 0 9.70046e-06 0 4.8181e-11
72 3 0.001 -0.00316638 0 -6.87867e-05 -0.000678147 0 -3.66023e-06 0 2.67455e-11
73 3 0.001 -0.00253303 0 -7.09662e-05 -0.000206108 0 -3.75223e-06 0 8.95358e-13
74 3 0.001 -0.00189971 0 -7.31699e-05 5.60938e-05 0 -5.53649e-06 0 3.57511e-13
75 3 0.001 -0.00126639 0 -7.53985e-05 -0.000407107 0 -7.33092e-06 0 7.97239e-12
76 3 0.001 -0.000633133 0 -7.76516e-05 0.000335559 0 -2.06467e-06 0 8.3689e-12
77 3 0.001 1.78866e-07 0 -7.99274e-05 -0.000367051 0 -3.54361e-07 0 9.54709e-12
78 3 0.001 0.000633431 0 -8.22235e-05 -0.00012951 0 -7.83466e-06 0 2.39299e-11
79 3 0.001 0.00126666 0 -8.45372e-05 0.000791791 0 3.95584e-06 0 1.63439e-11
80 3 0.001 0.00190002 0 -8.68651e-05 -0.000483539 0 2.12161e-05 0 5.02454e-12
81 3 0.001 0.0025333 0 -8.92033e-05 -0.000117492 0 3.05652e-06 0 1.0394e-11
82 3 0.001 0.00316656 0 -9.15533e-05 0.000836395 0 -1.01791e-05 0 1.44313e-11
83 3 0.001 0.00379996 0 -9.3917e-05 0.000299842 0 -1.18045e-05 0 2.93579e-11
84 3 0.001 0.00443341 0 -9.62942e-05 4.45151e-05 0 -5.92182e-06 0 4.63928e-11
85 3 0.001 0.00506687 0 -9.86828e-05 -0.000445046 0 1.48799e-05 0 2.89786e-11
86 3 0.001 0.00570025 0 -0.000101079 -0.000389899 0 1.15685e-05 0 4.56964e-12
87 3 0.001 0.00633357 0 -0.000103483 -6.99894e-05 0 -4.13874e-07 0 8.94387e-13
88 3 0.001 0.00696688 0 -0.000105896 -0.000199802 0 4.55673e-06 0 5.2995e-12
89 3 0.001 0.00760015 0 -0.000108319 8.52278e-05 0 -3.13998e-06 0 7.09802e-12
90 3 0.001 0.00823344 0 -0.000110755 0.00022179 0 1.35175e-06 0 2.55638e-12
91 3 0.001 0.00886676 0 -0.000113205 -3.58572e-05 0 -7.57406e-06 0 1.84575e-13
92 3 0.001 0.00950008 0 -0.000115671 0.000121238 0 -1.09704e-05 0 3.0336e-13
93 3 0.001 0.0101334 0 -0.000118153 -6.84974e-05 0 2.71836e-06 0 1.49672e-13
94 3 0.001 0.0107667 0 -0.00012065 -0.000176349 0 8.69043e-06 0 1.41878e-12
95 3 0.001 0.0114 0 -0.00012316 -0.000505054 0 1.37167e-05 0 2.10681e-11
96 3 0.001 0.0120333 0 -0.000125683 0.000403622 0 -3.09238e-06 0 2.30432e-11
97 3 0.001 0.0126665 0 -0.000128224 0.000275651 0 -7.70332e-06 0 3.39572e-12
98 3 0.001 0.0132999 0 -0.000130784 0.000146909 0 -9.95305e-06 0 7.66364e-13
99 3 0.001 0.0139332 0 -0.000133363 0.00029163 0 -4.89409e-06 0 8.29763e-12
100 3 0.001 0.0145666 0 -0.000135963 -1.11085e-05 0 8.87787e-06 0 1.46844e-11
101 3 0.001 0.0152 0 -0.00013858 0.000130727 0 5.63489e-06 0 1.94876e-11
102 3 0.001 0.0158334 0 -0.000141215 -0.000332843 0 7.98201e-06 0 1.42306e-11
103 3 0.001 0.0164668 0 -0.00014387 -8.29554e-05 0 3.90404e-06 0 2.60064e-12
104 3 0.001 0.0171001 0 -0.000146547 -0.000475508 0 -1.49996e-05 0 5.59685e-12
105 3 0.001 0.0177334 0 -0.000149249 -0.000297992 0 -1.57186e-05 0 2.18943e-11
106 3 0.001 0.0183666 0 -0.000151977 -9.72758e-06 0 6.56841e-06 0 3.4535e-11
107 3 0.001 0.0189999 0 -0.000154727 0.000121554 0 3.82989e-06 0 2.91304e-11
108 3 0.001 0.0196331 0 -0.000157499 0.00033963 0 -1.6687e-05 0 1.31028e-11
109 3 0.001 0.0202664 0 -0.000160289 2.11353e-05 0 4.07142e-06 0 2.68675e-12
110 3 0.001 0.0208997 0 -0.000163096 9.90378e-05 0 7.23227e-06 0 1.39188e-12
111 3 0.001 0.021533 0 -0.000165914 -0.000110459 0 3.67498e-06 0 1.5576e-12
112 3 0.001 0.0221663 0 -0.000168742 -0.000354849 0 1.66147e-05 0 1.3199e-11
113 3 0.001 0.0227995 0 -0.000171579 9.90302e-05 0 -4.72138e-06 0 1.97198e-11
114 3 0.001 0.0234328 0 -0.000174427 6.7014e-05 0 -1.92926e-05 0 1.35139e-11
115 3 0.001 0.0240661 0 -0.000177286 0.000254493 0 3.42424e-06 0 6.19054e-12
116 3 0.001 0.0246994 0 -0.000180154 -3.85584e-05 0 9.37526e-06 0 1.52843e-12
117 3 0.001 0.0253327 0 -0.000183029 -0.000135861 0 7.6249e-06 0 4.44693e-12
118 3 0.001 0.0259659 0 -0.000185911 -2.29127e-05 0 9.98691e-07 0 7.50656e-12
119 3 0.001 0.0265992 0 -0.000188801 -0.000233559 0 -1.05459e-06 0 1.63557e-11
120 3 0.001 0.0272325 0 -0.0001917 0.000454523 0 8.44006e-06 0 1.26671e-11
121 3 0.001 0.0278658 0 -0.000194609 -1.55585e-06 0 -3.08843e-06 0 7.12014e-13
122 3 0.001 0.0284991 0 -0.000197532 -0.00025485 0 -9.46666e-06 0 5.36988e-12
123 3 0.001 0.0291324 0 -0.000200471 3.03899e-05 0 -9.97337e-06 0 9.17981e-12
124 3 0.001 0.0297656 0 -0.000203426 -0.00029772 0 -6.02895e-06 0 1.98083e-11
125 3 0.001 0.0303989 0 -0.000206396 2.30164e-05 0 -6.63497e-06 0 3.0126e-11
126 3 0.001 0.0310321 0 -0.000209377 0.000385002 0 -1.15309e-05 0 1.62697e-11
127 3 0.001 0.0316654 0 -0.000212366 -0.000446611 0 4.56986e-06 0 1.94371e-11
128 3 0.001 0.0322986 0 -0.000215355 -4.62113e-05 0 1.46438e-05 0 3.78988e-11
129 3 0.001 0.0329318 0 -0.000218339 8.82353e-05 0 1.33931e-05 0 3.57077e-11
130 3 0.001 0.033565 0 -0.000221315 -0.00029776 0 1.51048e-05 0 4.96304e-11
131 3 0.001 0.0341982 0 -0.000224283 0.000753066 0 -5.80335e-07 0 3.51839e-11
132 3 0.001 0.0348315 0 -0.000227246 0.000231985 0 -6.25686e-06 0 1.24981e-12
133 3 0.001 0.0354648 0 -0.000230206 0.000127493 0 -3.62657e-06 0 1.91688e-12
134 3 0.001 0.0360982 0 -0.000233166 0.000297151 0 -8.86087e-06 0 1.197e-11
135 3 0.001 0.0367316 0 -0.000236126 -0.000115363 0 -1.31657e-05 0 1.6367e-11
136 3 0.001 0.037365 0 -0.000239087 0.000113028 0 -1.51784e-05 0 1.62781e-11
137 3 0.001 0.0379984 0 -0.000242046 0.000121263 0 1.52083e-05 0 2.5965e-11
138 3 0.001 0.0386318 0 -0.000244997 0.000122268 0 2.52707e-05 0 3.83865e-11
139 3 0.001 0.0392653 0 -0.000247938 -9.60743e-05 0 -8.21095e-06 0 3.97477e-11
140 3 0.001 0.0398987 0 -0.000250871 -0.000310041 0 -2.06602e-05 0 2.17489e-11
141 3 0.001 0.0405321 0 -0.000253797 -0.000202779 0 -7.37474e-06 0 5.33437e-12
142 3 0.001 0.0411654 0 -0.000256711 3.90116e-05 0 4.62878e-06 0 1.9211e-12
143 3 0.001 0.0417988 0 -0.00025961 0.000357405 0 1.6087e-05 0 1.27081e-11
144 3 0.001 0.0424322 0 -0.000262489 9.1338e-05 0 1.95313e-05 0 2.73267e-11
145 3 0.001 0.0430656 0 -0.000265347 -0.000522154 0 2.09132e-06 0 1.62131e-11
146 3 0.001 0.043699 0 -0.000268187 -0.000115879 0 -3.29601e-06 0 4.04674e-13
147 3 0.001 0.0443323 0 -0.000271012 -0.000150371 0 6.40334e-07 0 1.18949e-12
148 3 0.001 0.0449656 0 -0.000273824 -0.00022113 0 2.44042e-06 0 7.44562e-12
149 3 0.001 0.0455989 0 -0.000276627 -0.000108836 0 -2.2912e-06 0 1.00662e-11
150 3 0.001 0.0462322 0 -0.000279422 9.77038e-05 0 -3.43874e-06 0 5.78025e-10
2 2 0.001 0.0475 0 -0.000285 0.000625413 0 -2.15622e-05 0 5.07233e-10
151 3 0.001 0.0468661 0 -0.000282215 -0.000224412 0 1.2343e-05 0 1.08146e-09
