ITEM: TIMESTEP
3800000
ITEM: NUMBER OF ATOMS
151
ITEM: BOX BOUNDS ff ff ff
-5.5000000000000000e-02 5.5000000000000000e-02
-6.0000000000000001e-03 6.0000000000000001e-03
-2.5000000000000001e-02 2.5000000000000001e-02
ITEM: ATOMS id type radius x y z fx fy fz c_bendingE c_stretchingE
110 3 0.001 0.0220077 0 -0.00249089 -2.65154e-11 0 1.81076e-09 0 7.72517e-10
111 3 0.001 0.0226741 0 -0.0025217 9.19293e-11 0 1.3986e-10 0 7.72517e-10
112 3 0.001 0.0233406 0 -0.00255255 -1.24324e-10 0 -1.33123e-09 0 7.72517e-10
113 3 0.001 0.0240071 0 -0.00258342 -6.41484e-11 0 1.90406e-09 0 7.72517e-10
114 3 0.001 0.0246735 0 -0.00261431 5.17992e-11 0 -2.7075e-09 0 7.72517e-10
115 3 0.001 0.02534 0 -0.00264523 -5.76251e-11 0 -1.79172e-09 0 7.72517e-10
116 3 0.001 0.0260065 0 -0.00267618 3.264e-10 0 9.17912e-09 0 7.72518e-10
117 3 0.001 0.0266729 0 -0.00270715 -4.27903e-10 0 -1.09111e-08 0 7.72518e-10
118 3 0.001 0.0273394 0 -0.00273814 2.30044e-10 0 5.43598e-09 0 7.72518e-10
119 3 0.001 0.0280059 0 -0.00276915 9.81161e-11 0 1.30193e-09 0 7.72518e-10
120 3 0.001 0.0286723 0 -0.00280018 -6.6241e-11 0 -1.84329e-09 0 7.72518e-10
121 3 0.001 0.0293388 0 -0.00283124 -2.13423e-10 0 -9.55479e-10 0 7.72518e-10
122 3 0.001 0.0300053 0 -0.00286231 -5.87071e-11 0 -2.29858e-09 0 7.72518e-10
123 3 0.001 0.0306717 0 -0.0028934 4.57907e-10 0 7.72164e-09 0 7.72518e-10
124 3 0.001 0.0313382 0 -0.00292451 -2.51277e-10 0 -4.95977e-09 0 7.72518e-10
125 3 0.001 0.0320046 0 -0.00295563 -1.03931e-10 0 -2.52549e-09 0 7.72518e-10
126 3 0.001 0.0326711 0 -0.00298677 1.66855e-10 0 4.6681e-09 0 7.72519e-10
127 3 0.001 0.0333375 0 -0.00301793 -6.76814e-11 0 -2.29201e-09 0 7.72519e-10
128 3 0.001 0.034004 0 -0.0030491 7.75287e-11 0 -2.45288e-11 0 7.72519e-10
129 3 0.001 0.0346705 0 -0.00308029 -7.90501e-11 0 1.96062e-09 0 7.72519e-10
130 3 0.001 0.0353369 0 -0.00311148 -4.68768e-11 0 -1.14086e-09 0 7.72519e-10
131 3 0.001 0.0360034 0 -0.00314269 -6.40689e-11 0 -2.28196e-09 0 7.72519e-10
132 3 0.001 0.0366698 0 -0.00317392 1.08668e-10 0 3.08364e-09 0 7.72519e-10
133 3 0.001 0.0373363 0 -0.00320515 1.15373e-10 0 -4.31293e-10 0 7.72519e-10
134 3 0.001 0.0380027 0 -0.0032364 -9.14518e-11 0 -1.24225e-09 0 7.72519e-10
135 3 0.001 0.0386692 0 -0.00326765 -1.79697e-11 0 1.75674e-09 0 7.72519e-10
136 3 0.001 0.0393356 0 -0.00329891 -1.58048e-10 0 -6.61091e-09 0 7.72519e-10
137 3 0.001 0.0400021 0 -0.00333019 4.82992e-10 0 1.18265e-08 0 7.72519e-10
138 3 0.001 0.0406685 0 -0.00336147 -4.14633e-10 0 -6.2772e-09 0 7.72519e-10
139 3 0.001 0.041335 0 -0.00339275 -1.29499e-10 0 -4.31713e-09 0 7.72519e-10
140 3 0.001 0.0420014 0 -0.00342405 2.98953e-10 0 6.93321e-09 0 7.72519e-10
141 3 0.001 0.0426679 0 -0.00345535 -9.15063e-11 0 -3.68832e-09 0 7.72519e-10
142 3 0.001 0.0433343 0 -0.00348666 1.86216e-10 0 2.05916e-09 0 7.7252e-10
143 3 0.001 0.0440008 0 -0.00351797 -4.29215e-10 0 -5.2449e-09 0 7.7252e-10
144 3 0.001 0.0446672 0 -0.00354929 4.80235e-10 0 8.91304e-09 0 7.7252e-10
145 3 0.001 0.0453337 0 -0.00358061 -1.89715e-10 0 -6.32194e-09 0 7.7252e-10
146 3 0.001 0.0460001 0 -0.00361194 -2.22493e-10 0 -1.20572e-09 0 7.7252e-10
147 3 0.001 0.0466666 0 -0.00364327 3.31711e-10 0 7.15268e-09 0 7.7252e-10
148 3 0.001 0.047333 0 -0.0036746 -2.3788e-10 0 -5.86677e-09 0 7.7252e-10
149 3 0.001 0.0479995 0 -0.00370593 7.45282e-11 0 1.08074e-09 0 7.7252e-10
150 3 0.001 0.0486659 0 -0.00373727 1.28807e-10 0 9.79296e-10 0 2.15708e-09
2 2 0.001 0.05 0 -0.0038 -0.00297979 0 0.000142407 0 1.77082e-09
151 3 0.001 0.049333 0 -0.00376863 -1.76041e-10 0 -1.13394e-09 0 3.54164e-09
54 3 0.001 -0.0153191 0 -0.000862594 -2.27563e-10 0 -3.89751e-09 0 7.72457e-10
55 3 0.001 -0.0146524 0 -0.000888627 -1.90711e-10 0 -3.4627e-09 0 7.72461e-10
56 3 0.001 -0.0139858 0 -0.000914842 4.74078e-10 0 6.17555e-09 0 7.72464e-10
57 3 0.001 -0.0133191 0 -0.000941235 -2.17343e-10 0 -3.62542e-09 0 7.72468e-10
58 3 0.001 -0.0126524 0 -0.000967799 1.07689e-10 0 5.7276e-09 0 7.72471e-10
59 3 0.001 -0.0119858 0 -0.000994529 -2.8763e-10 0 -1.0571e-08 0 7.72474e-10
60 3 0.001 -0.0113191 0 -0.00102142 1.82938e-10 0 5.79244e-09 0 7.72476e-10
61 3 0.001 -0.0106525 0 -0.00104847 1.63688e-10 0 4.70161e-09 0 7.72479e-10
62 3 0.001 -0.00998588 0 -0.00107566 -2.89374e-10 0 -7.74948e-09 0 7.72481e-10
63 3 0.001 -0.00931925 0 -0.00110301 6.19219e-11 0 4.22042e-09 0 7.72483e-10
64 3 0.001 -0.00865263 0 -0.00113049 2.45452e-11 0 -1.77682e-09 0 7.72486e-10
65 3 0.001 -0.00798602 0 -0.00115811 1.78576e-10 0 2.71215e-09 0 7.72488e-10
66 3 0.001 -0.00731941 0 -0.00118586 -3.38905e-10 0 -5.61975e-09 0 7.72489e-10
69 3 0.001 -0.00531963 0 -0.00126988 7.86771e-12 0 1.73339e-09 0 7.72494e-10
67 3 0.001 -0.00665281 0 -0.00121375 4.03763e-10 0 7.43896e-09 0 7.72491e-10
68 3 0.001 -0.00598622 0 -0.00124175 -2.47932e-10 0 -6.34104e-09 0 7.72493e-10
70 3 0.001 -0.00465304 0 -0.00129812 2.07377e-10 0 4.77721e-09 0 7.72496e-10
71 3 0.001 -0.00398646 0 -0.00132647 -4.12139e-10 0 -7.99937e-09 0 7.72497e-10
72 3 0.001 -0.00331988 0 -0.00135494 3.64255e-10 0 7.2917e-09 0 7.72498e-10
73 3 0.001 -0.00265331 0 -0.0013835 -1.68203e-10 0 -5.57076e-09 0 7.725e-10
74 3 0.001 -0.00198674 0 -0.00141218 3.71981e-11 0 2.55273e-09 0 7.72501e-10
75 3 0.001 -0.00132017 0 -0.00144094 3.39836e-11 0 -4.48367e-10 0 7.72502e-10
76 3 0.001 -0.000653615 0 -0.00146981 -7.48803e-11 0 -1.68056e-09 0 7.72503e-10
77 3 0.001 1.2941e-05 0 -0.00149877 1.49639e-10 0 5.98624e-09 0 7.72504e-10
78 3 0.001 0.000679493 0 -0.00152782 -1.25789e-10 0 -4.89099e-09 0 7.72505e-10
79 3 0.001 0.00134604 0 -0.00155695 -1.68033e-10 0 -2.07037e-09 0 7.72505e-10
80 3 0.001 0.00201259 0 -0.00158617 1.48706e-10 0 3.35045e-09 0 7.72506e-10
81 3 0.001 0.00267913 0 -0.00161547 2.0756e-10 0 1.60978e-09 0 7.72507e-10
82 3 0.001 0.00334566 0 -0.00164485 -1.82407e-10 0 -1.81349e-09 0 7.72508e-10
83 3 0.001 0.0040122 0 -0.0016743 -2.78763e-10 0 -6.65167e-09 0 7.72508e-10
84 3 0.001 0.00467873 0 -0.00170383 7.12064e-10 0 1.27412e-08 0 7.72509e-10
85 3 0.001 0.00534526 0 -0.00173343 -4.51221e-10 0 -6.88062e-09 0 7.7251e-10
86 3 0.001 0.00601178 0 -0.00176309 -1.75543e-10 0 -3.78276e-09 0 7.7251e-10
87 3 0.001 0.0066783 0 -0.00179283 4.28235e-10 0 8.53377e-09 0 7.72511e-10
88 3 0.001 0.00734482 0 -0.00182263 -3.72375e-10 0 -4.88277e-09 0 7.72511e-10
89 3 0.001 0.00801134 0 -0.00185249 1.46283e-11 0 -2.59657e-09 0 7.72511e-10
90 3 0.001 0.00867785 0 -0.00188241 1.93183e-10 0 3.00063e-09 0 7.72512e-10
91 3 0.001 0.00934436 0 -0.00191239 1.22583e-10 0 4.72702e-09 0 7.72512e-10
92 3 0.001 0.0100109 0 -0.00194243 -2.32901e-10 0 -7.33682e-09 0 7.72513e-10
93 3 0.001 0.0106774 0 -0.00197252 3.19221e-11 0 1.41804e-09 0 7.72513e-10
94 3 0.001 0.0113439 0 -0.00200267 1.71433e-10 0 4.88534e-09 0 7.72513e-10
95 3 0.001 0.0120104 0 -0.00203286 -2.90948e-10 0 -6.8924e-09 0 7.72514e-10
96 3 0.001 0.0126769 0 -0.00206311 6.01185e-11 0 3.40307e-09 0 7.72514e-10
97 3 0.001 0.0133434 0 -0.0020934 1.44889e-10 0 2.34077e-09 0 7.72514e-10
98 3 0.001 0.0140099 0 -0.00212374 -1.74314e-10 0 -5.32467e-09 0 7.72515e-10
99 3 0.001 0.0146764 0 -0.00215412 6.33252e-11 0 1.96538e-09 0 7.72515e-10
100 3 0.001 0.0153429 0 -0.00218455 3.26001e-10 0 6.47149e-09 0 7.72515e-10
101 3 0.001 0.0160093 0 -0.00221502 -3.54576e-10 0 -7.47217e-09 0 7.72515e-10
102 3 0.001 0.0166758 0 -0.00224553 -8.13681e-11 0 -1.39562e-09 0 7.72515e-10
103 3 0.001 0.0173423 0 -0.00227607 1.82041e-10 0 2.53275e-09 0 7.72516e-10
104 3 0.001 0.0180088 0 -0.00230666 1.13535e-10 0 5.17013e-09 0 7.72516e-10
105 3 0.001 0.0186753 0 -0.00233728 -2.01216e-10 0 -4.35528e-09 0 7.72516e-10
106 3 0.001 0.0193418 0 -0.00236794 -2.20226e-10 0 -7.43416e-09 0 7.72516e-10
107 3 0.001 0.0200082 0 -0.00239863 7.27628e-10 0 1.70925e-08 0 7.72516e-10
108 3 0.001 0.0206747 0 -0.00242935 -6.30162e-10 0 -1.42852e-08 0 7.72517e-10
109 3 0.001 0.0213412 0 -0.00246011 2.18545e-10 0 3.44215e-09 0 7.72517e-10
1 1 0.001 -0.05 0 0 -0.0034128 0 0.00421917 0 1.14427e-32
3 3 0.001 -0.0493333 0 0 0.00639259 0 -0.00436143 0 1.77389e-09
4 3 0.001 -0.0486656 0 -1.95425e-06 1.61412e-10 0 -7.40226e-09 0 2.15942e-09
5 3 0.001 -0.0479984 0 -4.8532e-06 -5.21237e-11 0 6.36247e-09 0 7.7111e-10
6 3 0.001 -0.0473312 0 -8.66858e-06 4.43031e-11 0 4.28476e-09 0 7.71198e-10
7 3 0.001 -0.046664 0 -1.33714e-05 -5.61657e-11 0 -1.35793e-08 0 7.7128e-10
8 3 0.001 -0.0459969 0 -1.89334e-05 4.46617e-12 0 1.2649e-08 0 7.71357e-10
9 3 0.001 -0.0453297 0 -2.53275e-05 6.13141e-11 0 -5.39656e-09 0 7.71429e-10
10 3 0.001 -0.0446626 0 -3.25273e-05 -8.68737e-12 0 -2.67415e-10 0 7.71497e-10
11 3 0.001 -0.0439954 0 -4.05073e-05 -1.63698e-10 0 1.14295e-09 0 7.71561e-10
12 3 0.001 -0.0433283 0 -4.92426e-05 5.59631e-11 0 -3.37766e-09 0 7.7162e-10
13 3 0.001 -0.0426612 0 -5.87095e-05 1.86818e-10 0 1.02956e-08 0 7.71676e-10
14 3 0.001 -0.0419941 0 -6.88846e-05 -2.15985e-10 0 -1.39497e-08 0 7.71728e-10
15 3 0.001 -0.041327 0 -7.97456e-05 1.76744e-10 0 9.28735e-09 0 7.71778e-10
16 3 0.001 -0.0406599 0 -9.12707e-05 -6.54026e-11 0 -3.329e-11 0 7.71824e-10
17 3 0.001 -0.0399928 0 -0.000103439 -5.81544e-11 0 -7.36717e-09 0 7.71867e-10
18 3 0.001 -0.0393258 0 -0.00011623 1.69114e-10 0 8.35767e-09 0 7.71907e-10
19 3 0.001 -0.0386587 0 -0.000129623 -2.5265e-10 0 -4.3077e-09 0 7.71945e-10
20 3 0.001 -0.0379917 0 -0.000143601 5.47367e-11 0 3.42536e-10 0 7.71981e-10
21 3 0.001 -0.0373247 0 -0.000158144 8.3278e-11 0 1.36713e-09 0 7.72014e-10
22 3 0.001 -0.0366577 0 -0.000173234 7.48483e-12 0 -6.4136e-10 0 7.72046e-10
23 3 0.001 -0.0359906 0 -0.000188854 2.56854e-12 0 -1.82626e-09 0 7.72075e-10
24 3 0.001 -0.0353237 0 -0.000204987 -1.11178e-10 0 -1.45142e-10 0 7.72103e-10
25 3 0.001 -0.0346567 0 -0.000221618 1.84056e-10 0 5.37179e-09 0 7.72128e-10
26 3 0.001 -0.0339897 0 -0.000238729 -2.37526e-11 0 -5.00417e-09 0 7.72153e-10
27 3 0.001 -0.0333228 0 -0.000256307 -7.44577e-11 0 4.6706e-09 0 7.72175e-10
28 3 0.001 -0.0326558 0 -0.000274336 -2.42338e-10 0 -8.84285e-09 0 7.72197e-10
29 3 0.001 -0.0319889 0 -0.000292801 2.88259e-10 0 6.01427e-09 0 7.72217e-10
30 3 0.001 -0.031322 0 -0.00031169 8.07118e-11 0 4.0722e-09 0 7.72235e-10
31 3 0.001 -0.0306551 0 -0.000330988 -2.15821e-10 0 -9.93688e-09 0 7.72253e-10
32 3 0.001 -0.0299882 0 -0.000350682 2.50874e-10 0 9.36237e-09 0 7.72269e-10
33 3 0.001 -0.0293213 0 -0.000370761 -2.05036e-10 0 -4.20311e-09 0 7.72285e-10
34 3 0.001 -0.0286544 0 -0.000391212 7.21987e-11 0 -2.09615e-09 0 7.72299e-10
35 3 0.001 -0.0279876 0 -0.000412022 7.16673e-12 0 2.65841e-09 0 7.72313e-10
36 3 0.001 -0.0273207 0 -0.000433181 -1.37914e-10 0 5.10312e-10 0 7.72325e-10
37 3 0.001 -0.0266539 0 -0.000454678 9.86826e-11 0 4.10067e-11 0 7.72337e-10
38 3 0.001 -0.0259871 0 -0.000476502 -1.1059e-10 0 -4.40997e-09 0 7.72349e-10
39 3 0.001 -0.0253202 0 -0.000498642 2.55146e-10 0 6.66434e-09 0 7.72359e-10
40 3 0.001 -0.0246534 0 -0.000521088 -1.78404e-10 0 -5.17479e-09 0 7.72369e-10
41 3 0.001 -0.0239866 0 -0.000543832 6.46983e-11 0 4.21979e-09 0 7.72378e-10
42 3 0.001 -0.0233198 0 -0.000566862 3.30421e-11 0 -1.17269e-09 0 7.72387e-10
43 3 0.001 -0.0226531 0 -0.000590171 -1.48758e-10 0 -5.00111e-09 0 7.72395e-10
44 3 0.001 -0.0219863 0 -0.000613749 5.09655e-11 0 4.10346e-09 0 7.72403e-10
45 3 0.001 -0.0213195 0 -0.000637589 5.31416e-11 0 9.6899e-10 0 7.7241e-10
46 3 0.001 -0.0206528 0 -0.00066168 -6.16179e-11 0 -1.09194e-09 0 7.72416e-10
47 3 0.001 -0.019986 0 -0.000686016 4.34371e-11 0 -5.98636e-10 0 7.72423e-10
48 3 0.001 -0.0193193 0 -0.000710589 1.49042e-10 0 1.82068e-09 0 7.72429e-10
49 3 0.001 -0.0186526 0 -0.000735391 -1.2999e-10 0 -6.5999e-10 0 7.72434e-10
50 3 0.001 -0.0179859 0 -0.000760415 -6.24242e-11 0 -2.92986e-09 0 7.72439e-10
51 3 0.001 -0.0173192 0 -0.000785654 1.51561e-10 0 2.87527e-09 0 7.72444e-10
52 3 0.001 -0.0166525 0 -0.000811102 -2.30964e-10 0 -2.53514e-09 0 7.72449e-10
53 3 0.001 -0.0159858 0 -0.00083675 2.86254e-10 0 5.58949e-09 0 7.72453e-10
