ITEM: TIMESTEP
260000
ITEM: NUMBER OF ATOMS
151
ITEM: BOX BOUNDS ff ff ff
-5.2499999999999998e-02 5.2499999999999998e-02
-6.0000000000000001e-03 6.0000000000000001e-03
-1.4999999999999999e-02 1.4999999999999999e-02
ITEM: ATOMS id type radius x y z fx fy fz c_bendingE c_stretchingE
83 3 0.001 0.00380707 0 -0.0010166 -3.46427e-05 0 -5.38905e-06 0 1.40987e-10
84 3 0.001 0.00444031 0 -0.00103608 0.000196074 0 -1.07327e-05 0 1.59746e-10
85 3 0.001 0.00507359 0 -0.00105566 -5.19222e-05 0 2.27739e-06 0 1.75961e-10
86 3 0.001 0.00570685 0 -0.00107531 3.1333e-05 0 2.18197e-06 0 1.73439e-10
87 3 0.001 0.00634012 0 -0.00109504 5.99009e-05 0 -3.34197e-06 0 1.84574e-10
88 3 0.001 0.0069734 0 -0.00111485 -9.45434e-05 0 3.61818e-07 0 1.80449e-10
89 3 0.001 0.00760665 0 -0.00113473 -1.88618e-05 0 3.03255e-06 0 1.66704e-10
90 3 0.001 0.00823991 0 -0.00115469 -0.000170368 0 9.93721e-06 0 1.45815e-10
91 3 0.001 0.00887313 0 -0.00117471 -6.30123e-05 0 -1.40371e-06 0 1.20866e-10
92 3 0.001 0.00950634 0 -0.0011948 1.46542e-05 0 -6.53416e-06 0 1.16038e-10
93 3 0.001 0.0101395 0 -0.00121495 7.30048e-05 0 -3.04119e-06 0 1.24904e-10
94 3 0.001 0.0107728 0 -0.00123517 0.000202723 0 -4.53666e-06 0 1.55194e-10
95 3 0.001 0.011406 0 -0.00125545 -2.8852e-05 0 5.08886e-06 0 1.7459e-10
96 3 0.001 0.0120393 0 -0.00127579 6.87093e-06 0 3.01713e-07 0 1.71927e-10
97 3 0.001 0.0126725 0 -0.00129618 3.62276e-05 0 -3.66006e-06 0 1.77134e-10
98 3 0.001 0.0133058 0 -0.00131662 -2.07087e-06 0 -4.04392e-06 0 1.81286e-10
100 3 0.001 0.0145722 0 -0.00135766 -5.13178e-05 0 9.03573e-06 0 1.67205e-10
99 3 0.001 0.013939 0 -0.00133712 -3.20398e-05 0 5.68611e-06 0 1.77154e-10
101 3 0.001 0.0152055 0 -0.00137825 -3.83389e-05 0 2.28779e-06 0 1.56784e-10
102 3 0.001 0.0158387 0 -0.00139889 -5.64259e-05 0 4.62081e-06 0 1.46211e-10
103 3 0.001 0.0164719 0 -0.00141957 3.15182e-05 0 1.45822e-06 0 1.43422e-10
104 3 0.001 0.0171051 0 -0.0014403 6.76386e-05 0 -2.1223e-06 0 1.54477e-10
105 3 0.001 0.0177383 0 -0.00146107 3.34236e-05 0 -3.00566e-06 0 1.6603e-10
106 3 0.001 0.0183716 0 -0.00148189 -0.00022844 0 2.50478e-06 0 1.45061e-10
107 3 0.001 0.0190048 0 -0.00150275 -3.51175e-05 0 -6.22197e-06 0 1.16748e-10
108 3 0.001 0.0196379 0 -0.00152366 0.000171694 0 -6.80877e-06 0 1.31153e-10
109 3 0.001 0.0202711 0 -0.00154462 5.36967e-05 0 6.22279e-06 0 1.55024e-10
110 3 0.001 0.0209044 0 -0.00156561 8.16392e-05 0 4.12418e-07 0 1.70744e-10
111 3 0.001 0.0215376 0 -0.00158665 -4.64501e-05 0 -1.54579e-06 0 1.74853e-10
112 3 0.001 0.0221708 0 -0.00160773 4.16697e-05 0 -5.47172e-06 0 1.743e-10
113 3 0.001 0.022804 0 -0.00162885 -4.38893e-06 0 -1.01069e-06 0 1.78786e-10
114 3 0.001 0.0234373 0 -0.00165001 -3.60985e-05 0 5.62326e-06 0 1.73916e-10
115 3 0.001 0.0240705 0 -0.00167121 9.9013e-05 0 -1.93074e-06 0 1.81688e-10
116 3 0.001 0.0247037 0 -0.00169244 -2.84876e-05 0 -3.83257e-06 0 1.90254e-10
117 3 0.001 0.0253369 0 -0.00171371 -0.000126481 0 -1.05371e-06 0 1.71684e-10
118 3 0.001 0.0259701 0 -0.00173501 -2.39804e-05 0 1.62543e-06 0 1.53958e-10
119 3 0.001 0.0266033 0 -0.00175635 0.000123636 0 1.51436e-06 0 1.65678e-10
120 3 0.001 0.0272365 0 -0.00177771 -2.68762e-05 0 3.48572e-06 0 1.76848e-10
121 3 0.001 0.0278698 0 -0.00179911 9.25114e-05 0 -4.62283e-06 0 1.85028e-10
122 3 0.001 0.028503 0 -0.00182053 -0.000139702 0 5.59328e-06 0 1.79476e-10
123 3 0.001 0.0291362 0 -0.00184198 -0.000137431 0 5.00656e-06 0 1.47348e-10
124 3 0.001 0.0297694 0 -0.00186345 1.28711e-05 0 -1.00153e-06 0 1.33563e-10
125 3 0.001 0.0304025 0 -0.00188495 -5.30359e-05 0 -9.02399e-07 0 1.29445e-10
126 3 0.001 0.0310357 0 -0.00190648 -1.783e-05 0 -5.00554e-06 0 1.222e-10
129 3 0.001 0.0329352 0 -0.00197119 0.000112374 0 -3.12998e-06 0 1.36713e-10
127 3 0.001 0.0316689 0 -0.00192803 1.93337e-05 0 -2.82382e-06 0 1.22378e-10
128 3 0.001 0.032302 0 -0.0019496 2.33591e-06 0 2.17214e-06 0 1.24559e-10
130 3 0.001 0.0335684 0 -0.00199279 6.69329e-05 0 -1.31743e-06 0 1.56235e-10
131 3 0.001 0.0342016 0 -0.00201441 -5.20183e-05 0 3.12787e-06 0 1.5789e-10
132 3 0.001 0.0348348 0 -0.00203605 6.08096e-05 0 -1.31618e-07 0 1.58904e-10
133 3 0.001 0.035468 0 -0.00205769 -6.70019e-05 0 5.24413e-06 0 1.58194e-10
134 3 0.001 0.0361012 0 -0.00207934 6.33613e-05 0 -5.6819e-07 0 1.57752e-10
135 3 0.001 0.0367344 0 -0.002101 0.000158958 0 -2.96302e-06 0 1.84561e-10
136 3 0.001 0.0373676 0 -0.00212266 9.67401e-06 0 2.62228e-07 0 2.05403e-10
137 3 0.001 0.0380008 0 -0.00214434 -0.000119709 0 -2.83092e-07 0 1.91633e-10
138 3 0.001 0.038634 0 -0.00216602 -5.62713e-05 0 -3.45907e-06 0 1.69962e-10
139 3 0.001 0.0392672 0 -0.00218771 -0.000138133 0 6.50728e-06 0 1.48058e-10
140 3 0.001 0.0399004 0 -0.0022094 6.68565e-05 0 5.17164e-06 0 1.39954e-10
141 3 0.001 0.0405336 0 -0.0022311 7.64733e-05 0 1.02034e-06 0 1.55765e-10
142 3 0.001 0.0411668 0 -0.0022528 -8.29686e-05 0 -7.259e-07 0 1.55051e-10
143 3 0.001 0.0417999 0 -0.0022745 0.000148886 0 -1.13724e-05 0 1.6295e-10
144 3 0.001 0.0424331 0 -0.00229621 0.00011781 0 -3.80388e-06 0 1.95161e-10
145 3 0.001 0.0430664 0 -0.00231792 -0.000158554 0 1.21942e-05 0 1.90229e-10
146 3 0.001 0.0436996 0 -0.00233964 -9.87293e-05 0 2.89827e-06 0 1.59053e-10
147 3 0.001 0.0443327 0 -0.00236135 3.49829e-05 0 -4.40599e-06 0 1.51676e-10
148 3 0.001 0.0449659 0 -0.00238307 -0.000114907 0 3.49976e-06 0 1.43127e-10
149 3 0.001 0.0455991 0 -0.00240479 -4.68156e-05 0 2.87377e-06 0 1.46669e-10
150 3 0.001 0.0462323 0 -0.00242651 7.44819e-05 0 -1.37821e-06 0 1.28893e-09
2 2 0.001 0.0475 0 -0.00247 -0.00131393 0 4.73441e-05 0 1.22034e-09
151 3 0.001 0.0468661 0 -0.00244825 2.84377e-05 0 -2.31314e-06 0 2.42793e-09
1 1 0.001 -0.0475 0 0 -0.00413522 0 0.0024948 0 1.60362e-34
3 3 0.001 -0.0468667 0 0 0.00548909 0 -0.00254589 0 1.24238e-09
4 3 0.001 -0.0462324 0 -9.90361e-07 -0.000104949 0 -4.98365e-06 0 1.3284e-09
5 3 0.001 -0.0455989 0 -2.46522e-06 1.43458e-05 0 -3.77394e-06 0 1.51846e-10
6 3 0.001 -0.0449653 0 -4.41502e-06 1.50541e-05 0 -3.7484e-06 0 1.33224e-10
7 3 0.001 -0.0443318 0 -6.82872e-06 -9.09672e-05 0 5.84737e-06 0 1.25559e-10
8 3 0.001 -0.0436983 0 -9.69457e-06 0.000124814 0 4.83124e-06 0 1.29176e-10
9 3 0.001 -0.0430647 0 -1.30024e-05 9.14228e-05 0 -5.13007e-06 0 1.52288e-10
10 3 0.001 -0.0424312 0 -1.67429e-05 4.32859e-05 0 -2.73191e-06 0 1.67629e-10
11 3 0.001 -0.0417976 0 -2.09063e-05 5.12802e-05 0 3.23413e-06 0 1.78953e-10
12 3 0.001 -0.041164 0 -2.54824e-05 -0.000120796 0 3.55018e-07 0 1.70861e-10
13 3 0.001 -0.0405305 0 -3.04617e-05 -0.000134648 0 2.76067e-06 0 1.41989e-10
14 3 0.001 -0.039897 0 -3.5835e-05 9.34389e-05 0 7.49033e-06 0 1.37372e-10
15 3 0.001 -0.0392635 0 -4.15938e-05 8.85996e-05 0 4.19374e-07 0 1.57396e-10
16 3 0.001 -0.0386299 0 -4.77312e-05 -8.74213e-05 0 -4.86639e-06 0 1.57536e-10
17 3 0.001 -0.0379964 0 -5.42406e-05 0.000115202 0 -4.40843e-06 0 1.60852e-10
18 3 0.001 -0.0373629 0 -6.11146e-05 5.94613e-05 0 3.41033e-06 0 1.81385e-10
19 3 0.001 -0.0367293 0 -6.83454e-05 -1.52472e-06 0 4.47178e-06 0 1.88458e-10
20 3 0.001 -0.0360958 0 -7.59257e-05 -5.27388e-05 0 -2.0777e-07 0 1.81808e-10
21 3 0.001 -0.0354623 0 -8.38496e-05 -0.000192735 0 -1.35796e-06 0 1.53713e-10
22 3 0.001 -0.0348288 0 -9.21109e-05 -3.07647e-05 0 -7.25604e-06 0 1.28912e-10
23 3 0.001 -0.0341953 0 -0.000100703 0.000215224 0 -6.2865e-06 0 1.49588e-10
24 3 0.001 -0.0335618 0 -0.000109619 -7.78091e-06 0 3.24708e-06 0 1.72493e-10
25 3 0.001 -0.0329283 0 -0.00011885 -0.000173129 0 1.94063e-06 0 1.52205e-10
26 3 0.001 -0.0322948 0 -0.000128388 -6.50243e-05 0 3.23803e-06 0 1.26215e-10
27 3 0.001 -0.0316614 0 -0.000138224 4.99041e-05 0 3.65179e-06 0 1.24634e-10
28 3 0.001 -0.0310279 0 -0.000148353 3.9328e-06 0 3.35372e-06 0 1.30091e-10
29 3 0.001 -0.0303944 0 -0.000158769 -6.87906e-05 0 2.92538e-06 0 1.23551e-10
30 3 0.001 -0.029761 0 -0.000169464 -7.61299e-05 0 3.97411e-06 0 1.09378e-10
31 3 0.001 -0.0291276 0 -0.000180435 0.000145422 0 -1.27969e-06 0 1.16368e-10
32 3 0.001 -0.0284941 0 -0.000191679 6.95202e-05 0 -9.64089e-06 0 1.3802e-10
33 3 0.001 -0.0278607 0 -0.00020319 1.27845e-05 0 -5.34522e-06 0 1.46869e-10
34 3 0.001 -0.0272272 0 -0.000214963 7.00587e-05 0 4.1677e-06 0 1.56226e-10
35 3 0.001 -0.0265938 0 -0.000226993 -0.000179755 0 3.1752e-06 0 1.44578e-10
36 3 0.001 -0.0259604 0 -0.000239273 7.68827e-05 0 -8.08825e-06 0 1.33057e-10
37 3 0.001 -0.0253269 0 -0.000251798 7.57199e-05 0 -5.44943e-06 0 1.49536e-10
38 3 0.001 -0.0246935 0 -0.000264563 1.43103e-05 0 1.02245e-06 0 1.5959e-10
39 3 0.001 -0.0240601 0 -0.00027756 1.30508e-05 0 5.67615e-06 0 1.62727e-10
40 3 0.001 -0.0234267 0 -0.000290783 0.000115502 0 2.98258e-06 0 1.78207e-10
41 3 0.001 -0.0227932 0 -0.000304227 -2.94245e-05 0 -1.95535e-06 0 1.88526e-10
42 3 0.001 -0.0221598 0 -0.000317886 -5.66904e-05 0 1.68545e-06 0 1.77995e-10
43 3 0.001 -0.0215264 0 -0.000331757 7.5381e-05 0 -2.11389e-08 0 1.80313e-10
44 3 0.001 -0.0208929 0 -0.000345835 2.36627e-05 0 -7.44847e-06 0 1.92504e-10
45 3 0.001 -0.0202595 0 -0.000360116 6.82583e-06 0 -2.05137e-06 0 1.96382e-10
46 3 0.001 -0.0196261 0 -0.000374595 -0.000279726 0 9.2425e-06 0 1.64793e-10
47 3 0.001 -0.0189927 0 -0.000389265 -5.59602e-05 0 5.20129e-06 0 1.26602e-10
48 3 0.001 -0.0183594 0 -0.000404121 6.95368e-05 0 4.57125e-06 0 1.28005e-10
49 3 0.001 -0.017726 0 -0.000419162 1.62918e-05 0 5.85701e-07 0 1.36864e-10
50 3 0.001 -0.0170926 0 -0.000434383 7.60018e-05 0 -6.89908e-06 0 1.46975e-10
51 3 0.001 -0.0164593 0 -0.000449782 -4.71348e-05 0 -3.4037e-06 0 1.50124e-10
52 3 0.001 -0.0158259 0 -0.000465356 -7.59937e-05 0 -3.68293e-07 0 1.36829e-10
53 3 0.001 -0.0151925 0 -0.000481099 1.75555e-05 0 2.80626e-06 0 1.30579e-10
54 3 0.001 -0.0145592 0 -0.000497008 0.000100102 0 5.92272e-07 0 1.43261e-10
55 3 0.001 -0.0139258 0 -0.00051308 6.79732e-05 0 -5.9837e-07 0 1.61983e-10
56 3 0.001 -0.0132925 0 -0.00052931 3.78295e-05 0 -5.08508e-07 0 1.74372e-10
57 3 0.001 -0.0126591 0 -0.000545696 -4.75408e-05 0 -6.39246e-07 0 1.73232e-10
58 3 0.001 -0.0120258 0 -0.000562234 5.03393e-05 0 -1.54616e-06 0 1.73581e-10
59 3 0.001 -0.0113924 0 -0.000578922 5.64606e-05 0 -3.00133e-06 0 1.86617e-10
60 3 0.001 -0.0107591 0 -0.000595758 -5.40011e-05 0 2.72841e-06 0 1.86918e-10
61 3 0.001 -0.0101257 0 -0.000612736 -6.77578e-05 0 3.54825e-06 0 1.7213e-10
62 3 0.001 -0.00949237 0 -0.000629854 -0.000181408 0 2.52945e-06 0 1.44309e-10
63 3 0.001 -0.00885907 0 -0.000647109 -6.16673e-05 0 1.92917e-06 0 1.18471e-10
64 3 0.001 -0.00822578 0 -0.000664499 0.000159317 0 -7.7185e-06 0 1.28776e-10
65 3 0.001 -0.00759247 0 -0.000682022 2.21264e-05 0 -1.58965e-06 0 1.47624e-10
66 3 0.001 -0.00695916 0 -0.000699673 8.66704e-05 0 2.99711e-06 0 1.60009e-10
67 3 0.001 -0.00632584 0 -0.000717449 8.7704e-05 0 2.10489e-06 0 1.80635e-10
68 3 0.001 -0.00569251 0 -0.000735348 7.88176e-05 0 -7.33629e-06 0 2.01504e-10
69 3 0.001 -0.00505917 0 -0.000753368 2.88761e-05 0 -9.743e-06 0 2.15571e-10
70 3 0.001 -0.00442582 0 -0.000771506 -0.00017361 0 5.02717e-06 0 1.97337e-10
71 3 0.001 -0.00379251 0 -0.000789757 5.65808e-05 0 1.84527e-06 0 1.82142e-10
72 3 0.001 -0.00315919 0 -0.000808119 -6.57154e-05 0 4.04171e-06 0 1.8103e-10
73 3 0.001 -0.00252589 0 -0.000826587 -0.000134323 0 7.06736e-06 0 1.57678e-10
74 3 0.001 -0.00189261 0 -0.000845158 0.000209141 0 -3.58608e-06 0 1.66828e-10
75 3 0.001 -0.0012593 0 -0.000863831 -4.21454e-05 0 -2.80579e-07 0 1.86075e-10
76 3 0.001 -0.000626005 0 -0.000882603 0.000186657 0 -1.01565e-05 0 2.05119e-10
77 3 0.001 7.32191e-06 0 -0.000901474 2.73236e-05 0 -3.18382e-06 0 2.3318e-10
78 3 0.001 0.000640651 0 -0.000920439 -8.98074e-05 0 6.66923e-06 0 2.24738e-10
79 3 0.001 0.00127396 0 -0.000939496 3.06967e-05 0 2.72416e-06 0 2.16587e-10
80 3 0.001 0.00190728 0 -0.000958642 -0.000270664 0 1.03799e-05 0 1.87167e-10
81 3 0.001 0.00254054 0 -0.000977873 2.62288e-05 0 3.62975e-06 0 1.56622e-10
82 3 0.001 0.00317381 0 -0.000997191 -6.64999e-05 0 2.47219e-07 0 1.52147e-10
