ITEM: TIMESTEP
190000
ITEM: NUMBER OF ATOMS
151
ITEM: BOX BOUNDS ff ff ff
-5.2499999999999998e-02 5.2499999999999998e-02
-6.0000000000000001e-03 6.0000000000000001e-03
-1.4999999999999999e-02 1.4999999999999999e-02
ITEM: ATOMS id type radius x y z fx fy fz c_bendingE c_stretchingE
100 3 0.001 0.0145704 0 -0.000934708 6.92238e-05 0 -3.73554e-06 0 5.51665e-11
101 3 0.001 0.0152037 0 -0.000950286 0.000216447 0 -2.47886e-06 0 7.69715e-11
102 3 0.001 0.015837 0 -0.000965931 -8.19971e-05 0 1.7929e-06 0 8.71597e-11
103 3 0.001 0.0164703 0 -0.000981641 8.23766e-05 0 2.47905e-06 0 8.71834e-11
104 3 0.001 0.0171036 0 -0.000997416 0.000112631 0 7.22796e-07 0 1.04596e-10
105 3 0.001 0.017737 0 -0.00101326 -0.000179383 0 -2.18994e-06 0 9.8901e-11
106 3 0.001 0.0183703 0 -0.00102916 4.27812e-05 0 -1.13034e-05 0 8.63969e-11
107 3 0.001 0.0190036 0 -0.00104514 2.08727e-05 0 -5.00456e-06 0 9.18571e-11
108 3 0.001 0.0196369 0 -0.00106117 -0.000153511 0 4.51018e-06 0 8.11585e-11
109 3 0.001 0.0202702 0 -0.00107727 -8.06495e-05 0 7.42819e-06 0 6.28232e-11
110 3 0.001 0.0209034 0 -0.00109342 -0.000159396 0 8.28714e-06 0 4.71241e-11
111 3 0.001 0.0215367 0 -0.00110964 -0.000224034 0 4.19391e-06 0 2.68887e-11
112 3 0.001 0.0221699 0 -0.0011259 7.95604e-05 0 -3.59369e-06 0 1.97457e-11
113 3 0.001 0.0228031 0 -0.00114222 6.83472e-05 0 -9.11865e-07 0 2.61147e-11
114 3 0.001 0.0234363 0 -0.00115859 0.000143781 0 -1.732e-06 0 3.71987e-11
115 3 0.001 0.0240695 0 -0.00117502 2.79568e-05 0 -1.87358e-06 0 4.68565e-11
116 3 0.001 0.0247028 0 -0.00119149 -5.75967e-05 0 2.23082e-07 0 4.50886e-11
117 3 0.001 0.025336 0 -0.00120801 -0.000107184 0 -8.46476e-07 0 3.57804e-11
118 3 0.001 0.0259692 0 -0.00122458 9.8271e-05 0 -7.34887e-06 0 3.52731e-11
119 3 0.001 0.0266025 0 -0.0012412 6.28075e-06 0 4.83584e-06 0 4.09227e-11
120 3 0.001 0.0272357 0 -0.00125786 -0.00030575 0 1.39883e-05 0 2.72863e-11
121 3 0.001 0.0278689 0 -0.00127455 7.47616e-05 0 -6.61524e-06 0 1.60043e-11
122 3 0.001 0.0285021 0 -0.00129129 0.000118763 0 -5.56048e-06 0 2.39679e-11
123 3 0.001 0.0291353 0 -0.00130806 -6.66336e-05 0 1.78038e-06 0 2.61314e-11
124 3 0.001 0.0297685 0 -0.00132487 1.62077e-05 0 2.58547e-06 0 2.37567e-11
125 3 0.001 0.0304017 0 -0.00134171 0.000100083 0 1.8886e-06 0 2.93759e-11
126 3 0.001 0.0310349 0 -0.00135858 8.94451e-05 0 -1.44682e-06 0 3.93678e-11
129 3 0.001 0.0329346 0 -0.00140937 0.000241799 0 -5.69442e-06 0 5.00712e-11
127 3 0.001 0.0316681 0 -0.00137548 9.65567e-05 0 -8.80604e-07 0 5.06851e-11
128 3 0.001 0.0323013 0 -0.00139241 -0.000181852 0 5.51673e-06 0 4.58165e-11
130 3 0.001 0.0335678 0 -0.00142636 0.000132005 0 -6.04777e-06 0 7.5849e-11
131 3 0.001 0.0342011 0 -0.00144338 -0.00019338 0 1.2362e-06 0 7.15061e-11
132 3 0.001 0.0348343 0 -0.00146043 3.47667e-05 0 -6.0168e-06 0 5.91773e-11
133 3 0.001 0.0354676 0 -0.0014775 -0.00012823 0 5.24198e-06 0 5.31468e-11
134 3 0.001 0.0361008 0 -0.0014946 1.41197e-06 0 4.30341e-06 0 4.47568e-11
135 3 0.001 0.036734 0 -0.00151172 6.61364e-06 0 -2.84436e-06 0 4.52443e-11
136 3 0.001 0.0373672 0 -0.00152887 -7.75175e-05 0 2.05461e-06 0 4.11434e-11
137 3 0.001 0.0380005 0 -0.00154603 0.000215474 0 -5.8646e-06 0 5.03967e-11
138 3 0.001 0.0386337 0 -0.00156321 -7.6236e-05 0 2.00812e-06 0 5.88527e-11
139 3 0.001 0.0392669 0 -0.00158041 -0.000114153 0 6.759e-06 0 4.64901e-11
140 3 0.001 0.0399001 0 -0.00159762 7.90668e-05 0 -1.37781e-07 0 4.42003e-11
141 3 0.001 0.0405334 0 -0.00161485 -0.000227367 0 -1.24547e-06 0 3.6655e-11
142 3 0.001 0.0411666 0 -0.0016321 -7.16793e-05 0 -4.83598e-06 0 2.13505e-11
143 3 0.001 0.0417997 0 -0.00164935 5.31562e-05 0 4.38386e-06 0 2.05353e-11
144 3 0.001 0.0424329 0 -0.00166661 0.000114588 0 1.02745e-05 0 2.81981e-11
145 3 0.001 0.0430661 0 -0.00168388 7.55061e-05 0 -1.85552e-06 0 3.78996e-11
146 3 0.001 0.0436993 0 -0.00170116 0.000127799 0 -1.11766e-05 0 5.03401e-11
147 3 0.001 0.0443326 0 -0.00171844 3.43574e-05 0 2.9702e-06 0 6.09932e-11
148 3 0.001 0.0449658 0 -0.00173574 -9.71068e-05 0 4.67092e-06 0 5.67833e-11
149 3 0.001 0.045599 0 -0.00175304 -6.19947e-05 0 -7.2587e-06 0 5.93547e-11
150 3 0.001 0.0462323 0 -0.00177034 -0.000165481 0 -3.29115e-07 0 9.37907e-10
2 2 0.001 0.0475 0 -0.001805 -0.000371085 0 2.25247e-05 0 8.3508e-10
151 3 0.001 0.0468662 0 -0.00178767 -0.000180976 0 5.51801e-06 0 1.7387e-09
1 1 0.001 -0.0475 0 0 -0.00413707 0 0.00150619 0 1.60362e-34
3 3 0.001 -0.0468667 0 0 0.00466464 0 -0.00152571 0 8.97181e-10
4 3 0.001 -0.0462326 0 -5.97782e-07 2.10462e-06 0 3.71429e-07 0 9.18903e-10
5 3 0.001 -0.0455991 0 -1.49013e-06 0.00010982 0 -3.20031e-06 0 3.85863e-11
6 3 0.001 -0.0449657 0 -2.674e-06 0.000283079 0 -1.03411e-05 0 5.19645e-11
7 3 0.001 -0.0443322 0 -4.14532e-06 -9.74538e-05 0 -1.16491e-06 0 6.31785e-11
8 3 0.001 -0.0436987 0 -5.89789e-06 -0.00013241 0 7.29567e-07 0 4.78699e-11
9 3 0.001 -0.0430653 0 -7.92541e-06 1.29868e-05 0 -3.31168e-06 0 4.03331e-11
10 3 0.001 -0.0424318 0 -1.02218e-05 -0.000165986 0 4.95313e-06 0 3.25568e-11
11 3 0.001 -0.0417984 0 -1.27802e-05 -0.000177469 0 5.14511e-06 0 1.74285e-11
12 3 0.001 -0.041165 0 -1.55948e-05 1.23012e-05 0 -4.08177e-06 0 1.12009e-11
13 3 0.001 -0.0405316 0 -1.86609e-05 9.53893e-05 0 -5.15768e-06 0 1.48995e-11
14 3 0.001 -0.0398982 0 -2.19727e-05 2.0502e-05 0 5.14616e-06 0 1.90348e-11
15 3 0.001 -0.0392648 0 -2.55236e-05 0.000165359 0 5.81741e-06 0 2.76605e-11
16 3 0.001 -0.0386314 0 -2.93084e-05 -1.02774e-05 0 1.13952e-06 0 3.49228e-11
17 3 0.001 -0.037998 0 -3.33227e-05 -1.2824e-05 0 5.03143e-06 0 3.36933e-11
18 3 0.001 -0.0373646 0 -3.75627e-05 8.11181e-05 0 4.02042e-06 0 3.7518e-11
19 3 0.001 -0.0367311 0 -4.20256e-05 -0.000132094 0 -2.50651e-06 0 3.49648e-11
20 3 0.001 -0.0360977 0 -4.67093e-05 -1.05961e-07 0 -4.44827e-06 0 2.79059e-11
21 3 0.001 -0.0354643 0 -5.16116e-05 0.000164051 0 -4.10398e-06 0 3.68833e-11
22 3 0.001 -0.0348309 0 -5.67292e-05 1.04009e-05 0 8.81978e-07 0 4.65081e-11
23 3 0.001 -0.0341974 0 -6.2058e-05 0.000234519 0 -2.09128e-06 0 6.4045e-11
24 3 0.001 -0.033564 0 -6.75948e-05 -0.000193029 0 5.34474e-06 0 6.67019e-11
25 3 0.001 -0.0329305 0 -7.33355e-05 -5.30198e-05 0 9.84433e-07 0 4.90941e-11
26 3 0.001 -0.0322971 0 -7.92772e-05 0.000138499 0 -3.50638e-06 0 5.50196e-11
27 3 0.001 -0.0316636 0 -8.54178e-05 -0.000228025 0 7.18495e-06 0 4.98511e-11
28 3 0.001 -0.0310302 0 -9.17535e-05 3.2781e-06 0 3.12777e-07 0 3.55623e-11
29 3 0.001 -0.0303968 0 -9.82828e-05 -8.47642e-05 0 -5.67354e-06 0 3.14368e-11
30 3 0.001 -0.0297634 0 -0.000105003 -4.2672e-05 0 3.4165e-06 0 2.51891e-11
31 3 0.001 -0.02913 0 -0.000111912 4.28228e-05 0 5.16414e-06 0 2.51912e-11
32 3 0.001 -0.0284967 0 -0.000119007 -3.92278e-05 0 -1.15587e-06 0 2.53468e-11
33 3 0.001 -0.0278633 0 -0.000126287 8.34267e-06 0 -3.45123e-06 0 2.39272e-11
34 3 0.001 -0.0272299 0 -0.000133749 9.18211e-05 0 5.88548e-07 0 2.87563e-11
35 3 0.001 -0.0265965 0 -0.000141392 -0.000123852 0 -2.90428e-06 0 2.73659e-11
36 3 0.001 -0.0259631 0 -0.000149212 0.000213915 0 -8.05254e-06 0 3.24226e-11
37 3 0.001 -0.0253297 0 -0.000157209 0.000142111 0 2.24713e-06 0 5.26518e-11
38 3 0.001 -0.0246963 0 -0.000165379 -0.000205702 0 9.60104e-06 0 4.90108e-11
39 3 0.001 -0.0240629 0 -0.000173716 -4.07345e-05 0 4.5107e-06 0 3.38896e-11
40 3 0.001 -0.0234295 0 -0.000182221 0.000105247 0 -4.10199e-06 0 3.75781e-11
41 3 0.001 -0.0227961 0 -0.000190892 -0.000134756 0 3.93167e-07 0 3.61069e-11
42 3 0.001 -0.0221628 0 -0.000199728 -0.000205783 0 8.26335e-06 0 2.05082e-11
43 3 0.001 -0.0215294 0 -0.000208728 9.79675e-05 0 -2.68025e-06 0 1.57313e-11
44 3 0.001 -0.0208961 0 -0.000217891 7.97509e-05 0 -1.16946e-05 0 2.26845e-11
45 3 0.001 -0.0202627 0 -0.000227217 0.000240119 0 -6.56656e-06 0 3.96589e-11
46 3 0.001 -0.0196293 0 -0.000236703 0.000237119 0 -5.20194e-06 0 7.12137e-11
47 3 0.001 -0.0189959 0 -0.000246347 5.20081e-05 0 6.79107e-07 0 9.38112e-11
48 3 0.001 -0.0183625 0 -0.000256144 0.000112689 0 7.36286e-06 0 1.09045e-10
49 3 0.001 -0.017729 0 -0.000266091 -2.57253e-05 0 2.71707e-06 0 1.17175e-10
50 3 0.001 -0.0170956 0 -0.000276186 -0.000136967 0 -4.42181e-06 0 1.02107e-10
51 3 0.001 -0.0164622 0 -0.000286429 0.000149156 0 -5.46479e-06 0 1.03316e-10
52 3 0.001 -0.0158287 0 -0.000296818 -7.15914e-05 0 3.99592e-06 0 1.10233e-10
53 3 0.001 -0.0151953 0 -0.00030735 -0.000289114 0 1.8875e-06 0 8.01555e-11
54 3 0.001 -0.0145619 0 -0.000318021 -4.36732e-05 0 -2.58953e-06 0 5.39957e-11
55 3 0.001 -0.0139285 0 -0.000328831 1.11565e-05 0 1.35694e-06 0 5.18137e-11
56 3 0.001 -0.0132952 0 -0.000339777 -4.33487e-05 0 6.08489e-06 0 4.97603e-11
57 3 0.001 -0.0126618 0 -0.000350854 -5.36904e-05 0 6.19694e-06 0 4.37513e-11
58 3 0.001 -0.0120284 0 -0.000362062 0.000108909 0 -2.07273e-06 0 4.73098e-11
59 3 0.001 -0.0113951 0 -0.000373399 -7.66602e-05 0 9.73536e-07 0 4.92184e-11
60 3 0.001 -0.0107617 0 -0.000384866 -9.34867e-05 0 -1.91826e-06 0 3.90505e-11
61 3 0.001 -0.0101284 0 -0.000396461 2.12213e-05 0 -6.27648e-06 0 3.49047e-11
62 3 0.001 -0.00949507 0 -0.000408183 7.96014e-05 0 3.60901e-06 0 4.06452e-11
63 3 0.001 -0.00886172 0 -0.000420029 0.000175376 0 7.62985e-06 0 5.72086e-11
64 3 0.001 -0.00822835 0 -0.000431998 8.64585e-05 0 -5.08136e-06 0 7.60211e-11
65 3 0.001 -0.00759497 0 -0.000444092 -0.000211767 0 -1.10474e-05 0 6.72274e-11
66 3 0.001 -0.00696162 0 -0.000456308 -0.000265016 0 -4.66106e-06 0 3.72058e-11
67 3 0.001 -0.00632832 0 -0.000468643 1.81144e-05 0 5.03907e-06 0 2.36184e-11
68 3 0.001 -0.00569502 0 -0.000481095 7.3986e-05 0 2.07782e-05 0 2.79375e-11
69 3 0.001 -0.00506171 0 -0.000493658 0.000455389 0 -5.94613e-07 0 6.32003e-11
70 3 0.001 -0.00442833 0 -0.000506335 7.5734e-05 0 -9.65236e-06 0 1.01893e-10
71 3 0.001 -0.00379493 0 -0.000519127 -0.000203399 0 -2.94596e-06 0 9.1289e-11
72 3 0.001 -0.00316157 0 -0.000532035 -0.000197951 0 -1.67878e-06 0 5.9917e-11
73 3 0.001 -0.00252825 0 -0.000545056 -0.000185284 0 9.88638e-07 0 3.60951e-11
74 3 0.001 -0.00189496 0 -0.00055819 0.000159437 0 -2.18266e-06 0 3.45319e-11
75 3 0.001 -0.00126165 0 -0.000571436 -0.000156433 0 7.74445e-06 0 3.46668e-11
76 3 0.001 -0.000628361 0 -0.00058479 -2.44107e-05 0 2.39921e-06 0 2.52419e-11
77 3 0.001 4.91802e-06 0 -0.000598253 2.89613e-05 0 -1.4211e-06 0 2.5454e-11
78 3 0.001 0.0006382 0 -0.000611822 7.49691e-05 0 -1.6824e-06 0 3.05373e-11
79 3 0.001 0.00127149 0 -0.000625498 5.29439e-05 0 3.59325e-07 0 3.72221e-11
80 3 0.001 0.00190479 0 -0.000639281 -0.000197608 0 4.52062e-06 0 3.03881e-11
81 3 0.001 0.00253805 0 -0.000653167 8.96456e-05 0 4.57909e-07 0 2.46511e-11
82 3 0.001 0.00317133 0 -0.000667158 8.64314e-05 0 -8.89423e-06 0 3.31977e-11
83 3 0.001 0.00380462 0 -0.000681255 0.00027429 0 -1.37312e-05 0 5.61364e-11
84 3 0.001 0.00443795 0 -0.000695455 5.33918e-05 0 4.64817e-06 0 7.88487e-11
85 3 0.001 0.00507129 0 -0.000709757 -0.000145413 0 4.56935e-06 0 7.19701e-11
86 3 0.001 0.0057046 0 -0.000724157 -0.000103218 0 -4.2729e-06 0 5.39367e-11
87 3 0.001 0.00633789 0 -0.000738654 -0.000286138 0 4.59883e-06 0 3.26228e-11
88 3 0.001 0.00697113 0 -0.000753244 4.30038e-05 0 3.34791e-06 0 1.99065e-11
89 3 0.001 0.00760438 0 -0.000767927 0.000172577 0 -2.7048e-06 0 3.01629e-11
90 3 0.001 0.00823765 0 -0.000782701 0.000215671 0 -1.00901e-05 0 5.27937e-11
91 3 0.001 0.00887096 0 -0.000797563 3.66568e-05 0 -4.51969e-06 0 6.96908e-11
92 3 0.001 0.00950427 0 -0.000812511 -0.000243159 0 -1.39071e-06 0 5.61218e-11
93 3 0.001 0.0101375 0 -0.000827539 -0.000129964 0 1.77404e-06 0 3.30215e-11
94 3 0.001 0.0107708 0 -0.000842643 0.000109122 0 8.26667e-06 0 3.18338e-11
95 3 0.001 0.0114041 0 -0.000857819 3.83673e-05 0 5.33868e-06 0 3.95756e-11
96 3 0.001 0.0120373 0 -0.000873063 1.26675e-05 0 4.45027e-06 0 4.25027e-11
97 3 0.001 0.0126706 0 -0.000888375 0.000108607 0 4.5856e-06 0 5.02081e-11
98 3 0.001 0.0133039 0 -0.000903752 -2.33406e-05 0 2.09733e-06 0 5.55866e-11
99 3 0.001 0.0139371 0 -0.000919196 -2.69033e-05 0 -7.48389e-06 0 5.22502e-11
