ITEM: TIMESTEP
5400000
ITEM: NUMBER OF ATOMS
151
ITEM: BOX BOUNDS ff ff ff
-5.5000000000000000e-02 5.5000000000000000e-02
-6.0000000000000001e-03 6.0000000000000001e-03
-2.5000000000000001e-02 2.5000000000000001e-02
ITEM: ATOMS id type radius x y z fx fy fz c_bendingE c_stretchingE
122 3 0.001 0.0300074 0 -0.00414205 1.72947e-09 0 2.7377e-08 0 3.07323e-09
123 3 0.001 0.0306738 0 -0.00418391 -5.5994e-10 0 -7.6726e-09 0 3.07323e-09
124 3 0.001 0.0313401 0 -0.00422578 -3.44285e-10 0 -6.58171e-09 0 3.07323e-09
125 3 0.001 0.0320065 0 -0.00426766 8.95538e-10 0 1.57062e-08 0 3.07323e-09
126 3 0.001 0.0326729 0 -0.00430955 -1.04592e-09 0 -1.6517e-08 0 3.07323e-09
127 3 0.001 0.0333393 0 -0.00435144 1.2926e-10 0 6.11322e-09 0 3.07323e-09
128 3 0.001 0.0340057 0 -0.00439334 4.25992e-10 0 5.39761e-09 0 3.07323e-09
129 3 0.001 0.0346721 0 -0.00443524 -3.4658e-10 0 -1.04749e-08 0 3.07323e-09
130 3 0.001 0.0353384 0 -0.00447715 1.09949e-09 0 1.49049e-08 0 3.07323e-09
131 3 0.001 0.0360048 0 -0.00451906 -9.82367e-10 0 -1.45017e-08 0 3.07323e-09
132 3 0.001 0.0366712 0 -0.00456098 -4.30321e-10 0 -1.74996e-10 0 3.07323e-09
133 3 0.001 0.0373376 0 -0.0046029 1.02705e-09 0 1.35113e-08 0 3.07323e-09
134 3 0.001 0.038004 0 -0.00464483 -7.85625e-10 0 -1.45778e-08 0 3.07323e-09
135 3 0.001 0.0386704 0 -0.00468676 1.22988e-09 0 1.98228e-08 0 3.07323e-09
136 3 0.001 0.0393367 0 -0.00472869 -1.99816e-09 0 -2.9765e-08 0 3.07323e-09
137 3 0.001 0.0400031 0 -0.00477063 1.31998e-09 0 2.44813e-08 0 3.07323e-09
138 3 0.001 0.0406695 0 -0.00481257 -3.3765e-10 0 -1.10849e-08 0 3.07323e-09
139 3 0.001 0.0413359 0 -0.00485451 5.5344e-10 0 7.45357e-09 0 3.07323e-09
140 3 0.001 0.0420023 0 -0.00489645 -6.49478e-10 0 -5.60778e-09 0 3.07323e-09
141 3 0.001 0.0426686 0 -0.0049384 -1.80847e-10 0 -3.27784e-09 0 3.07323e-09
142 3 0.001 0.043335 0 -0.00498035 8.40316e-10 0 1.24304e-08 0 3.07323e-09
143 3 0.001 0.0440014 0 -0.0050223 -1.09406e-09 0 -1.76452e-08 0 3.07323e-09
144 3 0.001 0.0446678 0 -0.00506426 1.44409e-09 0 2.13725e-08 0 3.07323e-09
145 3 0.001 0.0453342 0 -0.00510621 -1.44196e-09 0 -1.85169e-08 0 3.07323e-09
146 3 0.001 0.0460005 0 -0.00514817 4.7559e-10 0 5.30614e-09 0 3.07323e-09
147 3 0.001 0.0466669 0 -0.00519013 5.81451e-10 0 3.70142e-09 0 3.07323e-09
148 3 0.001 0.0473333 0 -0.00523208 -2.51816e-10 0 -7.42189e-10 0 3.07323e-09
149 3 0.001 0.0479997 0 -0.00527404 -1.26512e-10 0 -1.40651e-09 0 3.07323e-09
150 3 0.001 0.0486661 0 -0.005316 -1.10918e-10 0 4.24374e-10 0 5.32813e-09
2 2 0.001 0.05 0 -0.0054 -0.00593828 0 0.000374764 0 3.79152e-09
151 3 0.001 0.049333 0 -0.005358 -1.77483e-10 0 -1.7924e-09 0 7.58304e-09
83 3 0.001 0.00401757 0 -0.00252134 -1.13776e-09 0 -1.65933e-08 0 3.07321e-09
84 3 0.001 0.004684 0 -0.00256237 -2.18025e-10 0 -2.58225e-09 0 3.07322e-09
85 3 0.001 0.00535044 0 -0.00260345 8.79167e-10 0 9.59722e-09 0 3.07322e-09
86 3 0.001 0.00601687 0 -0.00264456 -5.91006e-10 0 -7.96642e-09 0 3.07322e-09
87 3 0.001 0.0066833 0 -0.00268572 3.1847e-10 0 4.12985e-09 0 3.07322e-09
88 3 0.001 0.00734973 0 -0.00272692 4.67455e-11 0 2.36204e-09 0 3.07322e-09
89 3 0.001 0.00801615 0 -0.00276816 -3.94764e-10 0 -3.07841e-09 0 3.07322e-09
90 3 0.001 0.00868258 0 -0.00280943 1.09545e-10 0 -1.67854e-09 0 3.07322e-09
91 3 0.001 0.009349 0 -0.00285074 3.31399e-10 0 5.97224e-09 0 3.07322e-09
92 3 0.001 0.0100154 0 -0.00289208 -4.99006e-10 0 -8.91006e-09 0 3.07322e-09
93 3 0.001 0.0106818 0 -0.00293345 2.6371e-11 0 1.44894e-09 0 3.07322e-09
94 3 0.001 0.0113482 0 -0.00297485 1.05805e-09 0 1.74445e-08 0 3.07322e-09
95 3 0.001 0.0120147 0 -0.00301628 -1.48682e-09 0 -2.82089e-08 0 3.07322e-09
96 3 0.001 0.0126811 0 -0.00305774 1.18532e-09 0 1.91958e-08 0 3.07322e-09
97 3 0.001 0.0133475 0 -0.00309922 -4.0219e-10 0 -2.80285e-09 0 3.07322e-09
98 3 0.001 0.0140139 0 -0.00314072 -7.48304e-11 0 -3.88537e-09 0 3.07322e-09
99 3 0.001 0.0146803 0 -0.00318226 8.01493e-12 0 2.29564e-09 0 3.07322e-09
100 3 0.001 0.0153467 0 -0.00322381 -3.64447e-10 0 -5.50327e-09 0 3.07322e-09
101 3 0.001 0.0160131 0 -0.00326538 6.33252e-10 0 8.04689e-09 0 3.07322e-09
102 3 0.001 0.0166795 0 -0.00330698 -4.59976e-10 0 -1.38904e-09 0 3.07322e-09
103 3 0.001 0.0173459 0 -0.00334859 1.14851e-10 0 -6.92655e-11 0 3.07322e-09
104 3 0.001 0.0180123 0 -0.00339023 -1.68651e-10 0 -5.8204e-09 0 3.07322e-09
105 3 0.001 0.0186787 0 -0.00343188 4.60386e-10 0 6.9451e-09 0 3.07322e-09
106 3 0.001 0.0193451 0 -0.00347355 -5.27647e-10 0 -9.06361e-09 0 3.07322e-09
107 3 0.001 0.0200115 0 -0.00351524 7.6093e-10 0 1.43118e-08 0 3.07322e-09
108 3 0.001 0.0206779 0 -0.00355694 -6.45098e-10 0 -9.96415e-09 0 3.07322e-09
109 3 0.001 0.0213443 0 -0.00359865 -2.40789e-10 0 -3.38931e-09 0 3.07322e-09
110 3 0.001 0.0220107 0 -0.00364038 6.71961e-10 0 6.97899e-09 0 3.07322e-09
111 3 0.001 0.0226771 0 -0.00368213 -2.39768e-12 0 2.37415e-09 0 3.07322e-09
112 3 0.001 0.0233435 0 -0.00372388 -3.85431e-10 0 -4.73773e-09 0 3.07322e-09
113 3 0.001 0.0240099 0 -0.00376565 -5.09973e-11 0 -4.39433e-09 0 3.07322e-09
114 3 0.001 0.0246763 0 -0.00380743 3.24584e-10 0 8.80174e-09 0 3.07322e-09
115 3 0.001 0.0253427 0 -0.00384923 -7.22264e-11 0 -5.06192e-10 0 3.07322e-09
116 3 0.001 0.026009 0 -0.00389103 -4.6354e-10 0 -1.01141e-08 0 3.07322e-09
117 3 0.001 0.0266754 0 -0.00393284 7.91815e-10 0 1.36597e-08 0 3.07322e-09
118 3 0.001 0.0273418 0 -0.00397467 -9.79077e-10 0 -1.62441e-08 0 3.07323e-09
119 3 0.001 0.0280082 0 -0.0040165 1.02033e-09 0 1.52588e-08 0 3.07323e-09
120 3 0.001 0.0286746 0 -0.00405834 1.69746e-10 0 5.40526e-09 0 3.07323e-09
121 3 0.001 0.029341 0 -0.00410019 -1.7351e-09 0 -3.03247e-08 0 3.07323e-09
40 3 0.001 -0.0246448 0 -0.000851465 -7.40126e-10 0 -1.23561e-08 0 3.07285e-09
41 3 0.001 -0.023978 0 -0.000886364 5.72332e-10 0 7.18446e-09 0 3.07288e-09
44 3 0.001 -0.0219778 0 -0.000992909 -3.54838e-10 0 -1.09516e-08 0 3.07296e-09
42 3 0.001 -0.0233113 0 -0.00092158 -3.32158e-10 0 -8.36776e-09 0 3.07291e-09
43 3 0.001 -0.0226445 0 -0.000957099 4.87799e-10 0 1.27228e-08 0 3.07294e-09
45 3 0.001 -0.021311 0 -0.001029 7.78416e-12 0 7.09631e-10 0 3.07299e-09
46 3 0.001 -0.0206443 0 -0.00106535 4.3026e-10 0 9.00662e-09 0 3.07301e-09
48 3 0.001 -0.019311 0 -0.0011388 -1.99019e-10 0 -2.5996e-09 0 3.07304e-09
47 3 0.001 -0.0199776 0 -0.00110195 -3.33393e-10 0 -5.74932e-09 0 3.07302e-09
49 3 0.001 -0.0186443 0 -0.00117588 1.60897e-10 0 2.37271e-09 0 3.07306e-09
50 3 0.001 -0.0179776 0 -0.00121317 -4.61731e-10 0 -6.90469e-09 0 3.07307e-09
51 3 0.001 -0.017311 0 -0.00125068 1.06e-09 0 2.31107e-08 0 3.07308e-09
52 3 0.001 -0.0166444 0 -0.00128839 -1.24402e-09 0 -2.6026e-08 0 3.0731e-09
53 3 0.001 -0.0159777 0 -0.0013263 7.88091e-10 0 9.68838e-09 0 3.07311e-09
54 3 0.001 -0.0153111 0 -0.00136438 1.56e-10 0 3.59231e-09 0 3.07312e-09
55 3 0.001 -0.0146445 0 -0.00140265 -1.77765e-11 0 -2.11334e-09 0 3.07313e-09
56 3 0.001 -0.0139779 0 -0.00144108 -2.47116e-10 0 -5.77835e-10 0 3.07313e-09
57 3 0.001 -0.0133113 0 -0.00147967 -1.3861e-10 0 -3.25466e-09 0 3.07314e-09
58 3 0.001 -0.0126448 0 -0.00151841 8.48227e-11 0 -3.27355e-11 0 3.07315e-09
59 3 0.001 -0.0119782 0 -0.00155731 -4.30712e-10 0 -4.12822e-09 0 3.07316e-09
60 3 0.001 -0.0113116 0 -0.00159634 1.5888e-09 0 2.65871e-08 0 3.07316e-09
61 3 0.001 -0.0106451 0 -0.0016355 -1.91058e-09 0 -3.53862e-08 0 3.07317e-09
62 3 0.001 -0.00997855 0 -0.0016748 1.39765e-09 0 2.10223e-08 0 3.07317e-09
63 3 0.001 -0.00931201 0 -0.00171421 -4.32656e-10 0 -2.22762e-09 0 3.07318e-09
64 3 0.001 -0.00864548 0 -0.00175374 -5.3088e-10 0 -7.01532e-09 0 3.07318e-09
65 3 0.001 -0.00797896 0 -0.00179339 4.94748e-10 0 9.15159e-09 0 3.07318e-09
66 3 0.001 -0.00731244 0 -0.00183314 -9.60913e-10 0 -1.69794e-08 0 3.07319e-09
69 3 0.001 -0.00531293 0 -0.00195298 5.21891e-10 0 6.97358e-09 0 3.07319e-09
67 3 0.001 -0.00664594 0 -0.00187299 1.54592e-09 0 2.14122e-08 0 3.07319e-09
68 3 0.001 -0.00597943 0 -0.00191294 -1.21061e-09 0 -1.56092e-08 0 3.07319e-09
70 3 0.001 -0.00464644 0 -0.00199312 5.26694e-10 0 4.8189e-09 0 3.0732e-09
71 3 0.001 -0.00397995 0 -0.00203333 -7.58571e-10 0 -1.00767e-08 0 3.0732e-09
72 3 0.001 -0.00331347 0 -0.00207363 3.25751e-10 0 5.23084e-09 0 3.0732e-09
73 3 0.001 -0.00264699 0 -0.00211401 -3.13043e-10 0 -5.39668e-09 0 3.0732e-09
74 3 0.001 -0.00198052 0 -0.00215446 3.52045e-10 0 8.86076e-09 0 3.0732e-09
75 3 0.001 -0.00131405 0 -0.00219498 -1.80455e-10 0 -6.29616e-09 0 3.07321e-09
76 3 0.001 -0.000647587 0 -0.00223556 3.71205e-11 0 7.71418e-10 0 3.07321e-09
77 3 0.001 1.88742e-05 0 -0.00227622 1.32428e-10 0 5.05422e-09 0 3.07321e-09
78 3 0.001 0.000685331 0 -0.00231693 -5.4917e-10 0 -1.14271e-08 0 3.07321e-09
79 3 0.001 0.00135178 0 -0.0023577 9.57723e-10 0 1.63325e-08 0 3.07321e-09
80 3 0.001 0.00201824 0 -0.00239853 -5.4882e-10 0 -1.04964e-08 0 3.07321e-09
81 3 0.001 0.00268468 0 -0.00243942 -6.28022e-10 0 -1.01572e-08 0 3.07321e-09
82 3 0.001 0.00335113 0 -0.00248035 1.49449e-09 0 2.55317e-08 0 3.07321e-09
1 1 0.001 -0.05 0 0 -0.00340887 0 0.00772463 0 1.14427e-32
3 3 0.001 -0.0493333 0 0 0.00934715 0 -0.00809926 0 3.79363e-09
4 3 0.001 -0.0486651 0 -3.58068e-06 -2.84836e-11 0 1.93022e-08 0 5.32558e-09
5 3 0.001 -0.0479974 0 -8.86937e-06 -1.83007e-10 0 -1.35805e-08 0 3.06431e-09
6 3 0.001 -0.0473297 0 -1.57931e-05 2.26838e-10 0 -3.69833e-09 0 3.06508e-09
7 3 0.001 -0.0466621 0 -2.42793e-05 2.49447e-10 0 1.06754e-08 0 3.06579e-09
8 3 0.001 -0.0459944 0 -3.42583e-05 -2.40919e-10 0 5.7966e-09 0 3.06644e-09
9 3 0.001 -0.0453268 0 -4.56638e-05 -3.42791e-10 0 -2.07578e-08 0 3.06702e-09
10 3 0.001 -0.0446593 0 -5.84322e-05 2.56634e-10 0 1.03013e-08 0 3.06756e-09
11 3 0.001 -0.0439917 0 -7.25031e-05 3.6349e-10 0 4.14273e-09 0 3.06805e-09
12 3 0.001 -0.0433242 0 -8.78183e-05 -2.01303e-10 0 -8.66826e-09 0 3.0685e-09
13 3 0.001 -0.0426567 0 -0.000104323 -1.22315e-10 0 1.04838e-08 0 3.06891e-09
14 3 0.001 -0.0419892 0 -0.000121963 -9.76523e-11 0 -6.88243e-09 0 3.06929e-09
15 3 0.001 -0.0413218 0 -0.000140689 1.75818e-10 0 4.15601e-09 0 3.06963e-09
16 3 0.001 -0.0406544 0 -0.000160452 -3.17593e-10 0 -1.08114e-08 0 3.06994e-09
17 3 0.001 -0.039987 0 -0.000181207 2.22054e-10 0 1.07705e-08 0 3.07023e-09
18 3 0.001 -0.0393197 0 -0.000202908 2.28309e-10 0 2.54019e-09 0 3.07049e-09
19 3 0.001 -0.0386524 0 -0.000225515 -1.99201e-10 0 -9.76255e-09 0 3.07072e-09
20 3 0.001 -0.0379851 0 -0.000248985 1.10965e-10 0 7.54156e-09 0 3.07094e-09
21 3 0.001 -0.0373178 0 -0.000273282 -2.00368e-10 0 -9.39651e-09 0 3.07114e-09
22 3 0.001 -0.0366506 0 -0.000298369 3.62301e-10 0 1.30123e-08 0 3.07132e-09
23 3 0.001 -0.0359834 0 -0.000324209 -4.59641e-10 0 -1.40291e-08 0 3.07149e-09
24 3 0.001 -0.0353162 0 -0.000350771 8.32014e-10 0 1.81154e-08 0 3.07164e-09
25 3 0.001 -0.0346491 0 -0.000378021 -9.44542e-10 0 -1.35724e-08 0 3.07177e-09
26 3 0.001 -0.033982 0 -0.000405928 -1.35088e-10 0 -2.15318e-09 0 3.0719e-09
27 3 0.001 -0.0333149 0 -0.000434465 5.91016e-10 0 7.13494e-09 0 3.07201e-09
28 3 0.001 -0.0326478 0 -0.000463602 -5.04081e-10 0 -9.8093e-09 0 3.07212e-09
29 3 0.001 -0.0319808 0 -0.000493313 7.84711e-10 0 1.63601e-08 0 3.07221e-09
30 3 0.001 -0.0313137 0 -0.000523573 -5.02077e-10 0 -9.21714e-09 0 3.0723e-09
31 3 0.001 -0.0306468 0 -0.000554356 3.09769e-11 0 2.53832e-09 0 3.07238e-09
32 3 0.001 -0.0299798 0 -0.000585641 7.19936e-12 0 -6.07794e-09 0 3.07245e-09
33 3 0.001 -0.0293128 0 -0.000617403 3.32093e-10 0 1.04139e-08 0 3.07252e-09
34 3 0.001 -0.0286459 0 -0.000649623 -9.36416e-10 0 -1.84237e-08 0 3.07258e-09
35 3 0.001 -0.027979 0 -0.00068228 8.94597e-10 0 1.59231e-08 0 3.07264e-09
36 3 0.001 -0.0273121 0 -0.000715354 4.14535e-10 0 5.43111e-09 0 3.07269e-09
37 3 0.001 -0.0266453 0 -0.000748827 -9.32531e-10 0 -2.08339e-08 0 3.07273e-09
38 3 0.001 -0.0259784 0 -0.000782681 2.96491e-10 0 1.25583e-08 0 3.07278e-09
39 3 0.001 -0.0253116 0 -0.000816899 2.34438e-10 0 6.70052e-09 0 3.07282e-09
