ITEM: TIMESTEP
5900000
ITEM: NUMBER OF ATOMS
151
ITEM: BOX BOUNDS ff ff ff
-5.5000000000000000e-02 5.5000000000000000e-02
-6.0000000000000001e-03 6.0000000000000001e-03
-2.5000000000000001e-02 2.5000000000000001e-02
ITEM: ATOMS id type radius x y z fx fy fz c_bendingE c_stretchingE
148 3 0.001 0.0473334 0 -0.00571893 -2.41231e-09 0 -2.52858e-08 0 4.34949e-09
149 3 0.001 0.0479997 0 -0.00576418 2.82144e-09 0 3.39059e-08 0 4.34949e-09
150 3 0.001 0.0486661 0 -0.00580943 -1.73616e-09 0 -3.31315e-08 0 6.93437e-09
2 2 0.001 0.05 0 -0.0059 -0.00706227 0 0.000480128 0 4.75963e-09
151 3 0.001 0.0493331 0 -0.00585471 2.09392e-09 0 1.72657e-08 0 9.51925e-09
112 3 0.001 0.0233443 0 -0.00409173 -9.72359e-10 0 -1.3578e-08 0 4.34948e-09
113 3 0.001 0.0240106 0 -0.00413684 1.83757e-09 0 1.7572e-08 0 4.34949e-09
114 3 0.001 0.024677 0 -0.00418195 -1.43664e-09 0 -1.99135e-08 0 4.34949e-09
115 3 0.001 0.0253434 0 -0.00422708 6.72292e-10 0 1.06001e-08 0 4.34949e-09
116 3 0.001 0.0260097 0 -0.00427221 -7.73868e-10 0 -1.24542e-08 0 4.34949e-09
117 3 0.001 0.0266761 0 -0.00431736 1.86409e-09 0 2.58019e-08 0 4.34949e-09
118 3 0.001 0.0273425 0 -0.0043625 -1.28092e-09 0 -1.96154e-08 0 4.34949e-09
119 3 0.001 0.0280088 0 -0.00440766 -5.13042e-10 0 -7.17635e-09 0 4.34949e-09
120 3 0.001 0.0286752 0 -0.00445282 1.23431e-09 0 1.98722e-08 0 4.34949e-09
121 3 0.001 0.0293416 0 -0.00449799 1.16982e-10 0 -5.4917e-10 0 4.34949e-09
122 3 0.001 0.0300079 0 -0.00454316 -1.57854e-09 0 -1.35689e-08 0 4.34949e-09
123 3 0.001 0.0306743 0 -0.00458834 -1.03555e-09 0 -8.40783e-09 0 4.34949e-09
124 3 0.001 0.0313407 0 -0.00463353 2.84536e-09 0 3.47931e-08 0 4.34949e-09
125 3 0.001 0.032007 0 -0.00467872 -1.28609e-09 0 -2.60871e-08 0 4.34949e-09
126 3 0.001 0.0326734 0 -0.00472391 7.96414e-10 0 -4.0772e-09 0 4.34949e-09
127 3 0.001 0.0333398 0 -0.00476911 1.22761e-09 0 2.24292e-08 0 4.34949e-09
128 3 0.001 0.0340061 0 -0.00481431 -2.01803e-09 0 -2.02365e-08 0 4.34949e-09
129 3 0.001 0.0346725 0 -0.00485952 -2.49111e-10 0 7.70754e-09 0 4.34949e-09
130 3 0.001 0.0353389 0 -0.00490473 -5.46875e-10 0 1.52734e-10 0 4.34949e-09
131 3 0.001 0.0360052 0 -0.00494994 -8.68346e-12 0 -1.30715e-08 0 4.34949e-09
132 3 0.001 0.0366716 0 -0.00499516 2.71956e-09 0 3.44238e-08 0 4.34949e-09
133 3 0.001 0.037338 0 -0.00504038 -2.0338e-09 0 -3.76465e-08 0 4.34949e-09
134 3 0.001 0.0380043 0 -0.0050856 1.854e-09 0 2.83343e-08 0 4.34949e-09
135 3 0.001 0.0386707 0 -0.00513083 -2.02378e-09 0 -2.56878e-08 0 4.34949e-09
136 3 0.001 0.039337 0 -0.00517606 1.12195e-09 0 2.17937e-08 0 4.34949e-09
137 3 0.001 0.0400034 0 -0.00522129 -1.41976e-09 0 -1.39568e-08 0 4.34949e-09
138 3 0.001 0.0406698 0 -0.00526652 6.48254e-10 0 3.86918e-09 0 4.34949e-09
139 3 0.001 0.0413361 0 -0.00531175 1.09141e-09 0 1.21474e-08 0 4.34949e-09
140 3 0.001 0.0420025 0 -0.00535699 -1.52089e-09 0 -2.01157e-08 0 4.34949e-09
141 3 0.001 0.0426688 0 -0.00540223 2.84749e-10 0 7.30049e-09 0 4.34949e-09
142 3 0.001 0.0433352 0 -0.00544747 7.88397e-10 0 8.89986e-09 0 4.34949e-09
143 3 0.001 0.0440016 0 -0.00549271 -1.08728e-09 0 -2.04867e-08 0 4.34949e-09
144 3 0.001 0.0446679 0 -0.00553795 2.64761e-09 0 3.58079e-08 0 4.34949e-09
145 3 0.001 0.0453343 0 -0.0055832 -2.876e-09 0 -3.64641e-08 0 4.34949e-09
146 3 0.001 0.0460007 0 -0.00562844 6.96638e-10 0 1.23229e-08 0 4.34949e-09
147 3 0.001 0.046667 0 -0.00567369 6.01608e-10 0 1.23958e-08 0 4.34949e-09
76 3 0.001 -0.000645902 0 -0.00248007 1.81916e-09 0 2.52894e-08 0 4.34947e-09
77 3 0.001 2.053e-05 0 -0.00252427 -1.29118e-09 0 -1.56209e-08 0 4.34947e-09
78 3 0.001 0.000686958 0 -0.00256851 -1.05295e-10 0 6.16618e-10 0 4.34947e-09
79 3 0.001 0.00135338 0 -0.00261281 -3.00348e-10 0 6.67768e-09 0 4.34947e-09
80 3 0.001 0.0020198 0 -0.00265716 -5.60748e-10 0 -8.87057e-09 0 4.34947e-09
81 3 0.001 0.00268622 0 -0.00270155 8.88923e-10 0 1.25583e-08 0 4.34947e-09
82 3 0.001 0.00335264 0 -0.00274599 -7.88688e-10 0 -2.04915e-08 0 4.34948e-09
83 3 0.001 0.00401905 0 -0.00279046 3.15572e-09 0 3.5346e-08 0 4.34948e-09
84 3 0.001 0.00468546 0 -0.00283498 -2.31418e-09 0 -2.87744e-08 0 4.34948e-09
85 3 0.001 0.00535187 0 -0.00287953 -2.5405e-10 0 -1.69274e-09 0 4.34948e-09
86 3 0.001 0.00601828 0 -0.00292412 -2.07939e-10 0 1.09103e-08 0 4.34948e-09
87 3 0.001 0.00668468 0 -0.00296875 -6.73914e-10 0 -8.23535e-09 0 4.34948e-09
88 3 0.001 0.00735108 0 -0.00301341 1.62578e-09 0 1.94312e-08 0 4.34948e-09
89 3 0.001 0.00801748 0 -0.00305809 -1.10517e-09 0 -2.10711e-08 0 4.34948e-09
90 3 0.001 0.00868388 0 -0.00310281 1.09991e-09 0 7.59229e-09 0 4.34948e-09
91 3 0.001 0.00935027 0 -0.00314755 2.58982e-10 0 4.75769e-09 0 4.34948e-09
92 3 0.001 0.0100167 0 -0.00319232 -7.77788e-10 0 -9.1618e-09 0 4.34948e-09
93 3 0.001 0.0106831 0 -0.00323712 -1.73719e-10 0 2.67121e-10 0 4.34948e-09
94 3 0.001 0.0113494 0 -0.00328194 9.63123e-10 0 1.63048e-08 0 4.34948e-09
95 3 0.001 0.0120158 0 -0.00332679 -1.81673e-09 0 -2.5924e-08 0 4.34948e-09
96 3 0.001 0.0126822 0 -0.00337165 1.05001e-09 0 1.48807e-08 0 4.34948e-09
97 3 0.001 0.0133486 0 -0.00341654 1.37028e-10 0 5.89513e-09 0 4.34948e-09
98 3 0.001 0.014015 0 -0.00346144 -6.3278e-10 0 -9.88161e-09 0 4.34948e-09
99 3 0.001 0.0146814 0 -0.00350637 4.86392e-10 0 4.89385e-09 0 4.34948e-09
100 3 0.001 0.0153478 0 -0.00355131 -3.67773e-10 0 -1.19789e-08 0 4.34948e-09
101 3 0.001 0.0160141 0 -0.00359627 1.75085e-09 0 1.75353e-08 0 4.34948e-09
102 3 0.001 0.0166805 0 -0.00364124 -1.87354e-10 0 5.9069e-09 0 4.34948e-09
103 3 0.001 0.0173469 0 -0.00368623 -2.73416e-09 0 -3.55314e-08 0 4.34948e-09
104 3 0.001 0.0180133 0 -0.00373124 1.20935e-09 0 2.73784e-08 0 4.34948e-09
105 3 0.001 0.0186796 0 -0.00377626 -2.01443e-10 0 4.2121e-11 0 4.34948e-09
106 3 0.001 0.019346 0 -0.00382129 -4.55889e-10 0 -1.25294e-08 0 4.34948e-09
107 3 0.001 0.0200124 0 -0.00386634 1.30963e-09 0 1.2296e-08 0 4.34948e-09
108 3 0.001 0.0206788 0 -0.00391139 1.16234e-09 0 2.86366e-09 0 4.34949e-09
109 3 0.001 0.0213451 0 -0.00395646 -2.15159e-09 0 -2.51602e-08 0 4.34949e-09
110 3 0.001 0.0220115 0 -0.00400154 9.4324e-10 0 1.9891e-08 0 4.34949e-09
111 3 0.001 0.0226779 0 -0.00404663 -2.64502e-10 0 4.48763e-09 0 4.34949e-09
37 3 0.001 -0.0266425 0 -0.000848058 6.55229e-10 0 6.15656e-09 0 4.34888e-09
38 3 0.001 -0.0259757 0 -0.000885747 -1.18425e-09 0 -1.63996e-08 0 4.34894e-09
39 3 0.001 -0.0253089 0 -0.000923804 1.3188e-09 0 7.48765e-09 0 4.34899e-09
40 3 0.001 -0.0246421 0 -0.000962211 1.02003e-09 0 1.048e-08 0 4.34904e-09
41 3 0.001 -0.0239753 0 -0.00100095 -1.67989e-10 0 -2.62357e-09 0 4.34908e-09
44 3 0.001 -0.0219751 0 -0.00111902 3.34305e-10 0 -4.18646e-10 0 4.34918e-09
42 3 0.001 -0.0233086 0 -0.00104001 -1.7176e-09 0 -1.89319e-08 0 4.34912e-09
43 3 0.001 -0.0226419 0 -0.00107937 4.22618e-10 0 2.08032e-08 0 4.34915e-09
45 3 0.001 -0.0213084 0 -0.00115894 -1.27044e-09 0 -2.32839e-08 0 4.34921e-09
46 3 0.001 -0.0206418 0 -0.00119912 1.51159e-09 0 2.47284e-08 0 4.34924e-09
48 3 0.001 -0.0193084 0 -0.00128021 -8.60565e-10 0 -1.40274e-08 0 4.34928e-09
47 3 0.001 -0.0199751 0 -0.00123954 -3.50767e-10 0 -5.48474e-09 0 4.34926e-09
49 3 0.001 -0.0186418 0 -0.0013211 1.9053e-09 0 2.73806e-08 0 4.3493e-09
50 3 0.001 -0.0179752 0 -0.0013622 -1.48083e-09 0 -2.785e-08 0 4.34932e-09
51 3 0.001 -0.0173085 0 -0.0014035 8.31433e-10 0 1.44597e-08 0 4.34933e-09
52 3 0.001 -0.0166419 0 -0.001445 3.44205e-10 0 5.55913e-09 0 4.34935e-09
53 3 0.001 -0.0159753 0 -0.00148668 -1.90281e-09 0 -2.49768e-08 0 4.34936e-09
54 3 0.001 -0.0153088 0 -0.00152853 1.54741e-09 0 3.14761e-08 0 4.34937e-09
55 3 0.001 -0.0146422 0 -0.00157055 -8.71684e-10 0 -1.67252e-08 0 4.34938e-09
56 3 0.001 -0.0139756 0 -0.00161273 -1.16336e-10 0 -1.06041e-09 0 4.34939e-09
57 3 0.001 -0.0133091 0 -0.00165506 9.86695e-10 0 -3.69951e-10 0 4.3494e-09
58 3 0.001 -0.0126425 0 -0.00169754 6.82197e-10 0 4.01453e-09 0 4.34941e-09
59 3 0.001 -0.011976 0 -0.00174015 -8.08835e-10 0 -4.20526e-09 0 4.34941e-09
60 3 0.001 -0.0113095 0 -0.00178289 4.57154e-10 0 1.4496e-08 0 4.34942e-09
61 3 0.001 -0.0106429 0 -0.00182575 -1.50258e-09 0 -1.00406e-08 0 4.34943e-09
62 3 0.001 -0.00997643 0 -0.00186873 -5.11948e-10 0 -1.32772e-08 0 4.34943e-09
63 3 0.001 -0.00930993 0 -0.00191182 1.54832e-09 0 2.23617e-08 0 4.34944e-09
64 3 0.001 -0.00864343 0 -0.00195502 -1.07011e-09 0 -2.53127e-08 0 4.34944e-09
65 3 0.001 -0.00797694 0 -0.00199832 3.10451e-09 0 3.88273e-08 0 4.34944e-09
66 3 0.001 -0.00731046 0 -0.00204172 -3.04586e-09 0 -4.40267e-08 0 4.34945e-09
69 3 0.001 -0.00531104 0 -0.00217244 -2.51565e-09 0 -3.87997e-08 0 4.34946e-09
67 3 0.001 -0.00664398 0 -0.00208521 1.1547e-09 0 2.2697e-08 0 4.34945e-09
68 3 0.001 -0.00597751 0 -0.00212878 6.0012e-10 0 1.88689e-08 0 4.34945e-09
70 3 0.001 -0.00464458 0 -0.00221618 1.21139e-09 0 1.57253e-08 0 4.34946e-09
71 3 0.001 -0.00397812 0 -0.00226 5.66661e-10 0 7.92496e-09 0 4.34946e-09
72 3 0.001 -0.00331167 0 -0.00230388 -7.11777e-10 0 -1.13347e-08 0 4.34946e-09
73 3 0.001 -0.00264522 0 -0.00234783 6.59811e-10 0 7.50073e-09 0 4.34946e-09
74 3 0.001 -0.00197878 0 -0.00239185 4.15814e-10 0 5.97665e-09 0 4.34947e-09
75 3 0.001 -0.00131234 0 -0.00243593 -1.08112e-09 0 -2.16559e-08 0 4.34947e-09
1 1 0.001 -0.05 0 0 -0.00340738 0 0.00902361 0 1.14427e-32
3 3 0.001 -0.0493333 0 0 0.0104696 0 -0.00950359 0 4.76014e-09
4 3 0.001 -0.0486649 0 -4.18403e-06 -2.4497e-10 0 1.39388e-08 0 6.92741e-09
5 3 0.001 -0.047997 0 -1.03556e-05 -6.11161e-10 0 -3.21744e-08 0 4.33525e-09
6 3 0.001 -0.0473292 0 -1.8422e-05 8.00344e-10 0 3.50502e-08 0 4.3366e-09
7 3 0.001 -0.0466613 0 -2.82916e-05 2.90544e-10 0 -1.63116e-08 0 4.33781e-09
8 3 0.001 -0.0459935 0 -3.98769e-05 -1.43362e-10 0 -7.39361e-09 0 4.33891e-09
9 3 0.001 -0.0453258 0 -5.30949e-05 3.38858e-10 0 1.69338e-08 0 4.33991e-09
10 3 0.001 -0.044658 0 -6.78666e-05 -1.05569e-09 0 -6.48319e-09 0 4.34081e-09
11 3 0.001 -0.0439903 0 -8.41166e-05 -3.80837e-10 0 -6.60924e-09 0 4.34163e-09
12 3 0.001 -0.0433227 0 -0.000101773 1.93858e-10 0 5.08672e-09 0 4.34237e-09
13 3 0.001 -0.0426551 0 -0.000120769 -1.23944e-11 0 -1.79506e-09 0 4.34304e-09
14 3 0.001 -0.0419875 0 -0.000141038 1.67132e-09 0 1.55544e-08 0 4.34365e-09
15 3 0.001 -0.0413199 0 -0.000162519 -6.89344e-10 0 -3.13923e-08 0 4.3442e-09
16 3 0.001 -0.0406524 0 -0.000185153 1.10417e-09 0 3.12322e-08 0 4.3447e-09
17 3 0.001 -0.0399849 0 -0.000208885 -1.75985e-09 0 -1.82404e-08 0 4.34515e-09
18 3 0.001 -0.0393175 0 -0.000233661 -1.13208e-09 0 -1.29113e-08 0 4.34556e-09
19 3 0.001 -0.0386501 0 -0.00025943 2.24927e-09 0 4.4863e-08 0 4.34593e-09
20 3 0.001 -0.0379827 0 -0.000286146 -1.34252e-09 0 -3.62144e-08 0 4.34626e-09
21 3 0.001 -0.0373154 0 -0.00031376 2.32661e-10 0 2.14538e-10 0 4.34657e-09
22 3 0.001 -0.0366481 0 -0.000342231 7.22721e-10 0 1.51345e-08 0 4.34684e-09
23 3 0.001 -0.0359809 0 -0.000371517 1.31692e-10 0 -4.58604e-09 0 4.34709e-09
24 3 0.001 -0.0353137 0 -0.000401578 -2.44812e-10 0 -7.1771e-09 0 4.34732e-09
25 3 0.001 -0.0346465 0 -0.000432376 -3.53293e-11 0 1.02742e-08 0 4.34752e-09
26 3 0.001 -0.0339793 0 -0.000463876 -4.14818e-10 0 -4.15295e-09 0 4.34771e-09
27 3 0.001 -0.0333122 0 -0.000496044 2.77365e-10 0 -2.72827e-09 0 4.34787e-09
28 3 0.001 -0.0326451 0 -0.000528848 -3.02666e-10 0 -2.31421e-09 0 4.34803e-09
29 3 0.001 -0.0319781 0 -0.000562256 1.44519e-10 0 1.05352e-08 0 4.34816e-09
30 3 0.001 -0.031311 0 -0.000596239 -3.75022e-10 0 -6.87028e-09 0 4.34829e-09
31 3 0.001 -0.030644 0 -0.000630771 -6.96483e-10 0 -1.57377e-08 0 4.3484e-09
32 3 0.001 -0.029977 0 -0.000665823 2.41521e-09 0 3.02838e-08 0 4.3485e-09
33 3 0.001 -0.0293101 0 -0.000701371 7.97047e-11 0 9.14149e-10 0 4.3486e-09
34 3 0.001 -0.0286432 0 -0.000737391 -2.39043e-09 0 -3.96682e-08 0 4.34868e-09
35 3 0.001 -0.0279763 0 -0.000773859 1.28886e-09 0 3.40583e-08 0 4.34875e-09
36 3 0.001 -0.0273094 0 -0.000810755 -8.64077e-10 0 -9.05898e-09 0 4.34882e-09
