ITEM: TIMESTEP
6900000
ITEM: NUMBER OF ATOMS
151
ITEM: BOX BOUNDS ff ff ff
-5.5000000000000000e-02 5.5000000000000000e-02
-6.0000000000000001e-03 6.0000000000000001e-03
-2.5000000000000001e-02 2.5000000000000001e-02
ITEM: ATOMS id type radius x y z fx fy fz c_bendingE c_stretchingE
128 3 0.001 0.034007 0 -0.00565639 1.57197e-09 0 1.93531e-08 0 8.03874e-09
129 3 0.001 0.0346733 0 -0.00570819 3.92154e-09 0 3.55929e-08 0 8.03874e-09
130 3 0.001 0.0353397 0 -0.00576 -2.49668e-09 0 -5.20847e-08 0 8.03874e-09
131 3 0.001 0.036006 0 -0.0058118 1.18651e-09 0 2.66631e-08 0 8.03874e-09
132 3 0.001 0.0366723 0 -0.0058636 -3.75404e-10 0 1.63083e-08 0 8.03874e-09
133 3 0.001 0.0373386 0 -0.00591541 -3.23596e-09 0 -4.37626e-08 0 8.03874e-09
134 3 0.001 0.038005 0 -0.00596722 2.98952e-09 0 4.25095e-08 0 8.03874e-09
135 3 0.001 0.0386713 0 -0.00601903 -4.87341e-09 0 -5.65266e-08 0 8.03874e-09
136 3 0.001 0.0393376 0 -0.00607084 7.08165e-09 0 9.21073e-08 0 8.03874e-09
137 3 0.001 0.0400039 0 -0.00612265 -6.87147e-09 0 -1.0489e-07 0 8.03874e-09
138 3 0.001 0.0406703 0 -0.00617446 6.50992e-09 0 5.9794e-08 0 8.03874e-09
139 3 0.001 0.0413366 0 -0.00622628 1.02726e-09 0 2.16324e-08 0 8.03874e-09
140 3 0.001 0.0420029 0 -0.00627809 -6.80235e-09 0 -6.51358e-08 0 8.03874e-09
141 3 0.001 0.0426692 0 -0.00632991 4.42157e-09 0 6.07733e-08 0 8.03874e-09
142 3 0.001 0.0433356 0 -0.00638172 -2.33784e-09 0 -3.38114e-08 0 8.03874e-09
143 3 0.001 0.0440019 0 -0.00643354 -2.12838e-09 0 -2.38342e-08 0 8.03874e-09
144 3 0.001 0.0446682 0 -0.00648536 6.33167e-09 0 8.65761e-08 0 8.03874e-09
145 3 0.001 0.0453345 0 -0.00653717 -8.05576e-09 0 -1.16306e-07 0 8.03874e-09
148 3 0.001 0.0473335 0 -0.00669263 -4.16587e-09 0 -4.64119e-08 0 8.03874e-09
146 3 0.001 0.0460009 0 -0.00658899 8.17001e-09 0 9.108e-08 0 8.03874e-09
147 3 0.001 0.0466672 0 -0.00664081 -1.3068e-09 0 -1.43773e-08 0 8.03874e-09
149 3 0.001 0.0479999 0 -0.00674445 1.60753e-09 0 2.0601e-08 0 8.03874e-09
150 3 0.001 0.0486662 0 -0.00679627 3.57537e-09 0 5.53199e-08 0 1.13655e-08
2 2 0.001 0.05 0 -0.0069 -0.00959422 0 0.000746441 0 7.34617e-09
151 3 0.001 0.0493331 0 -0.00684813 -5.86178e-09 0 -7.00341e-08 0 1.46923e-08
97 3 0.001 0.0133507 0 -0.00405254 -1.05416e-09 0 2.03439e-09 0 8.03873e-09
98 3 0.001 0.0140171 0 -0.00410417 2.62517e-11 0 8.68734e-09 0 8.03873e-09
99 3 0.001 0.0146834 0 -0.00415581 -3.47559e-09 0 -3.49747e-08 0 8.03873e-09
100 3 0.001 0.0153497 0 -0.00420747 1.50054e-09 0 3.08417e-08 0 8.03873e-09
101 3 0.001 0.0160161 0 -0.00425913 -5.44123e-10 0 -1.11275e-08 0 8.03873e-09
102 3 0.001 0.0166824 0 -0.00431081 -7.74359e-10 0 -2.18804e-08 0 8.03873e-09
104 3 0.001 0.0180151 0 -0.00441418 7.11135e-10 0 9.95269e-09 0 8.03873e-09
105 3 0.001 0.0186814 0 -0.00446588 -5.43966e-09 0 -6.25891e-08 0 8.03873e-09
103 3 0.001 0.0173487 0 -0.00436249 4.70611e-09 0 4.16975e-08 0 8.03873e-09
106 3 0.001 0.0193478 0 -0.00451758 1.57288e-09 0 1.52899e-08 0 8.03873e-09
107 3 0.001 0.0200141 0 -0.0045693 4.58257e-09 0 6.66095e-08 0 8.03873e-09
108 3 0.001 0.0206804 0 -0.00462102 -8.15423e-09 0 -9.04717e-08 0 8.03873e-09
109 3 0.001 0.0213468 0 -0.00467275 3.47975e-09 0 4.99196e-08 0 8.03873e-09
112 3 0.001 0.0233457 0 -0.00482796 3.55964e-09 0 3.92152e-08 0 8.03874e-09
110 3 0.001 0.0220131 0 -0.00472448 6.8879e-10 0 4.66444e-09 0 8.03873e-09
111 3 0.001 0.0226794 0 -0.00477622 -8.53376e-10 0 -2.53938e-08 0 8.03873e-09
113 3 0.001 0.0240121 0 -0.00487971 -3.92522e-09 0 -5.23464e-08 0 8.03874e-09
114 3 0.001 0.0246784 0 -0.00493147 3.4618e-09 0 3.3367e-08 0 8.03874e-09
115 3 0.001 0.0253447 0 -0.00498322 -2.19886e-09 0 -2.16967e-08 0 8.03874e-09
116 3 0.001 0.0260111 0 -0.00503499 1.20805e-09 0 3.67462e-08 0 8.03874e-09
117 3 0.001 0.0266774 0 -0.00508675 -2.89596e-09 0 -2.56588e-08 0 8.03873e-09
118 3 0.001 0.0273437 0 -0.00513852 -2.48208e-10 0 -2.97154e-09 0 8.03873e-09
119 3 0.001 0.0280101 0 -0.0051903 2.31422e-09 0 1.35468e-08 0 8.03874e-09
120 3 0.001 0.0286764 0 -0.00524207 -2.0658e-09 0 -3.83882e-08 0 8.03874e-09
121 3 0.001 0.0293427 0 -0.00529385 5.97395e-09 0 7.22644e-08 0 8.03874e-09
122 3 0.001 0.030009 0 -0.00534564 -4.62853e-09 0 -6.87127e-08 0 8.03874e-09
123 3 0.001 0.0306754 0 -0.00539742 2.43472e-09 0 4.39606e-08 0 8.03874e-09
124 3 0.001 0.0313417 0 -0.00544921 -3.62028e-09 0 -2.71359e-08 0 8.03874e-09
125 3 0.001 0.032008 0 -0.00550101 7.81977e-10 0 1.3151e-08 0 8.03874e-09
126 3 0.001 0.0326744 0 -0.0055528 1.57705e-09 0 1.46426e-08 0 8.03874e-09
127 3 0.001 0.0333407 0 -0.0056046 -3.49025e-09 0 -4.26523e-08 0 8.03874e-09
66 3 0.001 -0.00730672 0 -0.00246365 1.39799e-09 0 3.34845e-08 0 8.0387e-09
69 3 0.001 -0.00530748 0 -0.00261572 5.38785e-09 0 5.81519e-08 0 8.03871e-09
67 3 0.001 -0.0066403 0 -0.00251428 -5.65361e-10 0 -6.97078e-09 0 8.0387e-09
68 3 0.001 -0.00597389 0 -0.00256497 -1.88455e-09 0 -3.82599e-08 0 8.0387e-09
71 3 0.001 -0.00397468 0 -0.00271741 -4.94071e-09 0 -7.62974e-08 0 8.03871e-09
70 3 0.001 -0.00464108 0 -0.00266654 -1.82215e-10 0 -9.91599e-10 0 8.03871e-09
72 3 0.001 -0.00330829 0 -0.00276834 6.43158e-09 0 8.13763e-08 0 8.03872e-09
73 3 0.001 -0.0026419 0 -0.00281932 -5.05522e-09 0 -4.30626e-08 0 8.03872e-09
74 3 0.001 -0.00197551 0 -0.00287035 6.19733e-10 0 2.76631e-08 0 8.03872e-09
75 3 0.001 -0.00130913 0 -0.00292142 -1.57156e-09 0 -2.2551e-08 0 8.03872e-09
76 3 0.001 -0.00064275 0 -0.00297253 4.13416e-10 0 -1.57907e-08 0 8.03872e-09
77 3 0.001 2.36271e-05 0 -0.00302369 5.12607e-09 0 5.63769e-08 0 8.03872e-09
78 3 0.001 0.000690001 0 -0.00307488 -4.10844e-09 0 -4.51639e-08 0 8.03872e-09
79 3 0.001 0.00135637 0 -0.00312611 -2.15106e-10 0 -2.97364e-09 0 8.03872e-09
80 3 0.001 0.00202274 0 -0.00317737 3.70353e-09 0 3.96127e-08 0 8.03873e-09
81 3 0.001 0.00268911 0 -0.00322867 -2.05238e-09 0 -2.09848e-08 0 8.03873e-09
82 3 0.001 0.00335547 0 -0.00327999 -2.28086e-09 0 -1.62026e-08 0 8.03873e-09
83 3 0.001 0.00402183 0 -0.00333134 -1.88578e-09 0 -1.7341e-08 0 8.03873e-09
84 3 0.001 0.00468819 0 -0.00338272 7.18784e-09 0 8.39066e-08 0 8.03873e-09
85 3 0.001 0.00535455 0 -0.00343413 -6.86946e-09 0 -9.25936e-08 0 8.03873e-09
86 3 0.001 0.0060209 0 -0.00348556 3.17368e-09 0 4.63145e-08 0 8.03873e-09
87 3 0.001 0.00668726 0 -0.00353701 2.32397e-09 0 1.53231e-08 0 8.03873e-09
88 3 0.001 0.00735361 0 -0.00358849 -2.89409e-09 0 -4.75184e-08 0 8.03873e-09
89 3 0.001 0.00801996 0 -0.00363998 2.46353e-09 0 3.95096e-08 0 8.03873e-09
90 3 0.001 0.00868631 0 -0.00369149 -2.35773e-09 0 -2.18783e-08 0 8.03873e-09
91 3 0.001 0.00935266 0 -0.00374303 -3.89188e-10 0 6.38682e-09 0 8.03873e-09
92 3 0.001 0.010019 0 -0.00379457 -1.63964e-09 0 -7.21872e-09 0 8.03873e-09
93 3 0.001 0.0106853 0 -0.00384614 2.16501e-09 0 3.06663e-08 0 8.03873e-09
94 3 0.001 0.0113517 0 -0.00389772 -7.11856e-10 0 -3.0911e-08 0 8.03873e-09
95 3 0.001 0.012018 0 -0.00394931 1.18141e-09 0 -9.41978e-09 0 8.03873e-09
96 3 0.001 0.0126844 0 -0.00400092 1.80814e-09 0 2.14724e-08 0 8.03873e-09
32 3 0.001 -0.0299715 0 -0.000833523 -1.36346e-09 0 -2.83348e-08 0 8.03729e-09
35 3 0.001 -0.0279708 0 -0.000964535 4.6855e-09 0 7.58932e-08 0 8.03771e-09
33 3 0.001 -0.0293046 0 -0.000876717 1.24226e-12 0 -1.35043e-08 0 8.03745e-09
34 3 0.001 -0.0286377 0 -0.000920397 -1.09435e-09 0 -2.13594e-08 0 8.03759e-09
37 3 0.001 -0.0266371 0 -0.00105408 -3.6375e-09 0 -7.02716e-08 0 8.03792e-09
36 3 0.001 -0.027304 0 -0.00100911 -1.41322e-09 0 -2.88117e-08 0 8.03782e-09
38 3 0.001 -0.0259703 0 -0.00109945 4.74779e-09 0 8.38668e-08 0 8.03801e-09
39 3 0.001 -0.0253036 0 -0.00114518 -3.31314e-09 0 -2.56913e-08 0 8.03809e-09
40 3 0.001 -0.0246368 0 -0.00119125 -7.17829e-10 0 -1.6063e-08 0 8.03816e-09
41 3 0.001 -0.0239701 0 -0.00123764 2.78384e-09 0 3.15772e-08 0 8.03822e-09
44 3 0.001 -0.02197 0 -0.00137859 1.18836e-09 0 3.60877e-09 0 8.03837e-09
42 3 0.001 -0.0233034 0 -0.00128434 -2.89524e-09 0 -3.24755e-08 0 8.03828e-09
43 3 0.001 -0.0226367 0 -0.00133133 1.01061e-09 0 1.83753e-08 0 8.03832e-09
45 3 0.001 -0.0213034 0 -0.00142611 4.11454e-10 0 -1.44008e-08 0 8.03841e-09
46 3 0.001 -0.0206368 0 -0.00147387 -2.84418e-10 0 8.42823e-10 0 8.03844e-09
48 3 0.001 -0.0193036 0 -0.00157007 -4.53294e-09 0 -5.46078e-08 0 8.0385e-09
47 3 0.001 -0.0199702 0 -0.00152186 9.35997e-10 0 3.03556e-08 0 8.03847e-09
49 3 0.001 -0.018637 0 -0.00161848 8.85973e-10 0 2.19089e-08 0 8.03852e-09
50 3 0.001 -0.0179704 0 -0.00166708 3.51112e-09 0 4.4453e-08 0 8.03855e-09
51 3 0.001 -0.0173039 0 -0.00171587 -3.97415e-09 0 -6.02819e-08 0 8.03857e-09
52 3 0.001 -0.0166373 0 -0.00176482 4.5742e-09 0 4.94714e-08 0 8.03858e-09
53 3 0.001 -0.0159708 0 -0.00181394 -3.5173e-09 0 -6.4175e-08 0 8.0386e-09
54 3 0.001 -0.0153043 0 -0.00186321 3.87409e-09 0 6.53702e-08 0 8.03862e-09
55 3 0.001 -0.0146378 0 -0.00191262 -3.09618e-09 0 -3.08291e-08 0 8.03863e-09
56 3 0.001 -0.0139713 0 -0.00196217 5.75898e-10 0 4.11131e-09 0 8.03864e-09
57 3 0.001 -0.0133048 0 -0.00201185 -3.28354e-10 0 4.26648e-09 0 8.03865e-09
58 3 0.001 -0.0126383 0 -0.00206164 -2.51421e-09 0 -2.58785e-08 0 8.03865e-09
59 3 0.001 -0.0119718 0 -0.00211156 4.16107e-09 0 4.56016e-08 0 8.03866e-09
60 3 0.001 -0.0113054 0 -0.00216158 -1.89353e-09 0 -3.71592e-08 0 8.03867e-09
61 3 0.001 -0.0106389 0 -0.0022117 2.17824e-09 0 2.78632e-08 0 8.03868e-09
62 3 0.001 -0.00997245 0 -0.00226192 -2.5398e-09 0 -3.08052e-08 0 8.03868e-09
63 3 0.001 -0.00930601 0 -0.00231223 1.52935e-09 0 1.82839e-08 0 8.03869e-09
64 3 0.001 -0.00863957 0 -0.00236262 1.17905e-09 0 1.11916e-08 0 8.03869e-09
65 3 0.001 -0.00797314 0 -0.0024131 -3.44255e-09 0 -3.34598e-08 0 8.0387e-09
1 1 0.001 -0.05 0 0 -0.00340403 0 0.0119008 0 1.14427e-32
3 3 0.001 -0.0493333 0 0 0.0129983 0 -0.0126471 0 7.33969e-09
4 3 0.001 -0.0486644 0 -5.52177e-06 -1.91254e-09 0 8.77308e-09 0 1.13418e-08
5 3 0.001 -0.0479961 0 -1.36449e-05 -1.50209e-09 0 -3.68819e-08 0 8.00619e-09
6 3 0.001 -0.0473279 0 -2.42278e-05 1.74263e-09 0 7.17851e-08 0 8.00974e-09
7 3 0.001 -0.0466597 0 -3.71319e-05 -2.12797e-09 0 -9.61766e-08 0 8.0129e-09
8 3 0.001 -0.0459915 0 -5.22268e-05 9.32701e-10 0 6.45867e-08 0 8.01572e-09
9 3 0.001 -0.0453234 0 -6.93892e-05 1.77025e-09 0 2.42037e-08 0 8.01823e-09
10 3 0.001 -0.0446553 0 -8.85026e-05 -4.07217e-10 0 -7.90951e-08 0 8.02047e-09
11 3 0.001 -0.0439873 0 -0.000109457 2.46264e-09 0 7.14132e-08 0 8.02247e-09
12 3 0.001 -0.0433194 0 -0.00013215 -4.20583e-09 0 -6.89401e-08 0 8.02424e-09
13 3 0.001 -0.0426515 0 -0.000156482 2.96033e-09 0 8.74299e-08 0 8.02582e-09
14 3 0.001 -0.0419837 0 -0.000182361 -2.55471e-09 0 -6.93763e-08 0 8.02723e-09
15 3 0.001 -0.0413159 0 -0.000209701 -4.7516e-10 0 5.43121e-09 0 8.02849e-09
16 3 0.001 -0.0406482 0 -0.00023842 8.98243e-10 0 3.50353e-08 0 8.0296e-09
17 3 0.001 -0.0399805 0 -0.000268438 -1.18168e-09 0 -3.84058e-08 0 8.0306e-09
18 3 0.001 -0.0393129 0 -0.000299684 4.21966e-09 0 4.52829e-08 0 8.03149e-09
19 3 0.001 -0.0386453 0 -0.000332089 -1.6843e-09 0 -4.38422e-08 0 8.03228e-09
20 3 0.001 -0.0379778 0 -0.000365586 4.61086e-10 0 2.32864e-08 0 8.03299e-09
21 3 0.001 -0.0373104 0 -0.000400115 -7.31268e-10 0 -6.84492e-09 0 8.03361e-09
22 3 0.001 -0.036643 0 -0.000435617 -8.71355e-10 0 -4.73399e-09 0 8.03417e-09
23 3 0.001 -0.0359757 0 -0.000472038 7.82147e-10 0 2.91985e-08 0 8.03467e-09
24 3 0.001 -0.0353084 0 -0.000509326 -4.09698e-09 0 -5.91266e-08 0 8.03511e-09
25 3 0.001 -0.0346411 0 -0.000547432 3.99011e-09 0 5.51935e-08 0 8.0355e-09
26 3 0.001 -0.0339739 0 -0.00058631 1.45185e-09 0 4.87578e-10 0 8.03586e-09
27 3 0.001 -0.0333068 0 -0.000625917 -2.69379e-09 0 -5.14769e-08 0 8.03617e-09
28 3 0.001 -0.0326396 0 -0.000666211 3.14382e-09 0 4.63323e-08 0 8.03645e-09
29 3 0.001 -0.0319726 0 -0.000707155 -1.18023e-09 0 -1.67894e-08 0 8.0367e-09
30 3 0.001 -0.0313055 0 -0.000748711 -2.55408e-09 0 -1.89432e-08 0 8.03692e-09
31 3 0.001 -0.0306385 0 -0.000790844 2.19365e-09 0 5.19846e-08 0 8.03712e-09
