ITEM: TIMESTEP
410000
ITEM: NUMBER OF ATOMS
151
ITEM: BOX BOUNDS ff ff ff
-5.2499999999999998e-02 5.2499999999999998e-02
-6.0000000000000001e-03 6.0000000000000001e-03
-1.4999999999999999e-02 1.4999999999999999e-02
ITEM: ATOMS id type radius x y z fx fy fz c_bendingE c_stretchingE
114 3 0.001 0.0234409 0 -0.00268047 3.7041e-05 0 1.25916e-06 0 1.02227e-09
115 3 0.001 0.024074 0 -0.00271213 -3.76805e-05 0 4.77204e-06 0 1.02199e-09
116 3 0.001 0.0247071 0 -0.00274381 -1.16764e-05 0 1.99431e-06 0 1.00761e-09
117 3 0.001 0.0253402 0 -0.0027755 1.79288e-05 0 1.28259e-06 0 1.00937e-09
118 3 0.001 0.0259733 0 -0.00280722 -4.19971e-06 0 1.89638e-06 0 1.01327e-09
119 3 0.001 0.0266065 0 -0.00283896 -3.75364e-05 0 2.28891e-06 0 1.00122e-09
120 3 0.001 0.0272396 0 -0.00287072 -1.03072e-05 0 -1.19494e-06 0 9.87498e-10
121 3 0.001 0.0278727 0 -0.00290249 1.39694e-05 0 -5.02453e-06 0 9.88632e-10
122 3 0.001 0.0285058 0 -0.00293429 3.93156e-06 0 -3.52102e-06 0 9.93862e-10
123 3 0.001 0.0291389 0 -0.00296611 -1.48963e-05 0 2.89166e-06 0 9.90741e-10
124 3 0.001 0.029772 0 -0.00299794 1.55722e-05 0 2.04965e-06 0 9.90861e-10
125 3 0.001 0.0304051 0 -0.00302979 3.78877e-05 0 -8.93088e-07 0 1.00619e-09
126 3 0.001 0.0310382 0 -0.00306166 -9.25268e-05 0 5.30276e-06 0 9.9061e-10
129 3 0.001 0.0329375 0 -0.00315737 -4.76933e-08 0 2.04333e-06 0 9.46741e-10
128 3 0.001 0.0323044 0 -0.00312545 2.03025e-05 0 -1.85612e-06 0 9.41109e-10
127 3 0.001 0.0316713 0 -0.00309355 -5.12783e-05 0 6.78758e-07 0 9.49779e-10
130 3 0.001 0.0335706 0 -0.00318931 1.48069e-05 0 -7.08711e-07 0 9.50848e-10
131 3 0.001 0.0342037 0 -0.00322126 4.70243e-05 0 -4.67076e-06 0 9.68337e-10
132 3 0.001 0.0348367 0 -0.00325322 1.11316e-05 0 -2.08682e-06 0 9.84873e-10
133 3 0.001 0.0354698 0 -0.00328521 1.21203e-05 0 -2.05873e-07 0 9.91534e-10
134 3 0.001 0.0361029 0 -0.00331721 -5.8873e-06 0 9.05204e-07 0 9.93301e-10
135 3 0.001 0.036736 0 -0.00334922 4.77657e-05 0 -3.37505e-06 0 1.00539e-09
136 3 0.001 0.0373691 0 -0.00338124 0.000129098 0 -7.5804e-06 0 1.05735e-09
137 3 0.001 0.0380023 0 -0.00341328 -2.08954e-05 0 4.28129e-06 0 1.08921e-09
138 3 0.001 0.0386354 0 -0.00344534 -5.37918e-05 0 6.3133e-06 0 1.06686e-09
139 3 0.001 0.0392685 0 -0.0034774 9.09272e-06 0 -1.84854e-06 0 1.05354e-09
140 3 0.001 0.0399016 0 -0.00350947 -8.10381e-05 0 -1.34143e-06 0 1.03265e-09
141 3 0.001 0.0405347 0 -0.00354156 -9.79916e-05 0 -3.81167e-07 0 9.81229e-10
142 3 0.001 0.0411678 0 -0.00357366 -1.63424e-05 0 -4.92424e-07 0 9.48841e-10
143 3 0.001 0.0418009 0 -0.00360577 -2.30731e-05 0 2.34229e-06 0 9.3784e-10
144 3 0.001 0.0424339 0 -0.00363788 3.1852e-05 0 1.3055e-06 0 9.40237e-10
145 3 0.001 0.043067 0 -0.00367 1.7484e-05 0 3.5461e-06 0 9.53923e-10
146 3 0.001 0.0437001 0 -0.00370212 6.62059e-05 0 -9.66423e-07 0 9.77557e-10
147 3 0.001 0.0443332 0 -0.00373425 -4.90299e-05 0 1.5736e-06 0 9.82385e-10
148 3 0.001 0.0449663 0 -0.00376638 -3.69524e-05 0 1.37963e-06 0 9.58034e-10
149 3 0.001 0.0455994 0 -0.00379851 7.05364e-05 0 -3.18414e-06 0 1.02318e-09
150 3 0.001 0.0462325 0 -0.00383065 -5.2851e-05 0 -1.21946e-07 0 2.88379e-09
2 2 0.001 0.0475 0 -0.003895 -0.00347673 0 0.000186007 0 2.38055e-09
151 3 0.001 0.0468662 0 -0.00386282 7.35808e-05 0 -9.27519e-06 0 4.71499e-09
55 3 0.001 -0.0139176 0 -0.000912163 -3.04215e-05 0 -5.04524e-07 0 1.01839e-09
56 3 0.001 -0.0132842 0 -0.000939052 -4.25243e-05 0 1.51218e-06 0 9.97388e-10
57 3 0.001 -0.0126509 0 -0.00096612 -1.48263e-05 0 2.9609e-06 0 9.80942e-10
58 3 0.001 -0.0120176 0 -0.000993362 -4.01335e-05 0 4.23551e-06 0 9.65333e-10
59 3 0.001 -0.0113843 0 -0.00102077 7.09324e-05 0 -3.6938e-06 0 9.741e-10
60 3 0.001 -0.010751 0 -0.00104834 1.5366e-05 0 -2.50443e-06 0 9.98669e-10
62 3 0.001 -0.00948439 0 -0.00110395 -4.85349e-05 0 8.41588e-06 0 9.65886e-10
61 3 0.001 -0.0101177 0 -0.00107607 -4.09753e-05 0 1.14577e-06 0 9.91391e-10
63 3 0.001 -0.00885112 0 -0.00113198 3.27673e-05 0 3.39328e-06 0 9.61272e-10
64 3 0.001 -0.00821784 0 -0.00116015 0.000109961 0 -7.40685e-06 0 1.00212e-09
65 3 0.001 -0.00758456 0 -0.00118845 -7.79344e-06 0 -5.87414e-06 0 1.0316e-09
66 3 0.001 -0.00695128 0 -0.0012169 -8.27802e-05 0 9.52393e-07 0 1.00558e-09
67 3 0.001 -0.00631802 0 -0.00124547 -4.0439e-05 0 6.78338e-06 0 9.70246e-10
68 3 0.001 -0.00568478 0 -0.00127417 3.90046e-05 0 1.82903e-06 0 9.69728e-10
69 3 0.001 -0.00505153 0 -0.001303 -3.14436e-05 0 1.31774e-07 0 9.71831e-10
71 3 0.001 -0.00378506 0 -0.00136101 4.54963e-05 0 -5.0156e-06 0 1.01218e-09
72 3 0.001 -0.00315181 0 -0.00139019 -9.44225e-05 0 3.82646e-06 0 9.98263e-10
70 3 0.001 -0.0044183 0 -0.00133195 6.31685e-05 0 -5.44296e-06 0 9.80958e-10
73 3 0.001 -0.00251859 0 -0.00141948 3.18217e-05 0 -1.52404e-06 0 9.80211e-10
74 3 0.001 -0.00188537 0 -0.00144888 2.57409e-05 0 -3.88479e-06 0 9.96693e-10
75 3 0.001 -0.00125215 0 -0.00147838 -1.6684e-06 0 -4.2553e-06 0 1.00369e-09
76 3 0.001 -0.000618929 0 -0.00150798 3.96406e-05 0 -1.60274e-06 0 1.01475e-09
77 3 0.001 1.42902e-05 0 -0.00153767 3.05503e-05 0 3.20013e-06 0 1.0351e-09
78 3 0.001 0.00064751 0 -0.00156746 -1.61115e-05 0 6.0944e-06 0 1.03918e-09
79 3 0.001 0.00128072 0 -0.00159733 -4.41162e-05 0 6.24399e-06 0 1.02151e-09
80 3 0.001 0.00191393 0 -0.00162728 -0.000100319 0 2.92655e-06 0 9.80113e-10
81 3 0.001 0.00254711 0 -0.00165732 -5.26658e-06 0 -4.42838e-06 0 9.50176e-10
83 3 0.001 0.00381347 0 -0.00171763 -6.95704e-05 0 3.99789e-07 0 9.68515e-10
84 3 0.001 0.00444664 0 -0.0017479 3.08714e-05 0 -2.14442e-07 0 9.5754e-10
82 3 0.001 0.00318028 0 -0.00168744 6.94203e-05 0 -7.4703e-06 0 9.6846e-10
85 3 0.001 0.00507981 0 -0.00177824 -3.48297e-06 0 3.68194e-06 0 9.65177e-10
86 3 0.001 0.00571298 0 -0.00180865 -8.2684e-05 0 4.98241e-06 0 9.41075e-10
87 3 0.001 0.00634613 0 -0.00183912 4.48166e-05 0 1.71217e-07 0 9.30402e-10
88 3 0.001 0.00697928 0 -0.00186966 9.14871e-05 0 -1.1704e-06 0 9.68643e-10
89 3 0.001 0.00761245 0 -0.00190025 3.91634e-05 0 -6.95736e-07 0 1.00576e-09
90 3 0.001 0.00824562 0 -0.0019309 -3.36746e-05 0 1.79497e-07 0 1.00734e-09
91 3 0.001 0.00887878 0 -0.00196161 -4.5791e-05 0 -1.3739e-06 0 9.84633e-10
92 3 0.001 0.00951194 0 -0.00199238 -6.1291e-05 0 1.13937e-06 0 9.54431e-10
93 3 0.001 0.0101451 0 -0.0020232 6.17977e-05 0 -2.67409e-06 0 9.54597e-10
94 3 0.001 0.0107782 0 -0.00205407 5.29136e-05 0 -1.58638e-06 0 9.87052e-10
95 3 0.001 0.0114114 0 -0.002085 -1.62002e-05 0 2.69537e-06 0 9.97475e-10
96 3 0.001 0.0120445 0 -0.00211597 -2.65057e-05 0 4.14193e-06 0 9.85194e-10
97 3 0.001 0.0126777 0 -0.00214698 -1.90912e-05 0 3.44878e-06 0 9.72145e-10
98 3 0.001 0.0133108 0 -0.00217805 8.75101e-05 0 -2.5419e-06 0 9.91729e-10
100 3 0.001 0.0145771 0 -0.00224031 -6.66044e-07 0 -5.48812e-06 0 1.01411e-09
99 3 0.001 0.013944 0 -0.00220916 -4.44107e-06 0 -1.14791e-06 0 1.01549e-09
101 3 0.001 0.0152102 0 -0.00227151 2.97754e-05 0 -6.84791e-06 0 1.02273e-09
102 3 0.001 0.0158434 0 -0.00230276 -6.07346e-05 0 2.62154e-06 0 1.01388e-09
103 3 0.001 0.0164765 0 -0.00233405 -4.75849e-05 0 2.0534e-06 0 9.82748e-10
104 3 0.001 0.0171096 0 -0.00236538 2.44957e-05 0 -1.79147e-06 0 9.76157e-10
105 3 0.001 0.0177428 0 -0.00239674 -4.05634e-05 0 2.45311e-06 0 9.71623e-10
106 3 0.001 0.0183759 0 -0.00242815 -5.25606e-05 0 2.57084e-06 0 9.4543e-10
107 3 0.001 0.019009 0 -0.00245958 9.06077e-05 0 -2.55253e-06 0 9.56184e-10
108 3 0.001 0.0196421 0 -0.00249105 2.95904e-05 0 3.59638e-06 0 9.90023e-10
109 3 0.001 0.0202752 0 -0.00252255 1.97342e-05 0 1.18107e-06 0 1.00407e-09
110 3 0.001 0.0209084 0 -0.00255408 1.78435e-05 0 -4.42428e-06 0 1.01495e-09
111 3 0.001 0.0215415 0 -0.00258563 -1.50572e-05 0 -4.93852e-06 0 1.01589e-09
112 3 0.001 0.0221746 0 -0.00261722 -9.70507e-06 0 -1.95145e-06 0 1.00884e-09
113 3 0.001 0.0228077 0 -0.00264883 9.58394e-06 0 1.62326e-06 0 1.00881e-09
1 1 0.001 -0.0475 0 0 -0.00413031 0 0.0050656 0 1.60362e-34
3 3 0.001 -0.0468667 0 0 0.00759355 0 -0.00523487 0 2.37788e-09
4 3 0.001 -0.0462321 0 -2.01199e-06 3.6209e-05 0 -1.4348e-06 0 2.94036e-09
5 3 0.001 -0.0455981 0 -4.99667e-06 -0.000111767 0 -2.17212e-07 0 1.03596e-09
6 3 0.001 -0.0449643 0 -8.92517e-06 3.02378e-05 0 -5.58182e-07 0 9.55504e-10
7 3 0.001 -0.0443304 0 -1.37679e-05 2.78071e-05 0 -1.69844e-06 0 9.71982e-10
8 3 0.001 -0.0436965 0 -1.94961e-05 1.8917e-05 0 -4.09144e-07 0 9.85359e-10
9 3 0.001 -0.0430626 0 -2.60814e-05 5.39963e-06 0 -4.17986e-06 0 9.92413e-10
10 3 0.001 -0.0424288 0 -3.34964e-05 -6.71879e-05 0 -4.69837e-06 0 9.75037e-10
11 3 0.001 -0.0417949 0 -4.17137e-05 -4.06974e-05 0 5.32588e-06 0 9.44722e-10
12 3 0.001 -0.0411611 0 -5.07059e-05 3.30181e-05 0 9.91923e-06 0 9.42596e-10
13 3 0.001 -0.0405273 0 -6.04473e-05 6.95629e-05 0 2.70055e-06 0 9.71511e-10
14 3 0.001 -0.0398935 0 -7.09152e-05 3.89226e-05 0 -6.39972e-06 0 1.00248e-09
15 3 0.001 -0.0392597 0 -8.20882e-05 3.68041e-05 0 -7.89875e-06 0 1.0245e-09
16 3 0.001 -0.0386259 0 -9.39446e-05 0.000100423 0 -2.38838e-06 0 1.06507e-09
17 3 0.001 -0.037992 0 -0.000106462 -1.69376e-05 0 8.61021e-07 0 1.08982e-09
18 3 0.001 -0.0373583 0 -0.000119619 -5.06389e-05 0 -7.95361e-07 0 1.06977e-09
19 3 0.001 -0.0367245 0 -0.000133394 -8.0458e-06 0 -8.03705e-07 0 1.05243e-09
20 3 0.001 -0.0360907 0 -0.000147766 -0.00010689 0 3.26893e-06 0 1.01912e-09
21 3 0.001 -0.035457 0 -0.000162716 -3.25128e-05 0 4.96277e-06 0 9.78909e-10
22 3 0.001 -0.0348233 0 -0.000178223 2.20018e-05 0 3.91179e-06 0 9.75898e-10
23 3 0.001 -0.0341896 0 -0.000194271 5.80379e-06 0 2.23453e-07 0 9.83801e-10
24 3 0.001 -0.0335559 0 -0.000210843 -2.80221e-05 0 -2.03539e-06 0 9.77551e-10
25 3 0.001 -0.0329222 0 -0.000227924 -6.28893e-05 0 -2.79674e-06 0 9.52055e-10
26 3 0.001 -0.0322886 0 -0.000245496 -1.45536e-05 0 -9.37515e-07 0 9.30474e-10
27 3 0.001 -0.031655 0 -0.000263545 5.1151e-05 0 -5.97773e-07 0 9.40731e-10
28 3 0.001 -0.0310213 0 -0.000282054 3.93267e-05 0 -1.92704e-06 0 9.66121e-10
29 3 0.001 -0.0303877 0 -0.000301008 -9.71691e-06 0 -1.11108e-06 0 9.7452e-10
30 3 0.001 -0.0297541 0 -0.000320393 6.02795e-05 0 2.19085e-06 0 9.88994e-10
31 3 0.001 -0.0291205 0 -0.000340194 1.44929e-07 0 8.24522e-06 0 1.00618e-09
32 3 0.001 -0.0284869 0 -0.000360397 -5.83333e-05 0 5.7691e-06 0 9.89459e-10
33 3 0.001 -0.0278534 0 -0.00038099 -6.86276e-06 0 -3.24866e-06 0 9.70862e-10
34 3 0.001 -0.0272198 0 -0.000401963 2.98458e-05 0 -8.18453e-06 0 9.77517e-10
35 3 0.001 -0.0265863 0 -0.000423307 5.07677e-05 0 -7.2109e-06 0 1.00073e-09
36 3 0.001 -0.0259527 0 -0.00044501 2.53869e-05 0 -3.22984e-06 0 1.0228e-09
37 3 0.001 -0.0253192 0 -0.000467059 -2.63856e-05 0 3.80044e-06 0 1.02252e-09
38 3 0.001 -0.0246857 0 -0.000489442 2.19171e-05 0 2.73893e-06 0 1.02118e-09
39 3 0.001 -0.0240522 0 -0.000512147 5.92094e-06 0 2.85848e-06 0 1.02922e-09
40 3 0.001 -0.0234187 0 -0.000535166 -2.12345e-05 0 4.02498e-06 0 1.02471e-09
41 3 0.001 -0.0227852 0 -0.000558487 -2.42521e-05 0 9.13896e-07 0 1.0115e-09
42 3 0.001 -0.0221517 0 -0.000582103 -5.86496e-05 0 2.50457e-06 0 9.87753e-10
43 3 0.001 -0.0215183 0 -0.000606005 2.97927e-05 0 -3.07811e-06 0 9.79507e-10
44 3 0.001 -0.0208848 0 -0.000630186 3.21058e-05 0 -7.23188e-06 0 9.97293e-10
45 3 0.001 -0.0202514 0 -0.000654639 2.58831e-05 0 -7.51673e-06 0 1.01415e-09
46 3 0.001 -0.0196179 0 -0.000679354 -8.31391e-05 0 -1.69115e-07 0 9.97894e-10
47 3 0.001 -0.0189845 0 -0.000704322 -5.20843e-05 0 6.73879e-06 0 9.59364e-10
48 3 0.001 -0.0183512 0 -0.000729533 7.63815e-05 0 1.7016e-06 0 9.66181e-10
49 3 0.001 -0.0177178 0 -0.000754978 -4.42469e-05 0 2.01209e-06 0 9.75151e-10
50 3 0.001 -0.0170844 0 -0.00078065 -1.70431e-05 0 1.86522e-06 0 9.5779e-10
51 3 0.001 -0.016451 0 -0.00080654 7.0572e-05 0 -1.84267e-06 0 9.72982e-10
52 3 0.001 -0.0158176 0 -0.000832643 4.61396e-05 0 -1.7769e-06 0 1.00628e-09
53 3 0.001 -0.0151843 0 -0.000858952 -9.92527e-06 0 -2.5327e-08 0 1.01672e-09
54 3 0.001 -0.0145509 0 -0.000885461 2.28017e-05 0 -4.58917e-06 0 1.02052e-09
