ITEM: TIMESTEP
4200000
ITEM: NUMBER OF ATOMS
151
ITEM: BOX BOUNDS ff ff ff
-5.5000000000000000e-02 5.5000000000000000e-02
-6.0000000000000001e-03 6.0000000000000001e-03
-2.5000000000000001e-02 2.5000000000000001e-02
ITEM: ATOMS id type radius x y z fx fy fz c_bendingE c_stretchingE
146 3 0.001 0.0460002 0 -0.00399581 4.63634e-10 0 7.96902e-09 0 1.14569e-09
147 3 0.001 0.0466667 0 -0.00402983 -5.52494e-10 0 -1.2317e-08 0 1.14569e-09
148 3 0.001 0.0473331 0 -0.00406385 1.05447e-10 0 3.40847e-09 0 1.14569e-09
149 3 0.001 0.0479995 0 -0.00409787 -3.87585e-11 0 1.77519e-09 0 1.14569e-09
150 3 0.001 0.048666 0 -0.00413189 1.48502e-10 0 1.08198e-09 0 2.72121e-09
2 2 0.001 0.05 0 -0.0042 -0.00362814 0 0.000187064 0 2.14836e-09
151 3 0.001 0.049333 0 -0.00416595 7.57078e-11 0 -2.17254e-09 0 4.29673e-09
99 3 0.001 0.0146774 0 -0.00240904 3.1249e-10 0 5.11899e-09 0 1.14569e-09
100 3 0.001 0.0153439 0 -0.0024423 -1.96572e-11 0 -2.04375e-09 0 1.14569e-09
101 3 0.001 0.0160104 0 -0.0024756 -3.98693e-10 0 -9.24631e-09 0 1.14569e-09
102 3 0.001 0.0166768 0 -0.00250894 6.36576e-10 0 1.38547e-08 0 1.14569e-09
103 3 0.001 0.0173433 0 -0.0025423 -4.35352e-10 0 -6.46932e-09 0 1.14569e-09
104 3 0.001 0.0180098 0 -0.0025757 7.22149e-11 0 -6.02502e-10 0 1.14569e-09
105 3 0.001 0.0186762 0 -0.00260913 1.7201e-10 0 4.20189e-09 0 1.14569e-09
106 3 0.001 0.0193427 0 -0.00264259 -5.98079e-10 0 -9.43246e-09 0 1.14569e-09
107 3 0.001 0.0200091 0 -0.00267608 6.38339e-10 0 1.17689e-08 0 1.14569e-09
108 3 0.001 0.0206756 0 -0.0027096 -2.70753e-10 0 -7.58331e-09 0 1.14569e-09
109 3 0.001 0.021342 0 -0.00274314 3.91677e-10 0 6.0459e-09 0 1.14569e-09
110 3 0.001 0.0220085 0 -0.00277671 -6.36291e-10 0 -1.12644e-08 0 1.14569e-09
111 3 0.001 0.0226749 0 -0.00281031 2.51747e-10 0 9.46246e-09 0 1.14569e-09
112 3 0.001 0.0233414 0 -0.00284392 2.29382e-10 0 3.04324e-09 0 1.14569e-09
113 3 0.001 0.0240078 0 -0.00287756 -3.66479e-10 0 -1.16797e-08 0 1.14569e-09
114 3 0.001 0.0246743 0 -0.00291123 3.4899e-10 0 8.52348e-09 0 1.14569e-09
115 3 0.001 0.0253407 0 -0.00294491 3.14303e-11 0 2.7463e-09 0 1.14569e-09
116 3 0.001 0.0260072 0 -0.00297861 -5.11148e-10 0 -1.26752e-08 0 1.14569e-09
117 3 0.001 0.0266736 0 -0.00301234 8.10176e-10 0 1.59398e-08 0 1.14569e-09
118 3 0.001 0.0273401 0 -0.00304608 -4.79384e-10 0 -9.73237e-09 0 1.14569e-09
119 3 0.001 0.0280065 0 -0.00307984 -5.91648e-10 0 -9.00349e-09 0 1.14569e-09
120 3 0.001 0.028673 0 -0.00311362 1.09035e-09 0 2.2737e-08 0 1.14569e-09
121 3 0.001 0.0293394 0 -0.00314741 -5.19945e-10 0 -1.37817e-08 0 1.14569e-09
122 3 0.001 0.0300058 0 -0.00318122 -1.25143e-10 0 -1.51886e-09 0 1.14569e-09
123 3 0.001 0.0306723 0 -0.00321504 6.28787e-11 0 3.55168e-09 0 1.14569e-09
124 3 0.001 0.0313387 0 -0.00324888 1.33019e-10 0 1.66959e-09 0 1.14569e-09
125 3 0.001 0.0320052 0 -0.00328273 -7.8462e-11 0 -3.07682e-09 0 1.14569e-09
126 3 0.001 0.0326716 0 -0.0033166 2.2558e-10 0 1.98289e-09 0 1.14569e-09
127 3 0.001 0.033338 0 -0.00335048 -7.94531e-11 0 -2.11438e-10 0 1.14569e-09
128 3 0.001 0.0340045 0 -0.00338437 -4.28966e-10 0 -4.08273e-09 0 1.14569e-09
129 3 0.001 0.0346709 0 -0.00341827 4.05868e-10 0 7.05997e-09 0 1.14569e-09
130 3 0.001 0.0353373 0 -0.00345218 -1.41515e-10 0 -5.25363e-09 0 1.14569e-09
131 3 0.001 0.0360038 0 -0.0034861 -4.47408e-11 0 -3.90955e-10 0 1.14569e-09
132 3 0.001 0.0366702 0 -0.00352003 5.84011e-11 0 2.71285e-09 0 1.14569e-09
133 3 0.001 0.0373366 0 -0.00355398 1.81673e-10 0 2.44125e-09 0 1.14569e-09
134 3 0.001 0.0380031 0 -0.00358793 -4.31236e-11 0 -2.86425e-09 0 1.14569e-09
135 3 0.001 0.0386695 0 -0.00362188 -1.27261e-10 0 -2.95884e-09 0 1.14569e-09
136 3 0.001 0.0393359 0 -0.00365585 -4.90768e-11 0 2.74175e-09 0 1.14569e-09
137 3 0.001 0.0400024 0 -0.00368982 -5.12563e-11 0 -7.35583e-11 0 1.14569e-09
138 3 0.001 0.0406688 0 -0.0037238 2.33249e-10 0 2.95847e-10 0 1.14569e-09
139 3 0.001 0.0413352 0 -0.00375778 -6.61172e-12 0 -6.14064e-10 0 1.14569e-09
140 3 0.001 0.0420017 0 -0.00379177 -1.69685e-10 0 3.68221e-10 0 1.14569e-09
141 3 0.001 0.0426681 0 -0.00382577 1.17078e-10 0 2.30075e-09 0 1.14569e-09
142 3 0.001 0.0433345 0 -0.00385977 -1.28375e-10 0 -3.88624e-09 0 1.14569e-09
143 3 0.001 0.044001 0 -0.00389377 2.00214e-10 0 2.00457e-09 0 1.14569e-09
144 3 0.001 0.0446674 0 -0.00392778 -2.59987e-10 0 -3.71347e-09 0 1.14569e-09
145 3 0.001 0.0453338 0 -0.0039618 4.18987e-11 0 2.84261e-09 0 1.14569e-09
48 3 0.001 -0.0193172 0 -0.000813304 -6.34167e-10 0 -1.47091e-08 0 1.14558e-09
49 3 0.001 -0.0186505 0 -0.000841169 4.13329e-10 0 4.95421e-09 0 1.14558e-09
50 3 0.001 -0.0179838 0 -0.000869259 3.63605e-10 0 7.73105e-09 0 1.14559e-09
51 3 0.001 -0.0173171 0 -0.000897568 -4.81631e-10 0 -6.13993e-09 0 1.1456e-09
52 3 0.001 -0.0166504 0 -0.000926086 -2.24266e-10 0 -5.77658e-09 0 1.1456e-09
53 3 0.001 -0.0159837 0 -0.000954808 6.55182e-10 0 1.25901e-08 0 1.14561e-09
54 3 0.001 -0.0153171 0 -0.000983725 -3.4236e-10 0 -7.28998e-09 0 1.14561e-09
55 3 0.001 -0.0146504 0 -0.00101283 -1.32279e-10 0 -1.58951e-09 0 1.14562e-09
56 3 0.001 -0.0139837 0 -0.00104212 3.33586e-10 0 8.4767e-09 0 1.14562e-09
57 3 0.001 -0.0133171 0 -0.00107158 -4.98507e-10 0 -1.31246e-08 0 1.14563e-09
58 3 0.001 -0.0126505 0 -0.00110122 4.09151e-10 0 6.32064e-09 0 1.14563e-09
59 3 0.001 -0.0119838 0 -0.00113102 2.08552e-10 0 6.83096e-09 0 1.14564e-09
60 3 0.001 -0.0113172 0 -0.00116097 -5.18199e-10 0 -9.48771e-09 0 1.14564e-09
61 3 0.001 -0.0106506 0 -0.00119108 8.06502e-11 0 7.34119e-10 0 1.14564e-09
62 3 0.001 -0.00998397 0 -0.00122134 4.17418e-10 0 8.80349e-09 0 1.14565e-09
63 3 0.001 -0.00931736 0 -0.00125174 -4.06795e-10 0 -8.58369e-09 0 1.14565e-09
64 3 0.001 -0.00865076 0 -0.00128227 5.62543e-11 0 2.49509e-09 0 1.14565e-09
65 3 0.001 -0.00798417 0 -0.00131294 7.56724e-12 0 -9.26221e-10 0 1.14565e-09
66 3 0.001 -0.00731759 0 -0.00134374 1.49309e-10 0 9.72977e-10 0 1.14566e-09
69 3 0.001 -0.00531786 0 -0.00143685 4.71656e-10 0 9.47463e-09 0 1.14566e-09
67 3 0.001 -0.006651 0 -0.00137466 3.63475e-11 0 1.59041e-09 0 1.14566e-09
68 3 0.001 -0.00598443 0 -0.0014057 -4.44564e-10 0 -6.20541e-09 0 1.14566e-09
70 3 0.001 -0.0046513 0 -0.00146811 -1.74453e-10 0 -7.10506e-09 0 1.14566e-09
71 3 0.001 -0.00398474 0 -0.00149948 9.35793e-11 0 2.47215e-09 0 1.14567e-09
72 3 0.001 -0.00331818 0 -0.00153096 -1.9962e-10 0 -1.12244e-09 0 1.14567e-09
73 3 0.001 -0.00265163 0 -0.00156253 9.04066e-11 0 2.47031e-09 0 1.14567e-09
74 3 0.001 -0.00198509 0 -0.0015942 7.19213e-11 0 -1.24534e-09 0 1.14567e-09
75 3 0.001 -0.00131854 0 -0.00162596 -5.29033e-11 0 -4.27042e-09 0 1.14567e-09
76 3 0.001 -0.000652008 0 -0.00165781 2.1688e-10 0 7.29393e-09 0 1.14567e-09
77 3 0.001 1.45248e-05 0 -0.00168975 -3.36036e-10 0 -5.31775e-09 0 1.14567e-09
78 3 0.001 0.000681053 0 -0.00172177 2.37675e-10 0 3.85632e-09 0 1.14567e-09
79 3 0.001 0.00134758 0 -0.00175387 -1.4493e-10 0 -4.35166e-09 0 1.14568e-09
80 3 0.001 0.0020141 0 -0.00178605 1.94045e-10 0 5.96636e-09 0 1.14568e-09
81 3 0.001 0.00268062 0 -0.00181831 -4.8946e-10 0 -8.49439e-09 0 1.14568e-09
82 3 0.001 0.00334713 0 -0.00185063 4.00997e-10 0 6.70499e-09 0 1.14568e-09
83 3 0.001 0.00401364 0 -0.00188303 -2.1689e-11 0 -3.1584e-09 0 1.14568e-09
84 3 0.001 0.00468015 0 -0.00191549 1.61469e-10 0 3.19999e-09 0 1.14568e-09
85 3 0.001 0.00534665 0 -0.00194802 -2.31906e-10 0 -1.69955e-09 0 1.14568e-09
86 3 0.001 0.00601315 0 -0.00198061 2.09943e-11 0 3.28038e-09 0 1.14568e-09
87 3 0.001 0.00667965 0 -0.00201326 -3.57662e-10 0 -1.06721e-08 0 1.14568e-09
88 3 0.001 0.00734615 0 -0.00204596 5.51735e-10 0 9.34923e-09 0 1.14568e-09
89 3 0.001 0.00801264 0 -0.00207873 -1.58764e-10 0 -4.29736e-10 0 1.14568e-09
90 3 0.001 0.00867913 0 -0.00211154 -5.02568e-11 0 -5.259e-10 0 1.14568e-09
91 3 0.001 0.00934562 0 -0.00214441 -1.23066e-10 0 -4.69312e-09 0 1.14568e-09
92 3 0.001 0.0100121 0 -0.00217733 1.20697e-10 0 5.87883e-10 0 1.14568e-09
93 3 0.001 0.0106786 0 -0.0022103 4.36983e-10 0 1.04487e-08 0 1.14568e-09
94 3 0.001 0.0113451 0 -0.00224332 -5.97616e-10 0 -9.00835e-09 0 1.14568e-09
95 3 0.001 0.0120115 0 -0.00227638 1.61115e-11 0 -1.3751e-09 0 1.14568e-09
96 3 0.001 0.012678 0 -0.00230948 2.9854e-10 0 3.12418e-09 0 1.14569e-09
97 3 0.001 0.0133445 0 -0.00234263 -1.14709e-10 0 1.04384e-10 0 1.14569e-09
98 3 0.001 0.014011 0 -0.00237582 -2.01406e-10 0 -2.15485e-09 0 1.14569e-09
1 1 0.001 -0.05 0 0 -0.00341194 0 0.00500038 0 1.14427e-32
3 3 0.001 -0.0493333 0 0 0.00704008 0 -0.0051873 0 2.15154e-09
4 3 0.001 -0.0486654 0 -2.31649e-06 -7.59727e-11 0 4.4325e-09 0 2.72316e-09
5 3 0.001 -0.0479982 0 -5.74904e-06 -8.42712e-11 0 -7.40528e-09 0 1.14331e-09
6 3 0.001 -0.0473309 0 -1.02607e-05 1.8802e-10 0 6.18483e-09 0 1.14348e-09
7 3 0.001 -0.0466636 0 -1.58137e-05 9.70204e-11 0 -1.87564e-09 0 1.14363e-09
8 3 0.001 -0.0459963 0 -2.23718e-05 -1.60825e-10 0 -2.77586e-09 0 1.14377e-09
9 3 0.001 -0.0453291 0 -2.98999e-05 -8.93371e-11 0 3.32372e-09 0 1.1439e-09
10 3 0.001 -0.0446618 0 -3.8364e-05 9.31927e-11 0 1.66723e-09 0 1.14402e-09
11 3 0.001 -0.0439946 0 -4.77316e-05 5.49103e-12 0 -5.69312e-09 0 1.14414e-09
12 3 0.001 -0.0433274 0 -5.7971e-05 -4.53537e-11 0 2.32613e-09 0 1.14424e-09
13 3 0.001 -0.0426602 0 -6.90519e-05 -2.5721e-11 0 1.96903e-09 0 1.14434e-09
14 3 0.001 -0.041993 0 -8.09447e-05 1.38931e-10 0 2.66322e-09 0 1.14443e-09
15 3 0.001 -0.0413258 0 -9.36213e-05 2.98184e-12 0 -8.79147e-09 0 1.14452e-09
16 3 0.001 -0.0406587 0 -0.000107054 -2.6731e-12 0 4.21624e-09 0 1.1446e-09
17 3 0.001 -0.0399915 0 -0.000121217 -5.26847e-11 0 5.99232e-09 0 1.14467e-09
18 3 0.001 -0.0393244 0 -0.000136084 -2.53087e-10 0 -1.11344e-08 0 1.14474e-09
19 3 0.001 -0.0386573 0 -0.000151631 3.9164e-10 0 1.00364e-08 0 1.14481e-09
20 3 0.001 -0.0379902 0 -0.000167834 -1.6578e-10 0 -4.71479e-09 0 1.14487e-09
21 3 0.001 -0.0373231 0 -0.00018467 -1.05335e-10 0 -2.65925e-09 0 1.14493e-09
22 3 0.001 -0.036656 0 -0.000202117 2.29092e-10 0 8.27409e-09 0 1.14498e-09
23 3 0.001 -0.035989 0 -0.000220154 -1.75256e-10 0 -7.90376e-09 0 1.14503e-09
24 3 0.001 -0.0353219 0 -0.00023876 5.97026e-11 0 -5.14723e-10 0 1.14507e-09
25 3 0.001 -0.0346549 0 -0.000257915 1.54227e-10 0 1.04445e-08 0 1.14511e-09
26 3 0.001 -0.0339879 0 -0.0002776 -4.36591e-10 0 -1.25548e-08 0 1.14515e-09
27 3 0.001 -0.0333209 0 -0.000297797 3.54835e-10 0 6.12318e-09 0 1.14519e-09
28 3 0.001 -0.0326539 0 -0.000318487 3.93539e-11 0 1.51765e-09 0 1.14522e-09
29 3 0.001 -0.031987 0 -0.000339653 -2.15536e-10 0 -5.07134e-09 0 1.14526e-09
30 3 0.001 -0.03132 0 -0.00036128 5.24865e-11 0 4.25525e-09 0 1.14529e-09
31 3 0.001 -0.0306531 0 -0.00038335 6.26526e-11 0 1.65815e-10 0 1.14531e-09
32 3 0.001 -0.0299862 0 -0.000405848 8.73065e-11 0 -3.08074e-09 0 1.14534e-09
33 3 0.001 -0.0293193 0 -0.00042876 1.13782e-10 0 4.20327e-09 0 1.14536e-09
34 3 0.001 -0.0286524 0 -0.00045207 -5.16277e-10 0 -8.14361e-09 0 1.14538e-09
35 3 0.001 -0.0279855 0 -0.000475765 2.28811e-10 0 5.70954e-09 0 1.14541e-09
36 3 0.001 -0.0273186 0 -0.000499832 3.47961e-10 0 4.98983e-09 0 1.14542e-09
37 3 0.001 -0.0266518 0 -0.000524257 -3.78668e-10 0 -8.62953e-09 0 1.14544e-09
38 3 0.001 -0.0259849 0 -0.000549028 -6.24813e-11 0 -1.89353e-12 0 1.14546e-09
39 3 0.001 -0.0253181 0 -0.000574133 4.01281e-10 0 1.10102e-08 0 1.14548e-09
40 3 0.001 -0.0246513 0 -0.00059956 -2.96932e-10 0 -1.12394e-08 0 1.14549e-09
41 3 0.001 -0.0239845 0 -0.000625298 2.09782e-10 0 2.5119e-09 0 1.1455e-09
42 3 0.001 -0.0233177 0 -0.000651336 -1.42848e-10 0 1.80773e-09 0 1.14552e-09
43 3 0.001 -0.0226509 0 -0.000677664 -1.56651e-10 0 -2.20714e-11 0 1.14553e-09
44 3 0.001 -0.0219842 0 -0.000704271 1.14546e-10 0 -1.08918e-09 0 1.14554e-09
45 3 0.001 -0.0213174 0 -0.000731148 1.84726e-11 0 -1.23807e-09 0 1.14555e-09
46 3 0.001 -0.0206507 0 -0.000758285 1.92201e-13 0 4.26283e-10 0 1.14556e-09
47 3 0.001 -0.0199839 0 -0.000785673 2.573e-10 0 8.8759e-09 0 1.14557e-09
