ITEM: TIMESTEP
800000
ITEM: NUMBER OF ATOMS
151
ITEM: BOX BOUNDS ff ff ff
-5.2499999999999998e-02 5.2499999999999998e-02
-6.0000000000000001e-03 6.0000000000000001e-03
-1.4999999999999999e-02 1.4999999999999999e-02
ITEM: ATOMS id type radius x y z fx fy fz c_bendingE c_stretchingE
145 3 0.001 0.043068 0 -0.00720464 -4.80271e-06 0 1.8281e-06 0 1.36563e-08
146 3 0.001 0.043701 0 -0.0072611 6.90191e-06 0 6.4924e-07 0 1.36583e-08
147 3 0.001 0.0443339 0 -0.00731756 5.83508e-06 0 8.05946e-07 0 1.36716e-08
148 3 0.001 0.0449669 0 -0.00737402 -3.38741e-06 0 -4.91186e-07 0 1.36742e-08
149 3 0.001 0.0455998 0 -0.00743048 8.30292e-06 0 -3.20322e-06 0 1.38681e-08
150 3 0.001 0.0462328 0 -0.00748695 -2.94355e-06 0 -1.04677e-06 0 1.8892e-08
2 2 0.001 0.0475 0 -0.0076 -0.0128309 0 0.00114691 0 1.18606e-08
151 3 0.001 0.0468664 0 -0.00754347 1.07708e-06 0 3.25211e-07 0 2.37198e-08
117 3 0.001 0.0253455 0 -0.0056243 -8.31934e-06 0 3.85432e-07 0 1.36763e-08
118 3 0.001 0.0259785 0 -0.00568071 -5.93358e-06 0 8.58064e-08 0 1.36612e-08
119 3 0.001 0.0266114 0 -0.00573712 1.08232e-05 0 -1.46527e-06 0 1.36665e-08
120 3 0.001 0.0272444 0 -0.00579354 3.48206e-06 0 -5.81823e-07 0 1.36818e-08
121 3 0.001 0.0278773 0 -0.00584997 -1.62745e-06 0 -5.15663e-07 0 1.36839e-08
124 3 0.001 0.0297762 0 -0.00601925 -5.20743e-06 0 1.13974e-06 0 1.36784e-08
122 3 0.001 0.0285103 0 -0.00590639 6.48246e-06 0 -1.51587e-06 0 1.36892e-08
123 3 0.001 0.0291432 0 -0.00596282 -5.81027e-06 0 -3.34055e-07 0 1.36901e-08
126 3 0.001 0.0310421 0 -0.00613212 3.02489e-06 0 1.51153e-06 0 1.36829e-08
125 3 0.001 0.0304091 0 -0.00607569 3.37158e-06 0 2.9756e-07 0 1.36763e-08
129 3 0.001 0.0329409 0 -0.00630143 5.333e-07 0 -7.81095e-07 0 1.37157e-08
128 3 0.001 0.0323079 0 -0.006245 6.9185e-06 0 -9.83222e-07 0 1.37076e-08
127 3 0.001 0.031675 0 -0.00618856 6.78712e-06 0 8.81939e-07 0 1.36931e-08
130 3 0.001 0.0335738 0 -0.00635788 -8.65518e-06 0 -2.2556e-08 0 1.37071e-08
131 3 0.001 0.0342068 0 -0.00641432 -1.37013e-06 0 2.55591e-07 0 1.36965e-08
133 3 0.001 0.0354727 0 -0.00652721 -1.03642e-05 0 2.26447e-07 0 1.36815e-08
132 3 0.001 0.0348397 0 -0.00647076 -1.27576e-06 0 -6.11825e-07 0 1.36937e-08
134 3 0.001 0.0361056 0 -0.00658365 1.58964e-06 0 -3.38242e-07 0 1.36722e-08
135 3 0.001 0.0367386 0 -0.0066401 2.9798e-06 0 1.24093e-06 0 1.36769e-08
136 3 0.001 0.0373715 0 -0.00669655 6.19345e-06 0 8.62346e-08 0 1.36865e-08
137 3 0.001 0.0380045 0 -0.006753 -1.04345e-06 0 1.65776e-06 0 1.36918e-08
138 3 0.001 0.0386374 0 -0.00680945 -7.08318e-06 0 5.91821e-07 0 1.3683e-08
139 3 0.001 0.0392704 0 -0.0068659 4.4757e-06 0 -1.04354e-06 0 1.36803e-08
140 3 0.001 0.0399033 0 -0.00692235 -3.671e-07 0 -1.01455e-06 0 1.36848e-08
142 3 0.001 0.0411692 0 -0.00703526 -5.79521e-06 0 1.72312e-07 0 1.36732e-08
143 3 0.001 0.0418021 0 -0.00709172 5.23597e-07 0 -1.31872e-06 0 1.36678e-08
141 3 0.001 0.0405363 0 -0.00697881 -2.48114e-06 0 -3.50805e-07 0 1.3682e-08
144 3 0.001 0.0424351 0 -0.00714818 -3.25086e-06 0 2.09187e-07 0 1.3665e-08
89 3 0.001 0.00762279 0 -0.0040469 -6.3186e-07 0 4.36489e-07 0 1.36662e-08
90 3 0.001 0.00825575 0 -0.00410312 1.33593e-05 0 -5.48651e-07 0 1.36796e-08
91 3 0.001 0.00888872 0 -0.00415936 -6.25569e-06 0 4.15358e-07 0 1.36872e-08
93 3 0.001 0.0101546 0 -0.00427187 -2.46929e-06 0 -1.20618e-06 0 1.366e-08
92 3 0.001 0.00952168 0 -0.00421561 -8.60299e-06 0 -9.61234e-07 0 1.36715e-08
94 3 0.001 0.0107876 0 -0.00432814 -5.75068e-06 0 -1.0026e-06 0 1.36515e-08
95 3 0.001 0.0114206 0 -0.00438442 6.52387e-06 0 9.42626e-07 0 1.36523e-08
96 3 0.001 0.0120535 0 -0.00444072 6.70718e-06 0 1.33133e-06 0 1.36661e-08
97 3 0.001 0.0126865 0 -0.00449702 -1.46456e-05 0 2.51335e-06 0 1.36574e-08
98 3 0.001 0.0133194 0 -0.00455333 6.91428e-06 0 -4.05256e-07 0 1.3649e-08
100 3 0.001 0.0145853 0 -0.00466597 -8.39281e-06 0 9.21422e-08 0 1.36599e-08
99 3 0.001 0.0139524 0 -0.00460964 5.88135e-06 0 -2.41928e-07 0 1.36626e-08
102 3 0.001 0.0158512 0 -0.00477863 6.67305e-06 0 -1.4249e-06 0 1.36903e-08
103 3 0.001 0.0164842 0 -0.00483498 3.79705e-06 0 -1.90266e-06 0 1.37017e-08
101 3 0.001 0.0152183 0 -0.0047223 1.5085e-05 0 -6.79496e-07 0 1.36671e-08
104 3 0.001 0.0171172 0 -0.00489133 -4.10813e-06 0 -8.1329e-07 0 1.37016e-08
105 3 0.001 0.0177501 0 -0.00494768 -1.29286e-05 0 1.6289e-06 0 1.36835e-08
106 3 0.001 0.0183831 0 -0.00500404 4.32353e-06 0 1.99282e-06 0 1.36741e-08
107 3 0.001 0.019016 0 -0.00506041 -5.85371e-06 0 2.18495e-06 0 1.36721e-08
108 3 0.001 0.019649 0 -0.00511678 8.05744e-06 0 -5.47301e-07 0 1.36742e-08
109 3 0.001 0.0202819 0 -0.00517315 2.06784e-06 0 -8.32809e-07 0 1.36851e-08
110 3 0.001 0.0209149 0 -0.00522953 -7.86714e-06 0 4.70535e-07 0 1.3679e-08
111 3 0.001 0.0215478 0 -0.00528591 -3.10718e-06 0 1.21393e-07 0 1.36673e-08
112 3 0.001 0.0221808 0 -0.0053423 -1.55891e-06 0 -8.13558e-07 0 1.36625e-08
114 3 0.001 0.0234467 0 -0.00545509 5.07472e-06 0 -2.45643e-07 0 1.36737e-08
113 3 0.001 0.0228137 0 -0.00539869 3.32919e-06 0 -1.95741e-06 0 1.36646e-08
116 3 0.001 0.0247126 0 -0.00556789 -2.57945e-06 0 1.87811e-06 0 1.3688e-08
115 3 0.001 0.0240796 0 -0.00551149 5.61568e-06 0 8.94223e-08 0 1.3685e-08
60 3 0.001 -0.0107343 0 -0.00242885 -2.31752e-06 0 3.29492e-07 0 1.36625e-08
62 3 0.001 -0.00946819 0 -0.00253911 1.22229e-05 0 -1.4782e-06 0 1.3664e-08
61 3 0.001 -0.0101012 0 -0.00248394 -4.25968e-06 0 4.30974e-07 0 1.36555e-08
64 3 0.001 -0.00820209 0 -0.00264968 -9.64585e-06 0 8.1155e-07 0 1.36851e-08
65 3 0.001 -0.00756905 0 -0.00270507 4.33317e-06 0 -5.134e-07 0 1.36794e-08
63 3 0.001 -0.00883513 0 -0.00259436 8.48264e-06 0 -1.40224e-06 0 1.36862e-08
66 3 0.001 -0.00693602 0 -0.00276052 -3.24952e-06 0 1.65629e-07 0 1.36806e-08
67 3 0.001 -0.00630299 0 -0.00281603 -8.3498e-06 0 3.96187e-07 0 1.36683e-08
68 3 0.001 -0.00566997 0 -0.0028716 1.98298e-06 0 2.20636e-07 0 1.36615e-08
69 3 0.001 -0.00503695 0 -0.00292722 -9.7172e-06 0 1.81777e-06 0 1.36531e-08
71 3 0.001 -0.00377093 0 -0.0030386 9.88926e-06 0 -2.25993e-08 0 1.3663e-08
72 3 0.001 -0.00313792 0 -0.00309436 1.56941e-05 0 -2.24553e-06 0 1.36903e-08
70 3 0.001 -0.00440394 0 -0.00298288 4.73595e-06 0 9.40884e-07 0 1.36476e-08
73 3 0.001 -0.00250492 0 -0.00315015 1.00339e-05 0 -2.57107e-06 0 1.3718e-08
74 3 0.001 -0.00187191 0 -0.00320599 -1.44457e-05 0 -3.29791e-07 0 1.37136e-08
75 3 0.001 -0.00123892 0 -0.00326187 -7.87112e-06 0 6.81855e-07 0 1.36899e-08
76 3 0.001 -0.000605922 0 -0.00331777 -4.30572e-06 0 1.04348e-06 0 1.36769e-08
79 3 0.001 0.00129304 0 -0.00348568 1.33163e-05 0 -1.89068e-07 0 1.36751e-08
77 3 0.001 2.70682e-05 0 -0.00337371 -5.86042e-06 0 2.01207e-06 0 1.36658e-08
78 3 0.001 0.000660055 0 -0.00342968 7.6846e-07 0 2.22498e-07 0 1.36602e-08
80 3 0.001 0.00192602 0 -0.0035417 1.22329e-05 0 1.17058e-07 0 1.37022e-08
81 3 0.001 0.00255901 0 -0.00359775 9.27862e-07 0 -2.09155e-07 0 1.37161e-08
83 3 0.001 0.00382497 0 -0.00370992 -1.3623e-05 0 -9.403e-07 0 1.37032e-08
84 3 0.001 0.00445794 0 -0.00376604 -1.56143e-05 0 9.65186e-07 0 1.36723e-08
82 3 0.001 0.00319199 0 -0.00365382 5.35163e-08 0 -1.50381e-06 0 1.37173e-08
85 3 0.001 0.00509091 0 -0.00382217 2.2477e-06 0 -7.64013e-07 0 1.36581e-08
86 3 0.001 0.00572388 0 -0.00387833 3.71965e-06 0 6.24344e-07 0 1.36644e-08
87 3 0.001 0.00635685 0 -0.0039345 5.0594e-06 0 -7.29163e-08 0 1.36737e-08
88 3 0.001 0.00698982 0 -0.0039907 -5.67041e-06 0 9.5412e-07 0 1.36729e-08
29 3 0.001 -0.030367 0 -0.000813022 -7.9929e-06 0 1.58437e-06 0 1.36626e-08
31 3 0.001 -0.0290996 0 -0.000907401 5.71984e-06 0 6.3551e-07 0 1.36821e-08
30 3 0.001 -0.0297332 0 -0.000859918 1.01245e-05 0 5.79171e-07 0 1.36651e-08
33 3 0.001 -0.0278323 0 -0.00100399 7.35625e-06 0 -1.88637e-06 0 1.36893e-08
34 3 0.001 -0.0271988 0 -0.00105302 -2.28035e-06 0 -1.09754e-06 0 1.36951e-08
32 3 0.001 -0.0284659 0 -0.000955435 -3.41705e-06 0 9.15845e-07 0 1.36847e-08
35 3 0.001 -0.0265652 0 -0.00110251 -7.36411e-06 0 1.68043e-07 0 1.36852e-08
36 3 0.001 -0.0259317 0 -0.00115243 1.34318e-06 0 -4.04087e-07 0 1.3679e-08
38 3 0.001 -0.0246648 0 -0.00125344 7.29757e-07 0 1.13414e-06 0 1.36742e-08
39 3 0.001 -0.0240314 0 -0.00130449 4.1445e-06 0 1.19962e-06 0 1.36793e-08
37 3 0.001 -0.0252983 0 -0.00120275 -3.44429e-06 0 -1.02248e-07 0 1.3677e-08
41 3 0.001 -0.0227647 0 -0.00140755 -1.02483e-05 0 1.56766e-06 0 1.36635e-08
40 3 0.001 -0.0233981 0 -0.00135586 -4.25709e-06 0 1.66422e-06 0 1.3679e-08
42 3 0.001 -0.0221314 0 -0.00145952 -7.82748e-06 0 -6.31523e-07 0 1.36444e-08
43 3 0.001 -0.0214981 0 -0.00151177 3.70937e-06 0 -1.65961e-06 0 1.36403e-08
45 3 0.001 -0.0202315 0 -0.00161702 2.70433e-08 0 -7.32108e-07 0 1.36831e-08
46 3 0.001 -0.0195983 0 -0.00166999 -3.2876e-06 0 8.45266e-07 0 1.36797e-08
44 3 0.001 -0.0208648 0 -0.00156427 1.80182e-05 0 -2.13801e-06 0 1.36637e-08
47 3 0.001 -0.0189651 0 -0.00172317 3.78175e-06 0 -1.00058e-06 0 1.36803e-08
48 3 0.001 -0.0183318 0 -0.00177656 -4.76848e-06 0 2.05044e-06 0 1.36792e-08
50 3 0.001 -0.0170655 0 -0.00188387 2.0431e-06 0 1.36329e-06 0 1.36918e-08
49 3 0.001 -0.0176986 0 -0.00183012 7.46205e-06 0 1.78566e-07 0 1.36818e-08
51 3 0.001 -0.0164323 0 -0.00193777 2.62439e-06 0 7.87908e-07 0 1.36966e-08
52 3 0.001 -0.0157991 0 -0.00199183 1.4387e-06 0 -1.33597e-06 0 1.3701e-08
53 3 0.001 -0.015166 0 -0.00204604 -1.13828e-05 0 -1.12092e-06 0 1.36907e-08
55 3 0.001 -0.0138997 0 -0.00215485 -9.97475e-06 0 9.81416e-07 0 1.36635e-08
54 3 0.001 -0.0145329 0 -0.00210038 -2.27033e-06 0 -7.71617e-07 0 1.36764e-08
56 3 0.001 -0.0132666 0 -0.00220944 4.53309e-06 0 4.12966e-08 0 1.36576e-08
57 3 0.001 -0.0126335 0 -0.00226414 8.72428e-06 0 -8.61281e-07 0 1.36717e-08
58 3 0.001 -0.0120005 0 -0.00231895 -9.9267e-06 0 1.00886e-06 0 1.36705e-08
59 3 0.001 -0.0113674 0 -0.00237385 2.45317e-06 0 4.29564e-07 0 1.36624e-08
1 1 0.001 -0.0475 0 0 -0.00410899 0 0.0164717 0 1.60362e-34
3 3 0.001 -0.0468667 0 0 0.016942 0 -0.0176138 0 1.18506e-08
4 3 0.001 -0.0462306 0 -6.55831e-06 1.05997e-06 0 -2.03676e-07 0 1.88557e-08
5 3 0.001 -0.0455952 0 -1.61877e-05 -4.89755e-06 0 -9.17631e-07 0 1.38127e-08
6 3 0.001 -0.0449598 0 -2.87049e-05 2.11023e-06 0 -1.2359e-06 0 1.36214e-08
7 3 0.001 -0.0443246 0 -4.39323e-05 -1.11096e-05 0 -1.04012e-06 0 1.36193e-08
8 3 0.001 -0.0436894 0 -6.17025e-05 2.7857e-07 0 4.62056e-08 0 1.36143e-08
9 3 0.001 -0.0430542 0 -8.18581e-05 2.36916e-06 0 4.65501e-07 0 1.36228e-08
10 3 0.001 -0.0424192 0 -0.000104252 -2.12728e-06 0 1.14495e-06 0 1.3628e-08
11 3 0.001 -0.0417842 0 -0.000128744 2.74167e-06 0 4.93019e-07 0 1.36331e-08
12 3 0.001 -0.0411493 0 -0.000155207 7.16994e-06 0 5.46543e-07 0 1.36474e-08
13 3 0.001 -0.0405145 0 -0.000183517 1.39099e-06 0 2.69248e-07 0 1.36598e-08
14 3 0.001 -0.0398797 0 -0.000213561 -4.03942e-06 0 -7.46657e-08 0 1.366e-08
15 3 0.001 -0.039245 0 -0.000245232 -1.70604e-06 0 5.91943e-07 0 1.36566e-08
16 3 0.001 -0.0386105 0 -0.00027843 3.5103e-06 0 -1.58366e-06 0 1.36609e-08
17 3 0.001 -0.0379759 0 -0.00031306 -1.38303e-06 0 -4.01475e-07 0 1.36653e-08
18 3 0.001 -0.0373415 0 -0.000349034 2.6419e-06 0 -6.94172e-07 0 1.36685e-08
19 3 0.001 -0.0367071 0 -0.000386269 -2.68781e-06 0 8.06049e-07 0 1.36701e-08
20 3 0.001 -0.0360728 0 -0.000424688 -4.88621e-06 0 1.64997e-06 0 1.36633e-08
21 3 0.001 -0.0354386 0 -0.000464215 5.733e-07 0 1.31764e-06 0 1.36598e-08
22 3 0.001 -0.0348045 0 -0.000504784 3.89614e-06 0 -2.99212e-08 0 1.36655e-08
23 3 0.001 -0.0341704 0 -0.000546331 5.39347e-06 0 -1.39299e-06 0 1.36764e-08
24 3 0.001 -0.0335363 0 -0.000588795 1.5055e-06 0 -6.78071e-07 0 1.36847e-08
25 3 0.001 -0.0329023 0 -0.000632121 -1.82124e-07 0 -9.89261e-07 0 1.3687e-08
26 3 0.001 -0.0322684 0 -0.000676255 6.46531e-06 0 -1.27549e-06 0 1.36945e-08
27 3 0.001 -0.0316346 0 -0.000721147 3.05487e-06 0 -1.09866e-06 0 1.37053e-08
28 3 0.001 -0.0310007 0 -0.000766751 -1.80581e-05 0 7.62757e-07 0 1.36899e-08
