ITEM: TIMESTEP
1700000
ITEM: NUMBER OF ATOMS
151
ITEM: BOX BOUNDS ff ff ff
-5.5000000000000000e-02 5.5000000000000000e-02
-6.0000000000000001e-03 6.0000000000000001e-03
-2.5000000000000001e-02 2.5000000000000001e-02
ITEM: ATOMS id type radius x y z fx fy fz c_bendingE c_stretchingE
99 3 0.001 0.0146697 0 -0.000881005 -6.87516e-09 0 5.96004e-09 0 2.89808e-11
100 3 0.001 0.0153363 0 -0.000895513 -2.2278e-07 0 -1.6525e-09 0 2.89694e-11
101 3 0.001 0.0160029 0 -0.000910076 -2.63007e-08 0 8.00031e-10 0 2.89569e-11
102 3 0.001 0.0166695 0 -0.000924694 2.30177e-08 0 7.7567e-09 0 2.89568e-11
103 3 0.001 0.0173361 0 -0.000939364 1.55988e-07 0 -7.22712e-09 0 2.89658e-11
104 3 0.001 0.0180027 0 -0.000954087 1.96534e-07 0 -7.14467e-09 0 2.89836e-11
105 3 0.001 0.0186693 0 -0.000968861 4.87329e-10 0 -2.45475e-09 0 2.89935e-11
106 3 0.001 0.0193359 0 -0.000983685 8.01917e-09 0 4.83869e-09 0 2.8994e-11
107 3 0.001 0.0200025 0 -0.000998556 -1.32186e-07 0 2.48865e-09 0 2.89878e-11
108 3 0.001 0.0206691 0 -0.00101348 -4.20436e-08 0 -1.24876e-09 0 2.89791e-11
109 3 0.001 0.0213357 0 -0.00102844 5.47967e-09 0 -3.39399e-10 0 2.89773e-11
110 3 0.001 0.0220023 0 -0.00104345 -1.09127e-07 0 3.82411e-09 0 2.89721e-11
111 3 0.001 0.0226689 0 -0.0010585 -7.0611e-08 0 3.64275e-10 0 2.89631e-11
112 3 0.001 0.0233355 0 -0.0010736 -1.87755e-08 0 3.11084e-09 0 2.89587e-11
113 3 0.001 0.0240021 0 -0.00108874 6.67984e-08 0 -3.94534e-09 0 2.89611e-11
114 3 0.001 0.0246687 0 -0.00110392 1.41444e-08 0 6.47114e-10 0 2.89652e-11
115 3 0.001 0.0253353 0 -0.00111913 1.23592e-08 0 -9.86636e-11 0 2.89666e-11
116 3 0.001 0.0260019 0 -0.00113439 7.79147e-08 0 9.09232e-10 0 2.89711e-11
117 3 0.001 0.0266685 0 -0.00114968 -1.15073e-07 0 -2.16412e-09 0 2.89693e-11
118 3 0.001 0.0273351 0 -0.00116501 3.02151e-08 0 -1.95698e-09 0 2.89651e-11
119 3 0.001 0.0280016 0 -0.00118037 8.87506e-08 0 7.58735e-10 0 2.89711e-11
120 3 0.001 0.0286682 0 -0.00119577 -5.47249e-08 0 2.58877e-09 0 2.89728e-11
121 3 0.001 0.0293348 0 -0.0012112 7.66467e-08 0 -4.48345e-09 0 2.89739e-11
122 3 0.001 0.0300014 0 -0.00122666 9.38322e-08 0 -2.94143e-10 0 2.89825e-11
123 3 0.001 0.030668 0 -0.00124215 -1.13062e-07 0 -5.75142e-10 0 2.89816e-11
124 3 0.001 0.0313346 0 -0.00125767 -1.73202e-07 0 7.77195e-09 0 2.89672e-11
125 3 0.001 0.0320012 0 -0.00127322 1.53449e-08 0 -6.28833e-10 0 2.89593e-11
126 3 0.001 0.0326678 0 -0.00128879 5.41877e-08 0 -1.376e-09 0 2.89628e-11
127 3 0.001 0.0333343 0 -0.0013044 4.09083e-08 0 -3.8354e-10 0 2.89676e-11
128 3 0.001 0.0340009 0 -0.00132002 2.25906e-07 0 -4.62159e-09 0 2.8981e-11
129 3 0.001 0.0346675 0 -0.00133567 4.74779e-08 0 -3.35546e-09 0 2.89948e-11
130 3 0.001 0.0353341 0 -0.00135135 -4.46783e-08 0 9.96544e-10 0 2.89949e-11
131 3 0.001 0.0360007 0 -0.00136705 -1.32218e-07 0 4.8567e-09 0 2.89861e-11
132 3 0.001 0.0366673 0 -0.00138276 -2.15691e-08 0 -2.29568e-09 0 2.89784e-11
133 3 0.001 0.0373338 0 -0.0013985 8.33611e-08 0 1.96461e-09 0 2.89815e-11
134 3 0.001 0.0380004 0 -0.00141426 -1.30215e-07 0 -2.3675e-10 0 2.89792e-11
135 3 0.001 0.038667 0 -0.00143003 7.49488e-08 0 -1.57847e-09 0 2.89764e-11
136 3 0.001 0.0393336 0 -0.00144582 -4.29244e-08 0 1.20974e-09 0 2.8978e-11
137 3 0.001 0.0400002 0 -0.00146163 4.17465e-08 0 2.46049e-10 0 2.8978e-11
138 3 0.001 0.0406667 0 -0.00147745 -3.32363e-08 0 -6.72892e-10 0 2.89784e-11
139 3 0.001 0.0413333 0 -0.00149329 -1.22314e-07 0 4.76105e-09 0 2.89706e-11
140 3 0.001 0.0419999 0 -0.00150914 9.25839e-08 0 -5.44788e-09 0 2.89692e-11
141 3 0.001 0.0426665 0 -0.001525 1.18191e-08 0 4.13054e-09 0 2.89744e-11
142 3 0.001 0.043333 0 -0.00154087 -1.61956e-07 0 1.41304e-09 0 2.89669e-11
143 3 0.001 0.0439996 0 -0.00155675 2.66595e-08 0 -1.00284e-09 0 2.89601e-11
144 3 0.001 0.0446662 0 -0.00157264 1.00959e-07 0 -3.24465e-09 0 2.89665e-11
145 3 0.001 0.0453328 0 -0.00158854 -6.29404e-08 0 6.53503e-09 0 2.89684e-11
146 3 0.001 0.0459994 0 -0.00160445 7.64215e-08 0 -4.52792e-09 0 2.89691e-11
147 3 0.001 0.0466659 0 -0.00162036 -1.31577e-07 0 -9.64544e-10 0 2.89664e-11
148 3 0.001 0.0473325 0 -0.00163628 6.52e-08 0 3.52478e-09 0 2.8963e-11
149 3 0.001 0.0479991 0 -0.0016522 6.0723e-08 0 -7.6707e-09 0 2.89694e-11
150 3 0.001 0.0486657 0 -0.00166812 -4.28623e-08 0 5.89466e-09 0 7.04894e-10
2 2 0.001 0.05 0 -0.0017 -0.000577415 0 1.80792e-05 0 6.90409e-10
151 3 0.001 0.0493328 0 -0.00168406 3.0335e-09 0 -2.5258e-09 0 1.38082e-09
1 1 0.001 -0.05 0 0 -0.003416 0 0.00120763 0 1.14427e-32
3 3 0.001 -0.0493333 0 0 0.00399346 0 -0.00122559 0 6.92181e-10
4 3 0.001 -0.048666 0 -5.59008e-07 4.24011e-08 0 3.71992e-09 0 7.06657e-10
5 3 0.001 -0.0479992 0 -1.39306e-06 -2.96475e-08 0 -2.80584e-09 0 2.89516e-11
6 3 0.001 -0.0473324 0 -2.49866e-06 -7.30363e-08 0 1.78463e-09 0 2.89471e-11
7 3 0.001 -0.0466657 0 -3.87187e-06 -4.31278e-09 0 -1.99068e-09 0 2.89439e-11
8 3 0.001 -0.0459989 0 -5.50881e-06 -4.6249e-08 0 2.10394e-09 0 2.8942e-11
9 3 0.001 -0.0453321 0 -7.40566e-06 8.2535e-08 0 9.02367e-10 0 2.89445e-11
10 3 0.001 -0.0446654 0 -9.55864e-06 -1.12967e-07 0 -8.66863e-10 0 2.89436e-11
11 3 0.001 -0.0439986 0 -1.1964e-05 -2.93695e-08 0 -2.63517e-09 0 2.8937e-11
12 3 0.001 -0.0433319 0 -1.46181e-05 1.5828e-07 0 2.93167e-09 0 2.89441e-11
13 3 0.001 -0.0426651 0 -1.75173e-05 -5.00473e-09 0 -1.07706e-09 0 2.89523e-11
14 3 0.001 -0.0419983 0 -2.06581e-05 1.00502e-08 0 3.67887e-09 0 2.89531e-11
15 3 0.001 -0.0413316 0 -2.40368e-05 7.90512e-08 0 -6.15023e-09 0 2.89581e-11
16 3 0.001 -0.0406648 0 -2.76501e-05 -7.16141e-08 0 3.59266e-09 0 2.8959e-11
17 3 0.001 -0.0399981 0 -3.14944e-05 1.05471e-07 0 -2.60498e-09 0 2.89612e-11
18 3 0.001 -0.0393313 0 -3.55665e-05 4.29314e-08 0 1.17314e-09 0 2.89692e-11
19 3 0.001 -0.0386646 0 -3.98629e-05 -6.08814e-08 0 3.21694e-09 0 2.89687e-11
20 3 0.001 -0.0379978 0 -4.43804e-05 1.43733e-07 0 -4.28093e-09 0 2.89734e-11
21 3 0.001 -0.0373311 0 -4.91157e-05 -6.66955e-08 0 -1.05032e-09 0 2.89777e-11
22 3 0.001 -0.0366643 0 -5.40656e-05 8.011e-09 0 1.53454e-09 0 2.89752e-11
23 3 0.001 -0.0359976 0 -5.9227e-05 3.15917e-08 0 -2.4418e-09 0 2.89776e-11
24 3 0.001 -0.0353308 0 -6.45966e-05 -1.49046e-08 0 2.10813e-09 0 2.89788e-11
25 3 0.001 -0.0346641 0 -7.01716e-05 2.72471e-08 0 -2.08212e-09 0 2.89799e-11
26 3 0.001 -0.0339973 0 -7.59487e-05 -7.33843e-08 0 -2.91316e-10 0 2.89779e-11
27 3 0.001 -0.0333306 0 -8.1925e-05 -8.90416e-08 0 6.07003e-09 0 2.89702e-11
28 3 0.001 -0.0326639 0 -8.80976e-05 -2.33087e-07 0 -1.67848e-09 0 2.89544e-11
29 3 0.001 -0.0319971 0 -9.44635e-05 -6.67808e-08 0 2.02435e-09 0 2.89397e-11
30 3 0.001 -0.0313304 0 -0.00010102 2.15647e-07 0 -1.86464e-09 0 2.89475e-11
31 3 0.001 -0.0306636 0 -0.000107764 9.76228e-08 0 1.50682e-10 0 2.89636e-11
32 3 0.001 -0.0299969 0 -0.000114693 -2.58826e-08 0 -2.47118e-09 0 2.89675e-11
33 3 0.001 -0.0293302 0 -0.000121803 2.1097e-08 0 5.79055e-10 0 2.89676e-11
34 3 0.001 -0.0286635 0 -0.000129094 -3.573e-08 0 -4.01537e-10 0 2.89672e-11
35 3 0.001 -0.0279967 0 -0.00013656 -1.07136e-07 0 3.91366e-09 0 2.89603e-11
36 3 0.001 -0.02733 0 -0.000144201 5.05898e-08 0 -2.61581e-09 0 2.89578e-11
37 3 0.001 -0.0266633 0 -0.000152013 2.8136e-08 0 5.93177e-10 0 2.8962e-11
38 3 0.001 -0.0259966 0 -0.000159994 -3.96005e-08 0 6.46846e-10 0 2.89617e-11
39 3 0.001 -0.0253299 0 -0.00016814 7.15727e-08 0 -2.44344e-09 0 2.89636e-11
40 3 0.001 -0.0246631 0 -0.000176451 -4.43597e-08 0 3.01227e-09 0 2.89652e-11
41 3 0.001 -0.0239964 0 -0.000184923 -7.9198e-08 0 -3.09816e-09 0 2.89593e-11
42 3 0.001 -0.0233297 0 -0.000193553 7.61438e-09 0 4.57795e-09 0 2.89559e-11
43 3 0.001 -0.022663 0 -0.00020234 2.26579e-08 0 1.1035e-09 0 2.89577e-11
44 3 0.001 -0.0219963 0 -0.00021128 1.78433e-08 0 -8.1741e-09 0 2.89599e-11
45 3 0.001 -0.0213296 0 -0.000220372 6.39053e-08 0 3.43526e-09 0 2.89643e-11
46 3 0.001 -0.0206629 0 -0.000229614 1.50891e-07 0 -2.93657e-09 0 2.89753e-11
47 3 0.001 -0.0199962 0 -0.000239002 6.59284e-09 0 3.16855e-09 0 2.89834e-11
48 3 0.001 -0.0193295 0 -0.000248535 -2.23064e-08 0 1.47816e-11 0 2.89828e-11
49 3 0.001 -0.0186628 0 -0.00025821 9.04373e-08 0 -4.93256e-09 0 2.89864e-11
50 3 0.001 -0.0179961 0 -0.000268025 -6.64273e-08 0 2.27755e-09 0 2.89878e-11
51 3 0.001 -0.0173294 0 -0.000277978 -1.20877e-07 0 2.15451e-09 0 2.89786e-11
52 3 0.001 -0.0166627 0 -0.000288067 -1.8288e-07 0 4.7206e-09 0 2.89636e-11
53 3 0.001 -0.015996 0 -0.00029829 -7.28516e-08 0 1.17052e-09 0 2.89509e-11
54 3 0.001 -0.0153293 0 -0.000308644 1.51399e-07 0 -1.16635e-08 0 2.89551e-11
55 3 0.001 -0.0146627 0 -0.000319127 9.51881e-08 0 9.7597e-09 0 2.89676e-11
56 3 0.001 -0.013996 0 -0.000329738 1.04187e-07 0 -6.03818e-09 0 2.89778e-11
57 3 0.001 -0.0133293 0 -0.000340475 -2.83843e-09 0 -2.01009e-09 0 2.8983e-11
58 3 0.001 -0.0126626 0 -0.000351335 -1.36863e-07 0 5.4977e-09 0 2.89762e-11
59 3 0.001 -0.0119959 0 -0.000362316 1.80778e-08 0 -2.16269e-09 0 2.89704e-11
60 3 0.001 -0.0113293 0 -0.000373417 5.1935e-08 0 2.44182e-09 0 2.8974e-11
61 3 0.001 -0.0106626 0 -0.000384635 -4.08873e-08 0 -2.21025e-09 0 2.89747e-11
62 3 0.001 -0.00999592 0 -0.000395968 -1.00749e-07 0 4.32753e-09 0 2.89678e-11
63 3 0.001 -0.00932925 0 -0.000407416 -5.21651e-08 0 -4.12112e-09 0 2.89602e-11
64 3 0.001 -0.00866259 0 -0.000418975 3.5929e-08 0 2.86169e-09 0 2.89596e-11
65 3 0.001 -0.00799592 0 -0.000430644 1.64074e-07 0 -3.71601e-09 0 2.89697e-11
66 3 0.001 -0.00732926 0 -0.000442422 1.03462e-07 0 -2.7841e-09 0 2.89833e-11
67 3 0.001 -0.0066626 0 -0.000454306 -4.8175e-08 0 -7.25568e-10 0 2.89862e-11
68 3 0.001 -0.00599594 0 -0.000466294 -1.0896e-08 0 2.5177e-09 0 2.89833e-11
69 3 0.001 -0.00532928 0 -0.000478385 2.31555e-08 0 3.60904e-10 0 2.8984e-11
70 3 0.001 -0.00466263 0 -0.000490578 -7.55496e-08 0 4.28893e-10 0 2.89815e-11
71 3 0.001 -0.00399597 0 -0.00050287 -1.69182e-08 0 4.71611e-10 0 2.8977e-11
72 3 0.001 -0.00332932 0 -0.000515259 2.58361e-09 0 -1.22356e-09 0 2.89764e-11
73 3 0.001 -0.00266267 0 -0.000527745 -9.00479e-08 0 4.00399e-09 0 2.89721e-11
74 3 0.001 -0.00199602 0 -0.000540325 4.73247e-11 0 1.015e-09 0 2.89677e-11
75 3 0.001 -0.00132938 0 -0.000552997 1.1559e-07 0 -6.45985e-09 0 2.89736e-11
76 3 0.001 -0.000662731 0 -0.000565761 9.24933e-11 0 3.46383e-09 0 2.89795e-11
77 3 0.001 3.91214e-06 0 -0.000578615 5.04743e-08 0 -3.61002e-09 0 2.89821e-11
78 3 0.001 0.000670554 0 -0.000591556 5.0739e-08 0 -9.3882e-10 0 2.89873e-11
79 3 0.001 0.00133719 0 -0.000604584 -1.26798e-07 0 5.33893e-09 0 2.89836e-11
80 3 0.001 0.00200383 0 -0.000617696 2.32093e-08 0 -4.2713e-09 0 2.89785e-11
81 3 0.001 0.00267047 0 -0.000630892 -6.08253e-10 0 3.44841e-09 0 2.89797e-11
82 3 0.001 0.0033371 0 -0.000644169 -3.59681e-08 0 -7.5623e-10 0 2.89779e-11
83 3 0.001 0.00400374 0 -0.000657527 7.50161e-08 0 8.05041e-11 0 2.898e-11
84 3 0.001 0.00467037 0 -0.000670964 5.30396e-08 0 -4.39866e-09 0 2.89865e-11
85 3 0.001 0.005337 0 -0.000684478 -8.08737e-08 0 3.63553e-09 0 2.89851e-11
86 3 0.001 0.00600363 0 -0.000698068 -1.08596e-08 0 9.24135e-10 0 2.89806e-11
87 3 0.001 0.00667025 0 -0.000711732 7.77381e-08 0 -5.65113e-09 0 2.8984e-11
88 3 0.001 0.00733688 0 -0.000725469 3.03826e-09 0 9.63255e-10 0 2.89882e-11
89 3 0.001 0.0080035 0 -0.000739278 -5.03781e-08 0 5.37949e-09 0 2.89858e-11
90 3 0.001 0.00867012 0 -0.000753157 -1.70007e-07 0 -1.03409e-09 0 2.89749e-11
91 3 0.001 0.00933675 0 -0.000767105 -5.0434e-08 0 5.28309e-09 0 2.89639e-11
92 3 0.001 0.0100034 0 -0.00078112 1.94891e-07 0 -1.90113e-09 0 2.89712e-11
93 3 0.001 0.01067 0 -0.000795202 2.38616e-08 0 -1.02015e-08 0 2.89822e-11
94 3 0.001 0.0113366 0 -0.000809348 -1.9818e-08 0 7.85115e-09 0 2.89825e-11
95 3 0.001 0.0120032 0 -0.000823558 -7.75423e-09 0 -3.03087e-09 0 2.89811e-11
96 3 0.001 0.0126698 0 -0.00083783 3.63601e-08 0 -1.60594e-09 0 2.89826e-11
97 3 0.001 0.0133364 0 -0.000852162 -1.99108e-08 0 1.5448e-09 0 2.89835e-11
98 3 0.001 0.0140031 0 -0.000866555 -1.41965e-08 0 -1.04644e-09 0 2.89819e-11
