ITEM: TIMESTEP
40000
ITEM: NUMBER OF ATOMS
151
ITEM: BOX BOUNDS ff ff ff
-5.2499999999999998e-02 5.2499999999999998e-02
-6.0000000000000001e-03 6.0000000000000001e-03
-1.4999999999999999e-02 1.4999999999999999e-02
ITEM: ATOMS id type radius x y z fx fy fz c_bendingE c_stretchingE
1 1 0.001 -0.0475 0 0 -0.00413681 0 0.000494123 0 1.60362e-34
3 3 0.001 -0.0468667 0 0 0.00480328 0 -0.000505558 0 9.51301e-10
4 3 0.001 -0.0462325 0 -1.96117e-07 -0.000138297 0 -1.63351e-05 0 9.72928e-10
5 3 0.001 -0.0455991 0 -4.87871e-07 -0.000639141 0 -5.7432e-06 0 2.21341e-11
6 3 0.001 -0.0449658 0 -8.69931e-07 0.000197825 0 1.26848e-06 0 8.1888e-13
7 3 0.001 -0.0443324 0 -1.33572e-06 -0.000167269 0 1.15827e-05 0 5.77882e-13
8 3 0.001 -0.0436991 0 -1.8788e-06 -0.000432266 0 1.67788e-05 0 1.11059e-11
9 3 0.001 -0.0430659 0 -2.49502e-06 1.59338e-05 0 -8.90396e-06 0 2.10165e-11
10 3 0.001 -0.0424326 0 -3.18356e-06 0.000243092 0 -7.6508e-06 0 1.28317e-11
11 3 0.001 -0.0417993 0 -3.94182e-06 0.000338843 0 9.20035e-06 0 2.95316e-12
12 3 0.001 -0.041166 0 -4.76572e-06 -5.77989e-05 0 -1.83094e-06 0 3.29412e-13
13 3 0.001 -0.0405326 0 -5.65296e-06 0.000255324 0 -2.23247e-06 0 3.32528e-12
14 3 0.001 -0.0398993 0 -6.60103e-06 -0.000329661 0 1.35759e-05 0 3.38561e-12
15 3 0.001 -0.0392659 0 -7.60682e-06 -0.000238514 0 1.22213e-05 0 3.4526e-12
16 3 0.001 -0.0386326 0 -8.67e-06 0.000124958 0 -1.95685e-06 0 4.42416e-12
17 3 0.001 -0.0379993 0 -9.79264e-06 -0.000208236 0 -7.97059e-06 0 6.66887e-12
18 3 0.001 -0.0373661 0 -1.09763e-05 0.000677907 0 9.63929e-07 0 9.54775e-12
19 3 0.001 -0.0367327 0 -1.22212e-05 0.000161634 0 -4.75516e-07 0 1.30814e-11
20 3 0.001 -0.0360993 0 -1.35276e-05 -0.00031926 0 -5.43832e-06 0 1.0087e-11
21 3 0.001 -0.0354659 0 -1.48957e-05 9.94486e-05 0 -1.60755e-06 0 3.54514e-12
22 3 0.001 -0.0348325 0 -1.63249e-05 -0.000517333 0 -3.58685e-06 0 5.5219e-12
23 3 0.001 -0.0341993 0 -1.78139e-05 0.000148411 0 9.58499e-06 0 3.49722e-12
24 3 0.001 -0.0335659 0 -1.93609e-05 0.000438918 0 6.96272e-06 0 4.82101e-12
25 3 0.001 -0.0329326 0 -2.09659e-05 4.01396e-08 0 1.58784e-06 0 8.49578e-12
26 3 0.001 -0.0322992 0 -2.26303e-05 -0.000228582 0 -1.53422e-05 0 4.6002e-12
27 3 0.001 -0.0316658 0 -2.43558e-05 -3.82471e-05 0 -2.56055e-05 0 4.73278e-13
28 3 0.001 -0.0310325 0 -2.61413e-05 4.38531e-05 0 7.30211e-08 0 5.17499e-13
29 3 0.001 -0.0303991 0 -2.79803e-05 -0.000245955 0 1.46383e-05 0 1.29901e-12
30 3 0.001 -0.0297658 0 -2.98664e-05 8.41545e-05 0 1.05724e-05 0 1.07078e-12
31 3 0.001 -0.0291325 0 -3.1796e-05 -2.94583e-05 0 1.41661e-05 0 5.27328e-13
32 3 0.001 -0.0284992 0 -3.37677e-05 9.66487e-05 0 1.86897e-05 0 3.59666e-13
33 3 0.001 -0.0278659 0 -3.57829e-05 -0.000141048 0 -2.8111e-06 0 7.82879e-13
34 3 0.001 -0.0272326 0 -3.78465e-05 -8.94953e-05 0 -1.98303e-05 0 2.90972e-12
35 3 0.001 -0.0265993 0 -3.99629e-05 0.000129701 0 -2.03801e-05 0 2.51797e-12
36 3 0.001 -0.025966 0 -4.21328e-05 3.49741e-05 0 -9.18005e-06 0 5.50846e-13
37 3 0.001 -0.0253326 0 -4.43526e-05 -0.000113634 0 9.67006e-06 0 1.43702e-12
38 3 0.001 -0.0246993 0 -4.66169e-05 0.00013329 0 4.79354e-06 0 1.35205e-12
39 3 0.001 -0.024066 0 -4.89223e-05 0.000291476 0 -1.39519e-06 0 2.62702e-12
40 3 0.001 -0.0234326 0 -5.12666e-05 -0.00048514 0 -6.3334e-06 0 4.85508e-12
41 3 0.001 -0.0227994 0 -5.36466e-05 0.000225796 0 -1.5907e-05 0 2.3078e-12
42 3 0.001 -0.022166 0 -5.60587e-05 -8.22153e-05 0 -1.52785e-06 0 3.59233e-13
43 3 0.001 -0.0215327 0 -5.84957e-05 -0.000449171 0 1.21616e-05 0 1.24667e-11
44 3 0.001 -0.0208995 0 -6.09498e-05 0.000138084 0 1.29886e-05 0 1.88405e-11
45 3 0.001 -0.0202662 0 -6.3416e-05 0.000307614 0 8.82407e-06 0 7.11163e-12
46 3 0.001 -0.0196329 0 -6.58916e-05 0.000549242 0 3.94618e-06 0 8.83776e-12
47 3 0.001 -0.0189995 0 -6.83761e-05 9.14128e-05 0 -6.10592e-06 0 2.06677e-11
48 3 0.001 -0.0183661 0 -7.08697e-05 0.000247657 0 -1.31935e-05 0 3.80731e-11
49 3 0.001 -0.0177326 0 -7.33716e-05 -6.96956e-05 0 9.9616e-06 0 4.73665e-11
50 3 0.001 -0.0170992 0 -7.58787e-05 -0.000597707 0 1.7726e-05 0 2.21447e-11
51 3 0.001 -0.0164658 0 -7.83895e-05 -0.000490941 0 1.54681e-06 0 6.17864e-12
52 3 0.001 -0.0158326 0 -8.09058e-05 4.67158e-05 0 -1.11896e-05 0 9.75763e-12
53 3 0.001 -0.0151993 0 -8.34297e-05 -0.000248911 0 -2.48693e-06 0 1.7553e-11
54 3 0.001 -0.014566 0 -8.59608e-05 0.000147712 0 9.21004e-06 0 2.06447e-11
55 3 0.001 -0.0139328 0 -8.84981e-05 0.000247901 0 9.61168e-06 0 8.54544e-12
56 3 0.001 -0.0132995 0 -9.10425e-05 -0.000423838 0 2.99485e-06 0 1.59339e-11
57 3 0.001 -0.0126663 0 -9.35967e-05 0.000327371 0 -8.04858e-06 0 1.76952e-11
58 3 0.001 -0.012033 0 -9.61641e-05 -9.50494e-05 0 -7.58799e-06 0 8.48046e-12
59 3 0.001 -0.0113997 0 -9.87466e-05 -0.000319595 0 -2.96946e-06 0 2.47867e-11
60 3 0.001 -0.0107665 0 -0.000101344 4.92501e-05 0 1.40163e-08 0 3.59286e-11
61 3 0.001 -0.0101333 0 -0.000103956 1.68638e-05 0 -4.36182e-07 0 3.23775e-11
62 3 0.001 -0.00950004 0 -0.000106583 3.40054e-05 0 -3.84498e-06 0 2.98197e-11
63 3 0.001 -0.00886681 0 -0.000109223 0.000506293 0 -4.24591e-06 0 1.43163e-11
64 3 0.001 -0.0082335 0 -0.000111875 0.000374099 0 -2.75458e-07 0 3.86968e-12
65 3 0.001 -0.00760012 0 -0.000114538 0.000122503 0 -3.65607e-06 0 1.08539e-11
66 3 0.001 -0.00696672 0 -0.00011721 -0.000274658 0 1.01723e-06 0 8.091e-12
67 3 0.001 -0.00633337 0 -0.000119889 -0.000267575 0 4.91719e-06 0 1.48534e-12
68 3 0.001 -0.00570006 0 -0.000122572 -0.00019485 0 7.42916e-06 0 4.80598e-12
69 3 0.001 -0.00506679 0 -0.000125258 0.000198156 0 2.17873e-06 0 4.77377e-12
70 3 0.001 -0.00443348 0 -0.000127947 0.00031561 0 -4.46832e-06 0 2.16999e-12
71 3 0.001 -0.00380012 0 -0.00013064 -0.000154605 0 3.8423e-06 0 1.6427e-12
72 3 0.001 -0.00316679 0 -0.000133336 -0.000161922 0 4.52984e-06 0 6.74062e-13
73 3 0.001 -0.00253348 0 -0.000136035 0.000157826 0 -2.34482e-06 0 6.60919e-13
74 3 0.001 -0.00190015 0 -0.00013874 0.000254161 0 -6.09734e-06 0 3.54227e-12
75 3 0.001 -0.00126677 0 -0.00014145 0.000316617 0 -9.46362e-06 0 1.87008e-11
76 3 0.001 -0.000633343 0 -0.000144167 0.00029937 0 6.70981e-06 0 4.91165e-11
77 3 0.001 1.34471e-07 0 -0.000146888 -0.000124866 0 1.04703e-05 0 5.9107e-11
78 3 0.001 0.000633591 0 -0.000149613 -0.000143266 0 1.47614e-06 0 4.20173e-11
79 3 0.001 0.00126702 0 -0.000152344 8.58502e-05 0 -4.86409e-06 0 3.8453e-11
80 3 0.001 0.00190047 0 -0.000155083 -0.000446249 0 -1.47499e-05 0 2.48331e-11
81 3 0.001 0.00253384 0 -0.00015783 -0.000491257 0 -7.07096e-06 0 5.06259e-12
82 3 0.001 0.00316714 0 -0.000160584 4.56663e-05 0 1.465e-05 0 3.02394e-12
83 3 0.001 0.00380044 0 -0.000163341 4.80548e-05 0 2.06363e-05 0 1.74173e-12
84 3 0.001 0.00443374 0 -0.0001661 3.29199e-05 0 -1.66501e-06 0 8.95398e-13
85 3 0.001 0.00506706 0 -0.000168864 -7.9292e-05 0 -1.01468e-05 0 1.4397e-12
86 3 0.001 0.00570036 0 -0.000171635 -0.00027143 0 -6.54384e-06 0 9.00739e-12
87 3 0.001 0.00633361 0 -0.000174414 8.18736e-06 0 5.70329e-06 0 1.54589e-11
88 3 0.001 0.00696687 0 -0.000177201 0.000380413 0 5.13346e-06 0 7.68007e-12
89 3 0.001 0.00760019 0 -0.000179996 0.000403576 0 -6.36101e-06 0 5.29749e-12
90 3 0.001 0.00823357 0 -0.000182801 -7.556e-05 0 -1.36883e-05 0 8.42558e-12
91 3 0.001 0.00886695 0 -0.000185615 -0.000517457 0 -3.61652e-06 0 5.55574e-12
92 3 0.001 0.00950023 0 -0.000188438 -0.000418059 0 2.50581e-05 0 2.00687e-11
93 3 0.001 0.0101335 0 -0.000191265 -0.000350089 0 1.61311e-05 0 5.94682e-11
94 3 0.001 0.0107666 0 -0.000194098 0.000399782 0 -6.81492e-06 0 5.68823e-11
95 3 0.001 0.0113998 0 -0.000196942 0.000193574 0 -1.18545e-05 0 2.217e-11
96 3 0.001 0.0120331 0 -0.0001998 -0.000280375 0 -7.361e-06 0 2.68139e-11
97 3 0.001 0.0126663 0 -0.000202672 1.5939e-05 0 -2.19679e-06 0 3.86904e-11
98 3 0.001 0.0132995 0 -0.000205559 0.000588841 0 -6.44466e-06 0 1.92142e-11
99 3 0.001 0.0139328 0 -0.00020846 -0.000270781 0 1.95682e-06 0 5.62896e-12
100 3 0.001 0.0145661 0 -0.000211371 -0.000243692 0 1.9838e-05 0 2.02817e-11
101 3 0.001 0.0151993 0 -0.000214292 4.70762e-05 0 2.16799e-05 0 2.77013e-11
102 3 0.001 0.0158326 0 -0.000217225 -0.000105913 0 7.57591e-06 0 3.07745e-11
103 3 0.001 0.0164658 0 -0.000220176 0.000396978 0 -2.4872e-05 0 2.09289e-11
104 3 0.001 0.0170991 0 -0.000223152 0.000248358 0 -2.7229e-05 0 2.89355e-12
105 3 0.001 0.0177324 0 -0.000226158 0.000129941 0 -6.82577e-06 0 5.47185e-13
106 3 0.001 0.0183657 0 -0.000229192 0.000516349 0 -8.42084e-06 0 1.69277e-11
107 3 0.001 0.0189992 0 -0.000232249 -2.82296e-05 0 5.68865e-06 0 3.13462e-11
108 3 0.001 0.0196326 0 -0.000235326 -0.000753508 0 1.94364e-05 0 1.58996e-11
109 3 0.001 0.0202659 0 -0.000238418 -0.000308549 0 1.65395e-05 0 9.66796e-12
110 3 0.001 0.0208991 0 -0.000241526 -2.88422e-05 0 -1.40515e-06 0 1.8575e-11
111 3 0.001 0.0215324 0 -0.000244653 0.000250377 0 -6.63676e-06 0 1.21947e-11
112 3 0.001 0.0221657 0 -0.000247801 -0.000228407 0 1.40614e-05 0 1.13296e-11
113 3 0.001 0.0227989 0 -0.000250972 0.00026827 0 -6.40648e-06 0 1.06114e-11
114 3 0.001 0.0234322 0 -0.00025417 0.000489846 0 -2.42057e-05 0 5.12771e-12
115 3 0.001 0.0240656 0 -0.000257398 -0.000390689 0 -1.00568e-06 0 3.90843e-12
116 3 0.001 0.0246989 0 -0.000260653 9.17397e-05 0 -2.02155e-06 0 4.08047e-13
117 3 0.001 0.0253322 0 -0.000263936 8.31377e-05 0 -9.45935e-06 0 2.38909e-13
118 3 0.001 0.0259656 0 -0.000267242 -0.000151454 0 -3.21716e-06 0 4.7277e-13
119 3 0.001 0.0265989 0 -0.000270569 6.46028e-05 0 9.59745e-06 0 2.4127e-13
120 3 0.001 0.0272322 0 -0.000273911 -1.99295e-06 0 5.02787e-06 0 1.22997e-14
121 3 0.001 0.0278655 0 -0.000277265 -0.000127801 0 -3.31748e-06 0 8.26664e-13
122 3 0.001 0.0284988 0 -0.00028063 1.20714e-05 0 5.26753e-06 0 1.50527e-12
123 3 0.001 0.0291321 0 -0.000284002 -0.000107293 0 1.45635e-05 0 2.9889e-12
124 3 0.001 0.0297654 0 -0.000287381 1.96954e-05 0 -1.10003e-05 0 4.23733e-12
125 3 0.001 0.0303987 0 -0.000290767 0.000144222 0 -1.38311e-05 0 2.14971e-12
126 3 0.001 0.031032 0 -0.00029416 -0.000136921 0 7.67997e-06 0 2.02057e-12
127 3 0.001 0.0316653 0 -0.000297555 0.000266135 0 1.19418e-05 0 1.93832e-12
128 3 0.001 0.0322986 0 -0.000300951 0.000425805 0 6.32125e-07 0 9.73861e-12
129 3 0.001 0.032932 0 -0.000304348 8.3479e-05 0 -1.26041e-05 0 2.28243e-11
130 3 0.001 0.0335655 0 -0.000307747 -0.000327875 0 -1.52121e-05 0 1.55633e-11
131 3 0.001 0.0341988 0 -0.000311146 -0.000358341 0 -6.22333e-06 0 2.93654e-12
132 3 0.001 0.0348321 0 -0.000314541 -8.12698e-05 0 1.72261e-05 0 2.26145e-12
133 3 0.001 0.0354654 0 -0.000317925 -0.000137144 0 1.17623e-05 0 6.39153e-12
134 3 0.001 0.0360987 0 -0.000321295 0.000503987 0 1.05338e-06 0 5.8522e-12
135 3 0.001 0.036732 0 -0.000324651 6.17289e-05 0 6.51941e-06 0 3.25909e-12
136 3 0.001 0.0373654 0 -0.000327992 -0.00021853 0 -5.69274e-06 0 2.13231e-12
137 3 0.001 0.0379987 0 -0.000331319 2.23159e-05 0 -9.4949e-06 0 4.30806e-14
138 3 0.001 0.038632 0 -0.000334632 -0.000444018 0 8.76436e-06 0 7.07162e-12
139 3 0.001 0.0392653 0 -0.000337928 0.000497734 0 1.78395e-05 0 7.32721e-12
140 3 0.001 0.0398986 0 -0.000341209 0.000178087 0 4.0681e-07 0 3.1419e-12
141 3 0.001 0.040532 0 -0.000344476 -0.000153637 0 -1.84839e-05 0 3.33808e-12
142 3 0.001 0.0411654 0 -0.000347734 0.000197505 0 -9.92429e-07 0 4.37017e-12
143 3 0.001 0.0417987 0 -0.000350981 -0.000162776 0 1.45925e-05 0 4.7315e-12
144 3 0.001 0.0424321 0 -0.000354218 -0.000346305 0 2.50344e-06 0 2.54366e-12
145 3 0.001 0.0430654 0 -0.000357446 -0.000363399 0 -4.7523e-06 0 1.48925e-11
146 3 0.001 0.0436986 0 -0.000360669 0.000203091 0 3.16323e-06 0 1.86271e-11
147 3 0.001 0.0443319 0 -0.000363889 7.66444e-05 0 -1.59908e-06 0 8.79942e-12
148 3 0.001 0.0449651 0 -0.000367106 0.0001136 0 6.84326e-07 0 4.60064e-12
149 3 0.001 0.0455984 0 -0.000370323 0.000396751 0 -3.24134e-06 0 8.44339e-12
150 3 0.001 0.0462318 0 -0.000373543 -9.61606e-05 0 -2.03172e-05 0 7.54523e-10
2 2 0.001 0.0475 0 -0.00038 -0.000790058 0 1.20546e-05 0 9.97736e-10
151 3 0.001 0.0468659 0 -0.000376769 0.000661905 0 8.66855e-08 0 1.74504e-09
