ITEM: TIMESTEP
9300000
ITEM: NUMBER OF ATOMS
151
ITEM: BOX BOUNDS ff ff ff
-5.5000000000000000e-02 5.5000000000000000e-02
-6.0000000000000001e-03 6.0000000000000001e-03
-2.5000000000000001e-02 2.5000000000000001e-02
ITEM: ATOMS id type radius x y z fx fy fz c_bendingE c_stretchingE
142 3 0.001 0.0433364 0 -0.00862346 2.56309e-08 0 5.70311e-07 0 2.59596e-08
143 3 0.001 0.0440026 0 -0.0086911 -1.84718e-08 0 -1.58897e-07 0 2.59596e-08
144 3 0.001 0.0446689 0 -0.00875875 -1.08389e-08 0 -3.68383e-07 0 2.59596e-08
145 3 0.001 0.0453351 0 -0.00882639 6.65379e-08 0 9.26878e-07 0 2.59596e-08
148 3 0.001 0.0473339 0 -0.00902931 -2.95358e-08 0 -4.55932e-07 0 2.59596e-08
146 3 0.001 0.0460014 0 -0.00889403 -1.41174e-07 0 -1.23587e-06 0 2.59595e-08
147 3 0.001 0.0466676 0 -0.00896167 1.33956e-07 0 1.01118e-06 0 2.59595e-08
150 3 0.001 0.0486663 0 -0.0091646 4.14452e-08 0 4.27329e-07 0 3.15046e-08
149 3 0.001 0.0480001 0 -0.00909696 -4.1525e-08 0 -7.91501e-08 0 2.59596e-08
2 2 0.001 0.05 0 -0.0093 -0.0172047 0 0.00174693 0 1.85249e-08
151 3 0.001 0.0493332 0 -0.0092323 -2.93928e-08 0 -3.9429e-07 0 3.70497e-08
120 3 0.001 0.028679 0 -0.0071354 -5.12704e-08 0 -2.5294e-07 0 2.59595e-08
121 3 0.001 0.0293453 0 -0.00720304 -1.72931e-08 0 -1.30251e-07 0 2.59595e-08
119 3 0.001 0.0280128 0 -0.00706777 3.95927e-08 0 5.02281e-07 0 2.59596e-08
122 3 0.001 0.0300115 0 -0.00727068 4.78274e-08 0 1.79442e-07 0 2.59595e-08
123 3 0.001 0.0306778 0 -0.00733831 2.55344e-08 0 6.98679e-08 0 2.59596e-08
124 3 0.001 0.031344 0 -0.00740595 -3.56469e-08 0 4.01808e-08 0 2.59596e-08
125 3 0.001 0.0320102 0 -0.00747359 -4.51236e-08 0 -5.28535e-07 0 2.59595e-08
126 3 0.001 0.0326765 0 -0.00754122 1.15586e-07 0 8.58217e-07 0 2.59596e-08
127 3 0.001 0.0333427 0 -0.00760886 -1.05292e-07 0 -7.07559e-07 0 2.59596e-08
128 3 0.001 0.034009 0 -0.0076765 -8.47938e-09 0 1.75417e-07 0 2.59595e-08
129 3 0.001 0.0346752 0 -0.00774414 7.58712e-08 0 2.72941e-07 0 2.59595e-08
130 3 0.001 0.0353415 0 -0.00781178 -3.67282e-08 0 -4.14876e-07 0 2.59596e-08
132 3 0.001 0.036674 0 -0.00794706 -5.63358e-08 0 -6.38271e-07 0 2.59595e-08
131 3 0.001 0.0360077 0 -0.00787942 1.83799e-08 0 4.79992e-07 0 2.59596e-08
133 3 0.001 0.0373402 0 -0.0080147 1.01695e-07 0 8.61031e-07 0 2.59596e-08
134 3 0.001 0.0380064 0 -0.00808234 -8.83029e-08 0 -7.92931e-07 0 2.59596e-08
135 3 0.001 0.0386727 0 -0.00814998 -1.47695e-08 0 2.90618e-08 0 2.59595e-08
136 3 0.001 0.0393389 0 -0.00821762 9.43494e-08 0 7.62068e-07 0 2.59595e-08
137 3 0.001 0.0400052 0 -0.00828526 -5.01469e-08 0 -6.84849e-07 0 2.59596e-08
138 3 0.001 0.0406714 0 -0.0083529 -8.20394e-09 0 1.60786e-07 0 2.59596e-08
139 3 0.001 0.0413377 0 -0.00842054 -1.22885e-08 0 1.45326e-07 0 2.59595e-08
140 3 0.001 0.0420039 0 -0.00848818 3.4301e-08 0 2.28585e-08 0 2.59595e-08
141 3 0.001 0.0426702 0 -0.00855582 -2.32846e-08 0 -4.99561e-07 0 2.59596e-08
96 3 0.001 0.0126891 0 -0.00551249 -2.48266e-09 0 -1.95308e-07 0 2.59595e-08
97 3 0.001 0.0133554 0 -0.00558009 3.77459e-08 0 1.17092e-07 0 2.59595e-08
98 3 0.001 0.0140216 0 -0.00564769 -3.18054e-08 0 -7.9475e-08 0 2.59596e-08
99 3 0.001 0.0146879 0 -0.0057153 -6.95335e-09 0 -1.54559e-07 0 2.59595e-08
100 3 0.001 0.0153541 0 -0.00578291 8.90053e-08 0 6.67234e-07 0 2.59596e-08
101 3 0.001 0.0160204 0 -0.00585052 -1.01418e-07 0 -8.79548e-07 0 2.59596e-08
102 3 0.001 0.0166866 0 -0.00591813 2.81107e-08 0 4.05048e-07 0 2.59596e-08
104 3 0.001 0.0180191 0 -0.00605336 -3.56869e-08 0 -5.84445e-07 0 2.59595e-08
105 3 0.001 0.0186853 0 -0.00612098 7.95025e-08 0 7.76268e-07 0 2.59596e-08
103 3 0.001 0.0173528 0 -0.00598574 1.59537e-08 0 2.57709e-07 0 2.59595e-08
107 3 0.001 0.0200178 0 -0.00625622 1.63879e-08 0 6.59418e-08 0 2.59595e-08
106 3 0.001 0.0193516 0 -0.0061886 -9.88561e-08 0 -7.36995e-07 0 2.59595e-08
108 3 0.001 0.0206841 0 -0.00632384 9.67593e-08 0 7.0429e-07 0 2.59596e-08
109 3 0.001 0.0213503 0 -0.00639147 -1.13409e-07 0 -8.44505e-07 0 2.59596e-08
112 3 0.001 0.0233491 0 -0.00659435 3.49394e-08 0 4.93067e-07 0 2.59596e-08
110 3 0.001 0.0220166 0 -0.00645909 4.20951e-08 0 4.93372e-07 0 2.59595e-08
111 3 0.001 0.0226828 0 -0.00652672 1.58132e-08 0 -2.51675e-07 0 2.59596e-08
113 3 0.001 0.0240153 0 -0.00666198 -1.4851e-07 0 -1.04794e-06 0 2.59595e-08
114 3 0.001 0.0246816 0 -0.00672961 1.35487e-07 0 1.17548e-06 0 2.59595e-08
115 3 0.001 0.0253478 0 -0.00679724 2.11588e-09 0 -2.60229e-07 0 2.59595e-08
116 3 0.001 0.026014 0 -0.00686487 -1.00904e-07 0 -9.23572e-07 0 2.59596e-08
117 3 0.001 0.0266803 0 -0.0069325 1.13154e-07 0 1.16666e-06 0 2.59596e-08
118 3 0.001 0.0273465 0 -0.00700014 -5.87996e-08 0 -7.62287e-07 0 2.59596e-08
73 3 0.001 -0.00263479 0 -0.00395959 -2.4426e-08 0 5.484e-08 0 2.59595e-08
74 3 0.001 -0.00196852 0 -0.00402698 -5.43458e-08 0 -5.87448e-07 0 2.59595e-08
75 3 0.001 -0.00130225 0 -0.00409438 1.82423e-07 0 1.44799e-06 0 2.59596e-08
77 3 0.001 3.0282e-05 0 -0.00422925 1.72308e-07 0 2.12111e-06 0 2.59595e-08
78 3 0.001 0.000696545 0 -0.0042967 -9.59413e-08 0 -1.24932e-06 0 2.59595e-08
76 3 0.001 -0.000635983 0 -0.00416181 -2.28009e-07 0 -2.0961e-06 0 2.59596e-08
79 3 0.001 0.00136281 0 -0.00436417 2.89658e-08 0 1.77034e-08 0 2.59596e-08
80 3 0.001 0.00202907 0 -0.00443165 2.22392e-08 0 5.92248e-07 0 2.59596e-08
81 3 0.001 0.00269533 0 -0.00449914 -6.47508e-08 0 -6.59298e-07 0 2.59595e-08
82 3 0.001 0.00336158 0 -0.00456665 8.05064e-08 0 5.74939e-07 0 2.59595e-08
83 3 0.001 0.00402784 0 -0.00463416 -1.47098e-08 0 -7.02926e-08 0 2.59596e-08
84 3 0.001 0.0046941 0 -0.00470168 -6.48004e-08 0 -5.32881e-07 0 2.59595e-08
86 3 0.001 0.00602661 0 -0.00483676 3.36078e-08 0 2.33038e-07 0 2.59596e-08
87 3 0.001 0.00669286 0 -0.0049043 -7.31251e-08 0 -6.0123e-07 0 2.59596e-08
85 3 0.001 0.00536035 0 -0.00476922 5.24491e-08 0 4.04355e-07 0 2.59595e-08
88 3 0.001 0.00735911 0 -0.00497186 3.73501e-08 0 6.16317e-07 0 2.59595e-08
89 3 0.001 0.00802537 0 -0.00503942 -2.72594e-08 0 -3.54147e-07 0 2.59595e-08
91 3 0.001 0.00935787 0 -0.00517456 -2.35039e-08 0 -8.11256e-08 0 2.59595e-08
90 3 0.001 0.00869162 0 -0.00510699 2.28994e-08 0 1.11407e-08 0 2.59595e-08
92 3 0.001 0.0100241 0 -0.00524214 3.23233e-08 0 3.08424e-07 0 2.59595e-08
93 3 0.001 0.0106904 0 -0.00530972 1.59433e-08 0 -2.278e-07 0 2.59596e-08
94 3 0.001 0.0113566 0 -0.00537731 -1.9074e-08 0 7.12897e-09 0 2.59596e-08
95 3 0.001 0.0120229 0 -0.0054449 -2.52716e-08 0 1.6784e-07 0 2.59595e-08
50 3 0.001 -0.0179601 0 -0.00242071 -1.4397e-08 0 9.46099e-09 0 2.59594e-08
52 3 0.001 -0.0166273 0 -0.00255308 3.43423e-09 0 8.9419e-08 0 2.59594e-08
53 3 0.001 -0.0159609 0 -0.00261943 -1.00396e-08 0 -3.53527e-07 0 2.59594e-08
51 3 0.001 -0.0172937 0 -0.00248684 -1.9742e-08 0 2.13021e-08 0 2.59594e-08
55 3 0.001 -0.0146282 0 -0.0027524 -6.97037e-08 0 -4.87765e-07 0 2.59595e-08
54 3 0.001 -0.0152946 0 -0.00268587 6.37609e-08 0 5.56986e-07 0 2.59595e-08
56 3 0.001 -0.0139619 0 -0.00281902 1.87221e-08 0 1.59632e-07 0 2.59595e-08
57 3 0.001 -0.0132955 0 -0.00288571 4.7115e-08 0 2.21559e-07 0 2.59595e-08
58 3 0.001 -0.0126292 0 -0.00295247 -7.48972e-08 0 -4.7527e-07 0 2.59595e-08
59 3 0.001 -0.0119629 0 -0.0030193 2.09777e-08 0 4.74537e-07 0 2.59594e-08
60 3 0.001 -0.0112966 0 -0.00308619 3.80422e-08 0 -1.09997e-07 0 2.59595e-08
62 3 0.001 -0.00996394 0 -0.00322013 -7.8392e-09 0 3.09496e-07 0 2.59595e-08
61 3 0.001 -0.0106302 0 -0.00315313 -1.23355e-08 0 -2.60293e-07 0 2.59596e-08
63 3 0.001 -0.00929763 0 -0.00328717 -3.32823e-08 0 -2.77095e-07 0 2.59595e-08
64 3 0.001 -0.00863133 0 -0.00335426 3.17403e-08 0 1.38963e-07 0 2.59595e-08
66 3 0.001 -0.00729874 0 -0.00348856 -2.29231e-08 0 -1.41268e-07 0 2.59595e-08
65 3 0.001 -0.00796504 0 -0.00342139 6.94462e-09 0 1.83793e-07 0 2.59595e-08
69 3 0.001 -0.00529989 0 -0.00369027 -4.1653e-08 0 -1.22754e-07 0 2.59596e-08
67 3 0.001 -0.00663246 0 -0.00355577 -6.78554e-09 0 -3.96406e-07 0 2.59595e-08
68 3 0.001 -0.00596617 0 -0.003623 6.71419e-08 0 5.79142e-07 0 2.59596e-08
71 3 0.001 -0.00396733 0 -0.00382488 5.09273e-08 0 3.47217e-07 0 2.59595e-08
70 3 0.001 -0.00463361 0 -0.00375756 -4.67892e-08 0 -3.07067e-07 0 2.59595e-08
72 3 0.001 -0.00330106 0 -0.00389223 7.58485e-09 0 -1.13791e-07 0 2.59595e-08
26 3 0.001 -0.0339607 0 -0.000907511 -7.36863e-08 0 -3.24546e-07 0 2.59535e-08
25 3 0.001 -0.0346279 0 -0.000850401 -5.8744e-08 0 -6.54385e-07 0 2.59526e-08
27 3 0.001 -0.0332935 0 -0.000965409 4.95145e-08 0 5.08174e-07 0 2.59543e-08
28 3 0.001 -0.0326264 0 -0.00102404 2.09415e-08 0 -1.98287e-07 0 2.59551e-08
30 3 0.001 -0.0312924 0 -0.00114326 -2.55316e-08 0 -3.41651e-07 0 2.59563e-08
29 3 0.001 -0.0319594 0 -0.00108334 -7.91046e-09 0 2.01252e-07 0 2.59558e-08
32 3 0.001 -0.0299586 0 -0.00126479 -1.91533e-08 0 -1.11762e-08 0 2.59572e-08
31 3 0.001 -0.0306254 0 -0.00120376 6.10524e-08 0 3.24411e-07 0 2.59568e-08
35 3 0.001 -0.0279582 0 -0.00145071 -4.57498e-11 0 -2.66463e-07 0 2.5958e-08
33 3 0.001 -0.0292917 0 -0.00132632 -8.79213e-08 0 -6.14821e-07 0 2.59575e-08
34 3 0.001 -0.0286249 0 -0.0013883 9.16715e-08 0 8.81728e-07 0 2.59577e-08
37 3 0.001 -0.0266248 0 -0.00157667 2.77774e-08 0 4.99604e-07 0 2.59584e-08
36 3 0.001 -0.0272915 0 -0.00151351 -5.65754e-08 0 -5.5812e-07 0 2.59583e-08
38 3 0.001 -0.0259581 0 -0.00164016 3.83136e-08 0 2.85456e-07 0 2.59586e-08
39 3 0.001 -0.0252915 0 -0.00170396 -4.4876e-08 0 -6.30415e-07 0 2.59588e-08
40 3 0.001 -0.0246249 0 -0.00176805 1.1749e-08 0 3.61046e-07 0 2.59589e-08
41 3 0.001 -0.0239583 0 -0.00183241 -4.11895e-08 0 -2.71922e-07 0 2.59589e-08
44 3 0.001 -0.0219588 0 -0.00202688 -7.39381e-08 0 -3.92692e-07 0 2.59592e-08
42 3 0.001 -0.0232918 0 -0.00189701 6.91979e-08 0 3.50566e-07 0 2.5959e-08
43 3 0.001 -0.0226253 0 -0.00196184 7.67558e-09 0 -1.57146e-08 0 2.59592e-08
45 3 0.001 -0.0212923 0 -0.00209211 2.92606e-08 0 2.75653e-07 0 2.59592e-08
46 3 0.001 -0.0206258 0 -0.00215752 3.42303e-08 0 7.87573e-08 0 2.59593e-08
48 3 0.001 -0.0192929 0 -0.00228883 2.36733e-08 0 2.5105e-07 0 2.59593e-08
47 3 0.001 -0.0199594 0 -0.0022231 -4.87513e-08 0 -2.58038e-07 0 2.59593e-08
49 3 0.001 -0.0186265 0 -0.00235471 2.03163e-08 0 -1.27408e-07 0 2.59594e-08
1 1 0.001 -0.05 0 0 -0.00339398 0 0.0202531 0 1.14427e-32
3 3 0.001 -0.0493333 0 0 0.0205987 0 -0.0219994 0 1.8457e-08
4 3 0.001 -0.0486632 0 -9.41566e-06 -1.94033e-08 0 -5.74673e-07 0 3.13525e-08
5 3 0.001 -0.0479936 0 -2.318e-05 7.31395e-09 0 3.38935e-08 0 2.58032e-08
6 3 0.001 -0.0473242 0 -4.09755e-05 5.04169e-08 0 5.40522e-07 0 2.58257e-08
7 3 0.001 -0.0466549 0 -6.25006e-05 -2.12696e-08 0 -4.33993e-07 0 2.5845e-08
8 3 0.001 -0.0459857 0 -8.74764e-05 -4.50292e-08 0 7.05029e-08 0 2.58614e-08
9 3 0.001 -0.0453166 0 -0.000115644 2.28621e-08 0 6.61311e-08 0 2.58754e-08
10 3 0.001 -0.0446477 0 -0.000146766 2.16283e-08 0 2.27601e-08 0 2.58876e-08
11 3 0.001 -0.0439789 0 -0.00018062 -4.68779e-08 0 -2.0597e-07 0 2.58979e-08
12 3 0.001 -0.0433102 0 -0.000217001 2.30515e-08 0 2.99142e-07 0 2.59067e-08
13 3 0.001 -0.0426417 0 -0.000255721 3.08543e-08 0 -1.70998e-07 0 2.59144e-08
14 3 0.001 -0.0419732 0 -0.000296605 -2.18329e-08 0 -7.14093e-08 0 2.59209e-08
15 3 0.001 -0.0413049 0 -0.00033949 -2.07982e-08 0 1.53409e-07 0 2.59264e-08
16 3 0.001 -0.0406368 0 -0.000384227 2.76478e-08 0 9.44263e-08 0 2.59311e-08
17 3 0.001 -0.0399687 0 -0.000430676 -2.06552e-08 0 -4.86649e-07 0 2.59353e-08
18 3 0.001 -0.0393008 0 -0.00047871 2.80637e-08 0 6.46309e-07 0 2.59387e-08
19 3 0.001 -0.0386329 0 -0.000528211 -2.96066e-08 0 -2.91876e-07 0 2.59417e-08
20 3 0.001 -0.0379652 0 -0.000579068 -1.31e-08 0 -3.1197e-07 0 2.59443e-08
21 3 0.001 -0.0372976 0 -0.00063118 4.5942e-08 0 3.83161e-07 0 2.59465e-08
22 3 0.001 -0.03663 0 -0.000684453 2.57369e-09 0 2.74699e-07 0 2.59484e-08
23 3 0.001 -0.0359626 0 -0.0007388 -9.05856e-08 0 -1.06547e-06 0 2.59499e-08
24 3 0.001 -0.0352952 0 -0.000794141 1.40976e-07 0 1.32597e-06 0 2.59514e-08
