ITEM: TIMESTEP
550000
ITEM: NUMBER OF ATOMS
151
ITEM: BOX BOUNDS ff ff ff
-5.2499999999999998e-02 5.2499999999999998e-02
-6.0000000000000001e-03 6.0000000000000001e-03
-1.4999999999999999e-02 1.4999999999999999e-02
ITEM: ATOMS id type radius x y z fx fy fz c_bendingE c_stretchingE
126 3 0.001 0.0310397 0 -0.0041635 2.9657e-05 0 -2.60046e-06 0 3.11625e-09
129 3 0.001 0.0329388 0 -0.00428579 2.1429e-05 0 3.40647e-07 0 3.14316e-09
128 3 0.001 0.0323058 0 -0.00424502 2.94936e-05 0 2.5424e-07 0 3.11737e-09
127 3 0.001 0.0316728 0 -0.00420425 -2.84468e-05 0 1.47912e-06 0 3.11689e-09
130 3 0.001 0.0335719 0 -0.00432657 -1.93822e-05 0 -1.35527e-06 0 3.14423e-09
131 3 0.001 0.0342049 0 -0.00436736 -1.05028e-07 0 -3.27574e-06 0 3.13448e-09
132 3 0.001 0.034838 0 -0.00440815 -1.59084e-05 0 8.10711e-07 0 3.12645e-09
133 3 0.001 0.035471 0 -0.00444895 4.86488e-05 0 -1.16596e-06 0 3.14312e-09
134 3 0.001 0.036104 0 -0.00448975 -1.87632e-05 0 3.80519e-06 0 3.1582e-09
135 3 0.001 0.0367371 0 -0.00453056 -4.52587e-05 0 4.07034e-06 0 3.12546e-09
136 3 0.001 0.0373701 0 -0.00457137 1.53599e-05 0 -2.14853e-06 0 3.11023e-09
137 3 0.001 0.0380031 0 -0.00461219 9.76019e-06 0 -8.206e-07 0 3.12303e-09
138 3 0.001 0.0386362 0 -0.00465301 -1.92522e-05 0 2.61138e-06 0 3.11817e-09
139 3 0.001 0.0392692 0 -0.00469384 -4.0297e-06 0 6.86053e-07 0 3.10629e-09
140 3 0.001 0.0399022 0 -0.00473467 1.26775e-05 0 -2.98255e-06 0 3.11074e-09
141 3 0.001 0.0405353 0 -0.0047755 5.26954e-06 0 -3.24193e-06 0 3.12002e-09
142 3 0.001 0.0411683 0 -0.00481634 2.86706e-05 0 -2.5083e-06 0 3.13743e-09
143 3 0.001 0.0418013 0 -0.00485719 1.30927e-05 0 1.46088e-06 0 3.15868e-09
144 3 0.001 0.0424344 0 -0.00489803 -9.58494e-07 0 2.16435e-06 0 3.16474e-09
145 3 0.001 0.0430674 0 -0.00493888 -2.75069e-05 0 1.21518e-06 0 3.15016e-09
146 3 0.001 0.0437004 0 -0.00497974 -2.06493e-05 0 -5.76326e-07 0 3.12569e-09
147 3 0.001 0.0443335 0 -0.0050206 1.18237e-05 0 -7.0142e-07 0 3.12126e-09
148 3 0.001 0.0449665 0 -0.00506145 7.75564e-06 0 -2.90718e-07 0 3.13121e-09
149 3 0.001 0.0455995 0 -0.00510232 -3.52947e-05 0 1.99949e-06 0 3.21256e-09
150 3 0.001 0.0462326 0 -0.00514318 -2.27722e-05 0 1.22067e-07 0 5.94619e-09
2 2 0.001 0.0475 0 -0.005225 -0.00610871 0 0.000398707 0 4.31294e-09
151 3 0.001 0.0468663 0 -0.00518409 1.38355e-05 0 -1.82142e-06 0 8.61415e-09
85 3 0.001 0.00508417 0 -0.00250613 -2.48512e-05 0 5.69294e-07 0 3.14645e-09
86 3 0.001 0.00571726 0 -0.00254601 -5.47682e-06 0 -1.68495e-06 0 3.13108e-09
87 3 0.001 0.00635036 0 -0.00258594 2.45382e-05 0 -8.55806e-07 0 3.14085e-09
88 3 0.001 0.00698345 0 -0.0026259 -4.10047e-06 0 4.33044e-06 0 3.15112e-09
89 3 0.001 0.00761654 0 -0.00266591 1.83859e-05 0 -2.49044e-07 0 3.15827e-09
90 3 0.001 0.00824963 0 -0.00270596 -1.16509e-05 0 -3.4825e-06 0 3.16181e-09
91 3 0.001 0.00888271 0 -0.00274604 -1.34769e-05 0 -2.13903e-06 0 3.1492e-09
93 3 0.001 0.0101489 0 -0.00282632 -1.20611e-05 0 3.66207e-06 0 3.13417e-09
92 3 0.001 0.0095158 0 -0.00278617 -1.89903e-06 0 1.38526e-06 0 3.14141e-09
94 3 0.001 0.0107819 0 -0.00286651 -4.03032e-07 0 -4.98643e-07 0 3.12775e-09
95 3 0.001 0.011415 0 -0.00290673 -2.92792e-05 0 -8.49136e-07 0 3.11278e-09
96 3 0.001 0.0120481 0 -0.00294698 -1.98951e-05 0 2.94313e-07 0 3.08798e-09
97 3 0.001 0.0126811 0 -0.00298726 2.94504e-05 0 -3.37019e-07 0 3.0928e-09
98 3 0.001 0.0133142 0 -0.00302756 4.20355e-05 0 5.57482e-07 0 3.12895e-09
100 3 0.001 0.0145804 0 -0.00310824 -1.0434e-06 0 1.61531e-07 0 3.17839e-09
99 3 0.001 0.0139473 0 -0.00306789 2.82353e-05 0 1.40013e-06 0 3.16458e-09
102 3 0.001 0.0158465 0 -0.00318901 -2.38941e-05 0 -1.58617e-06 0 3.10726e-09
103 3 0.001 0.0164795 0 -0.00322942 1.15139e-05 0 2.77692e-07 0 3.10104e-09
101 3 0.001 0.0152134 0 -0.00314861 -5.75796e-05 0 1.26206e-07 0 3.14857e-09
104 3 0.001 0.0171126 0 -0.00326986 -4.65277e-06 0 4.00811e-06 0 3.10437e-09
105 3 0.001 0.0177457 0 -0.00331032 4.1882e-05 0 -2.09006e-06 0 3.12317e-09
106 3 0.001 0.0183787 0 -0.00335079 3.66211e-05 0 -4.57213e-06 0 3.16326e-09
107 3 0.001 0.0190118 0 -0.00339129 -2.86261e-05 0 1.63267e-06 0 3.16743e-09
108 3 0.001 0.0196448 0 -0.0034318 5.61232e-06 0 1.75392e-06 0 3.15557e-09
109 3 0.001 0.0202779 0 -0.00347232 3.34707e-05 0 -9.09574e-07 0 3.1755e-09
110 3 0.001 0.020911 0 -0.00351287 -1.43561e-05 0 -9.14711e-08 0 3.18528e-09
111 3 0.001 0.021544 0 -0.00355343 -1.77224e-06 0 -1.73565e-06 0 3.17709e-09
112 3 0.001 0.0221771 0 -0.003594 2.96442e-05 0 -1.53896e-06 0 3.19147e-09
114 3 0.001 0.0234432 0 -0.0036752 -3.05856e-05 0 6.28576e-07 0 3.17627e-09
113 3 0.001 0.0228101 0 -0.0036346 -1.43527e-05 0 1.17027e-06 0 3.19931e-09
115 3 0.001 0.0240762 0 -0.00371583 -6.24585e-07 0 -1.13624e-06 0 3.16035e-09
116 3 0.001 0.0247093 0 -0.00375646 -8.52988e-06 0 8.90682e-07 0 3.1557e-09
117 3 0.001 0.0253423 0 -0.00379711 5.02759e-07 0 1.44966e-06 0 3.15154e-09
118 3 0.001 0.0259754 0 -0.00383777 3.72098e-05 0 -5.72101e-07 0 3.17075e-09
119 3 0.001 0.0266084 0 -0.00387845 7.29088e-07 0 1.37424e-06 0 3.19009e-09
120 3 0.001 0.0272415 0 -0.00391914 -2.68466e-05 0 -4.16794e-08 0 3.17671e-09
121 3 0.001 0.0278745 0 -0.00395983 -1.35839e-05 0 -3.70946e-06 0 3.15621e-09
122 3 0.001 0.0285076 0 -0.00400055 -3.52054e-05 0 -3.03083e-07 0 3.13157e-09
123 3 0.001 0.0291406 0 -0.00404127 3.94916e-08 0 7.65465e-07 0 3.11372e-09
124 3 0.001 0.0297737 0 -0.004082 -3.11285e-06 0 2.65606e-06 0 3.11206e-09
125 3 0.001 0.0304067 0 -0.00412274 -8.98963e-06 0 2.44103e-06 0 3.10578e-09
41 3 0.001 -0.0227778 0 -0.000846482 2.1081e-05 0 -1.02975e-07 0 3.17175e-09
42 3 0.001 -0.0221444 0 -0.000880359 -2.76039e-05 0 3.33703e-06 0 3.16837e-09
43 3 0.001 -0.0215109 0 -0.000914538 1.91939e-05 0 2.6489e-07 0 3.16401e-09
45 3 0.001 -0.0202441 0 -0.000983752 -3.48185e-05 0 -3.50362e-07 0 3.1496e-09
46 3 0.001 -0.0196107 0 -0.00101876 2.51895e-05 0 -1.87425e-06 0 3.14478e-09
44 3 0.001 -0.0208775 0 -0.000949007 -6.38942e-06 0 2.30692e-07 0 3.17055e-09
47 3 0.001 -0.0189774 0 -0.00105402 -6.82358e-06 0 1.12524e-06 0 3.15416e-09
48 3 0.001 -0.018344 0 -0.00108953 -2.11686e-05 0 2.71061e-06 0 3.13984e-09
50 3 0.001 -0.0170773 0 -0.00116122 -1.53397e-05 0 2.27573e-06 0 3.13601e-09
49 3 0.001 -0.0177107 0 -0.00112526 1.46417e-05 0 7.58819e-07 0 3.13644e-09
51 3 0.001 -0.016444 0 -0.00119739 -4.71337e-05 0 3.45426e-06 0 3.10427e-09
52 3 0.001 -0.0158107 0 -0.00123376 1.1745e-05 0 -1.26055e-06 0 3.08632e-09
53 3 0.001 -0.0151774 0 -0.00127033 4.7812e-05 0 -3.28778e-06 0 3.11658e-09
55 3 0.001 -0.0139109 0 -0.00134402 1.33589e-05 0 -4.85484e-06 0 3.17539e-09
54 3 0.001 -0.0145441 0 -0.00130708 2.6738e-05 0 -4.87829e-06 0 3.15465e-09
56 3 0.001 -0.0132776 0 -0.00138112 -4.72671e-05 0 2.68895e-06 0 3.15822e-09
57 3 0.001 -0.0126443 0 -0.00141839 -4.08893e-05 0 4.78358e-06 0 3.11324e-09
58 3 0.001 -0.0120111 0 -0.00145582 9.87891e-06 0 1.54293e-06 0 3.09736e-09
59 3 0.001 -0.0113779 0 -0.00149339 -7.24964e-07 0 1.14668e-06 0 3.10191e-09
60 3 0.001 -0.0107446 0 -0.00153111 9.45075e-06 0 -9.15823e-07 0 3.10632e-09
62 3 0.001 -0.00947821 0 -0.00160695 3.32773e-06 0 -1.48808e-06 0 3.13813e-09
61 3 0.001 -0.0101114 0 -0.00156896 2.48793e-05 0 -9.09512e-07 0 3.12376e-09
63 3 0.001 -0.00884501 0 -0.00164506 6.3419e-06 0 -2.18548e-06 0 3.14316e-09
64 3 0.001 -0.00821181 0 -0.00168329 4.89376e-07 0 -1.08619e-06 0 3.14674e-09
65 3 0.001 -0.00757862 0 -0.00172163 -1.00029e-07 0 4.99951e-07 0 3.14696e-09
66 3 0.001 -0.00694543 0 -0.00176008 4.33324e-06 0 8.51256e-07 0 3.14908e-09
67 3 0.001 -0.00631225 0 -0.00179863 -2.73811e-05 0 2.64021e-06 0 3.13728e-09
68 3 0.001 -0.00567908 0 -0.00183728 -6.9158e-06 0 3.68275e-06 0 3.11969e-09
69 3 0.001 -0.00504592 0 -0.00187603 -5.51743e-06 0 2.7102e-06 0 3.1132e-09
71 3 0.001 -0.00377961 0 -0.00195379 4.98828e-05 0 -5.24651e-06 0 3.13368e-09
72 3 0.001 -0.00314646 0 -0.00199279 4.5108e-06 0 -5.83683e-07 0 3.16148e-09
70 3 0.001 -0.00441276 0 -0.00191487 -2.19118e-06 0 -1.40188e-06 0 3.10927e-09
73 3 0.001 -0.00251331 0 -0.00203188 -3.60998e-06 0 1.52058e-06 0 3.16191e-09
74 3 0.001 -0.00188016 0 -0.00207105 2.56201e-05 0 -2.40656e-06 0 3.17319e-09
75 3 0.001 -0.00124702 0 -0.00211029 -1.96877e-06 0 -1.61687e-06 0 3.18539e-09
76 3 0.001 -0.000613881 0 -0.0021496 -1.24309e-05 0 -2.36418e-07 0 3.1781e-09
77 3 0.001 1.92516e-05 0 -0.00218898 3.36457e-06 0 -2.81589e-08 0 3.17348e-09
78 3 0.001 0.000652381 0 -0.00222842 -1.19165e-06 0 2.50343e-06 0 3.17451e-09
79 3 0.001 0.00128551 0 -0.00226792 -1.84104e-05 0 2.26443e-06 0 3.16436e-09
80 3 0.001 0.00191862 0 -0.00230749 -1.20851e-05 0 2.69211e-07 0 3.14875e-09
81 3 0.001 0.00255174 0 -0.00234711 2.15364e-05 0 -2.05361e-06 0 3.15362e-09
83 3 0.001 0.00381796 0 -0.00242652 -2.55104e-05 0 9.36197e-07 0 3.16356e-09
84 3 0.001 0.00445107 0 -0.0024663 8.37669e-06 0 -8.72061e-07 0 3.15481e-09
82 3 0.001 0.00318485 0 -0.00238679 1.169e-05 0 -2.62547e-07 0 3.17062e-09
1 1 0.001 -0.0475 0 0 -0.0041243 0 0.00850513 0 1.60362e-34
3 3 0.001 -0.0468667 0 0 0.0102182 0 -0.00890111 0 4.30687e-09
4 3 0.001 -0.0462317 0 -3.38044e-06 2.5003e-05 0 -3.31693e-06 0 5.94993e-09
5 3 0.001 -0.0455973 0 -8.37558e-06 1.21861e-05 0 -2.80322e-06 0 3.19494e-09
6 3 0.001 -0.044963 0 -1.49187e-05 -7.4758e-06 0 -8.43616e-07 0 3.10037e-09
7 3 0.001 -0.0443287 0 -2.29426e-05 2.31877e-05 0 -1.77247e-07 0 3.10909e-09
8 3 0.001 -0.0436944 0 -3.23825e-05 3.11595e-06 0 8.87417e-07 0 3.12309e-09
9 3 0.001 -0.0430602 0 -4.31762e-05 2.6971e-06 0 9.28997e-07 0 3.12666e-09
10 3 0.001 -0.0424259 0 -5.52645e-05 1.10512e-05 0 9.85289e-07 0 3.1342e-09
11 3 0.001 -0.0417917 0 -6.85908e-05 2.74682e-05 0 3.53337e-06 0 3.1543e-09
12 3 0.001 -0.0411575 0 -8.31013e-05 -2.15089e-05 0 3.30066e-06 0 3.15772e-09
13 3 0.001 -0.0405234 0 -9.87449e-05 -1.58982e-05 0 7.83093e-07 0 3.13905e-09
14 3 0.001 -0.0398892 0 -0.000115474 -3.32337e-05 0 -3.34442e-07 0 3.11451e-09
15 3 0.001 -0.0392551 0 -0.000133241 1.14245e-05 0 -4.4557e-06 0 3.10389e-09
16 3 0.001 -0.0386211 0 -0.000152004 3.52844e-05 0 -2.49644e-06 0 3.12802e-09
17 3 0.001 -0.037987 0 -0.00017172 -3.00598e-05 0 3.54257e-06 0 3.13095e-09
18 3 0.001 -0.037353 0 -0.000192346 -8.16019e-06 0 1.74034e-06 0 3.11175e-09
19 3 0.001 -0.036719 0 -0.000213843 3.77841e-05 0 -1.55837e-06 0 3.12705e-09
20 3 0.001 -0.0360851 0 -0.000236175 1.14631e-05 0 -1.55955e-06 0 3.15236e-09
21 3 0.001 -0.0354511 0 -0.000259305 3.70129e-06 0 1.62896e-06 0 3.1603e-09
22 3 0.001 -0.0348172 0 -0.0002832 1.12702e-06 0 3.26369e-06 0 3.16287e-09
23 3 0.001 -0.0341834 0 -0.000307827 -2.10388e-05 0 1.88287e-06 0 3.1528e-09
24 3 0.001 -0.0335495 0 -0.000333155 3.46647e-05 0 -3.83663e-06 0 3.15996e-09
25 3 0.001 -0.0329157 0 -0.000359156 -2.07191e-05 0 -3.90632e-06 0 3.16737e-09
26 3 0.001 -0.0322819 0 -0.000385801 -1.50377e-05 0 -1.84738e-06 0 3.1494e-09
27 3 0.001 -0.0316481 0 -0.000413063 -1.94499e-06 0 3.19907e-07 0 3.14092e-09
28 3 0.001 -0.0310144 0 -0.000440915 -3.54175e-05 0 3.41489e-06 0 3.12201e-09
29 3 0.001 -0.0303807 0 -0.000469331 2.79133e-05 0 8.52085e-07 0 3.11822e-09
30 3 0.001 -0.029747 0 -0.000498288 -2.88833e-05 0 1.41966e-06 0 3.11777e-09
31 3 0.001 -0.0291133 0 -0.000527761 5.18567e-06 0 -1.74808e-06 0 3.10586e-09
32 3 0.001 -0.0284797 0 -0.000557729 3.74498e-05 0 -1.54737e-06 0 3.12764e-09
33 3 0.001 -0.0278461 0 -0.000588171 5.13911e-06 0 -6.6471e-08 0 3.14937e-09
34 3 0.001 -0.0272125 0 -0.000619067 2.77764e-05 0 -3.79498e-06 0 3.16633e-09
35 3 0.001 -0.0265789 0 -0.000650398 -2.8452e-07 0 -3.34237e-06 0 3.18061e-09
36 3 0.001 -0.0259453 0 -0.000682144 1.63615e-05 0 -4.95747e-07 0 3.189e-09
37 3 0.001 -0.0253118 0 -0.000714287 -7.4002e-06 0 3.54541e-06 0 3.19356e-09
38 3 0.001 -0.0246783 0 -0.000746808 -5.37452e-05 0 3.87272e-06 0 3.16221e-09
39 3 0.001 -0.0240448 0 -0.000779691 -1.4553e-05 0 -5.82579e-07 0 3.12738e-09
40 3 0.001 -0.0234113 0 -0.000812921 4.00432e-05 0 -3.5758e-06 0 3.1405e-09
