ITEM: TIMESTEP
5000000
ITEM: NUMBER OF ATOMS
151
ITEM: BOX BOUNDS ff ff ff
-5.5000000000000000e-02 5.5000000000000000e-02
-6.0000000000000001e-03 6.0000000000000001e-03
-2.5000000000000001e-02 2.5000000000000001e-02
ITEM: ATOMS id type radius x y z fx fy fz c_bendingE c_stretchingE
133 3 0.001 0.0373373 0 -0.00425302 -4.34673e-10 0 -6.83829e-09 0 2.27232e-09
134 3 0.001 0.0380037 0 -0.0042923 8.67023e-10 0 1.04214e-08 0 2.27232e-09
135 3 0.001 0.0386701 0 -0.00433159 -3.9461e-10 0 -8.08165e-09 0 2.27232e-09
136 3 0.001 0.0393365 0 -0.00437088 -2.82667e-10 0 -2.25031e-09 0 2.27232e-09
137 3 0.001 0.0400029 0 -0.00441017 1.16966e-10 0 4.14026e-09 0 2.27232e-09
138 3 0.001 0.0406693 0 -0.00444947 2.62341e-10 0 1.23383e-09 0 2.27232e-09
139 3 0.001 0.0413357 0 -0.00448878 3.82392e-10 0 3.8497e-09 0 2.27232e-09
140 3 0.001 0.0420021 0 -0.00452808 -1.51191e-09 0 -2.19091e-08 0 2.27232e-09
141 3 0.001 0.0426685 0 -0.00456739 1.7875e-09 0 3.10654e-08 0 2.27232e-09
142 3 0.001 0.0433349 0 -0.00460671 -7.49985e-10 0 -1.56354e-08 0 2.27232e-09
143 3 0.001 0.0440013 0 -0.00464602 -4.23263e-10 0 -7.40005e-09 0 2.27232e-09
144 3 0.001 0.0446677 0 -0.00468534 5.56531e-10 0 1.19105e-08 0 2.27232e-09
145 3 0.001 0.0453341 0 -0.00472466 -1.60963e-10 0 1.73714e-09 0 2.27232e-09
146 3 0.001 0.0460004 0 -0.00476398 -6.68689e-10 0 -1.36547e-08 0 2.27232e-09
147 3 0.001 0.0466668 0 -0.0048033 9.89761e-10 0 6.71221e-09 0 2.27232e-09
148 3 0.001 0.0473332 0 -0.00484263 6.85443e-10 0 1.29888e-08 0 2.27232e-09
149 3 0.001 0.0479996 0 -0.00488195 -1.63465e-09 0 -1.99098e-08 0 2.27232e-09
150 3 0.001 0.048666 0 -0.00492128 6.19589e-10 0 1.15614e-08 0 4.28306e-09
2 2 0.001 0.05 0 -0.005 -0.00510741 0 0.000302515 0 3.1469e-09
151 3 0.001 0.049333 0 -0.00496064 -1.26281e-10 0 -4.10941e-09 0 6.2938e-09
90 3 0.001 0.00868148 0 -0.00257557 4.54642e-10 0 1.0548e-08 0 2.27231e-09
91 3 0.001 0.00934793 0 -0.0026141 9.01926e-10 0 1.07145e-08 0 2.27231e-09
92 3 0.001 0.0100144 0 -0.00265266 -8.16556e-10 0 -2.0491e-08 0 2.27232e-09
93 3 0.001 0.0106808 0 -0.00269126 2.48006e-10 0 8.65181e-09 0 2.27232e-09
94 3 0.001 0.0113472 0 -0.0027299 6.32048e-11 0 6.03834e-09 0 2.27232e-09
95 3 0.001 0.0120137 0 -0.00276857 -1.68839e-11 0 -3.41599e-09 0 2.27232e-09
96 3 0.001 0.0126801 0 -0.00280727 -3.9139e-10 0 -9.65695e-09 0 2.27232e-09
97 3 0.001 0.0133465 0 -0.00284601 7.58873e-10 0 1.39404e-08 0 2.27232e-09
98 3 0.001 0.014013 0 -0.00288477 -1.34519e-11 0 1.06799e-09 0 2.27232e-09
99 3 0.001 0.0146794 0 -0.00292356 -7.72146e-10 0 -1.39394e-08 0 2.27232e-09
100 3 0.001 0.0153458 0 -0.00296238 7.49233e-12 0 -1.14164e-09 0 2.27232e-09
101 3 0.001 0.0160122 0 -0.00300123 1.03394e-09 0 2.06672e-08 0 2.27232e-09
102 3 0.001 0.0166787 0 -0.0030401 -1.22358e-09 0 -1.63786e-08 0 2.27232e-09
103 3 0.001 0.0173451 0 -0.00307899 5.52722e-10 0 6.56046e-09 0 2.27232e-09
104 3 0.001 0.0180115 0 -0.00311791 7.12202e-11 0 -5.75127e-09 0 2.27232e-09
105 3 0.001 0.0186779 0 -0.00315684 1.00767e-10 0 -6.65786e-10 0 2.27232e-09
106 3 0.001 0.0193443 0 -0.0031958 3.07039e-10 0 1.05941e-08 0 2.27232e-09
107 3 0.001 0.0200108 0 -0.00323478 -7.1718e-10 0 -6.33737e-09 0 2.27232e-09
108 3 0.001 0.0206772 0 -0.00327378 -1.76429e-10 0 -6.36147e-09 0 2.27232e-09
109 3 0.001 0.0213436 0 -0.0033128 4.71002e-10 0 4.57096e-09 0 2.27232e-09
110 3 0.001 0.02201 0 -0.00335183 5.37293e-10 0 1.09501e-08 0 2.27232e-09
111 3 0.001 0.0226764 0 -0.00339088 -1.00253e-09 0 -1.49703e-08 0 2.27232e-09
112 3 0.001 0.0233428 0 -0.00342995 2.71139e-10 0 1.92372e-09 0 2.27232e-09
113 3 0.001 0.0240092 0 -0.00346903 7.01506e-10 0 9.34013e-09 0 2.27232e-09
114 3 0.001 0.0246756 0 -0.00350813 -7.30713e-10 0 -8.44686e-09 0 2.27232e-09
115 3 0.001 0.025342 0 -0.00354724 9.35505e-11 0 6.17622e-09 0 2.27232e-09
116 3 0.001 0.0260085 0 -0.00358636 -1.26662e-10 0 -6.8432e-09 0 2.27232e-09
117 3 0.001 0.0266749 0 -0.0036255 3.22531e-10 0 -8.05001e-10 0 2.27232e-09
118 3 0.001 0.0273413 0 -0.00366465 6.6022e-10 0 1.44219e-08 0 2.27232e-09
119 3 0.001 0.0280077 0 -0.00370381 -1.86113e-09 0 -2.4246e-08 0 2.27232e-09
120 3 0.001 0.0286741 0 -0.00374298 1.21889e-09 0 2.19383e-08 0 2.27232e-09
121 3 0.001 0.0293405 0 -0.00378216 -2.66246e-12 0 -7.33736e-09 0 2.27232e-09
122 3 0.001 0.0300069 0 -0.00382136 1.71818e-10 0 -2.2635e-09 0 2.27232e-09
123 3 0.001 0.0306733 0 -0.00386056 1.7801e-10 0 6.45522e-09 0 2.27232e-09
124 3 0.001 0.0313397 0 -0.00389977 -1.20131e-09 0 -1.52042e-08 0 2.27232e-09
125 3 0.001 0.0320061 0 -0.00393899 1.0456e-09 0 1.75493e-08 0 2.27232e-09
126 3 0.001 0.0326725 0 -0.00397822 -6.13346e-10 0 -1.30288e-08 0 2.27232e-09
127 3 0.001 0.0333389 0 -0.00401746 4.8339e-10 0 1.18884e-08 0 2.27232e-09
128 3 0.001 0.0340053 0 -0.0040567 -5.82089e-10 0 -7.66645e-09 0 2.27232e-09
129 3 0.001 0.0346717 0 -0.00409595 2.99192e-10 0 -4.03364e-10 0 2.27232e-09
130 3 0.001 0.0353381 0 -0.00413521 7.6878e-10 0 7.00128e-09 0 2.27232e-09
131 3 0.001 0.0360045 0 -0.00417447 -7.93214e-10 0 -1.2001e-08 0 2.27232e-09
132 3 0.001 0.0366709 0 -0.00421375 1.17314e-10 0 1.0075e-08 0 2.27232e-09
44 3 0.001 -0.0219799 0 -0.000894249 -1.4555e-09 0 -3.54392e-08 0 2.2721e-09
45 3 0.001 -0.0213132 0 -0.000927262 1.86325e-09 0 3.48049e-08 0 2.27211e-09
46 3 0.001 -0.0206464 0 -0.00096054 -1.43892e-09 0 -2.41365e-08 0 2.27213e-09
48 3 0.001 -0.019313 0 -0.00102785 8.85415e-10 0 1.44639e-08 0 2.27216e-09
47 3 0.001 -0.0199797 0 -0.000994073 1.13351e-10 0 8.76699e-09 0 2.27214e-09
49 3 0.001 -0.0186463 0 -0.00106186 -1.59177e-09 0 -3.69588e-08 0 2.27217e-09
50 3 0.001 -0.0179797 0 -0.0010961 1.7204e-09 0 3.47892e-08 0 2.27218e-09
51 3 0.001 -0.017313 0 -0.00113055 -9.83777e-10 0 -1.21405e-08 0 2.27219e-09
52 3 0.001 -0.0166463 0 -0.00116521 -1.3774e-10 0 -1.89342e-09 0 2.2722e-09
53 3 0.001 -0.0159797 0 -0.00120007 3.09922e-10 0 -1.41767e-09 0 2.27221e-09
54 3 0.001 -0.0153131 0 -0.00123512 3.95854e-10 0 4.51658e-09 0 2.27222e-09
55 3 0.001 -0.0146464 0 -0.00127035 -7.79451e-11 0 1.70396e-09 0 2.27223e-09
56 3 0.001 -0.0139798 0 -0.00130575 -6.72674e-10 0 -9.1739e-09 0 2.27224e-09
57 3 0.001 -0.0133132 0 -0.00134132 5.40299e-10 0 9.48686e-09 0 2.27224e-09
58 3 0.001 -0.0126466 0 -0.00137705 -2.77607e-10 0 -5.41063e-09 0 2.27225e-09
59 3 0.001 -0.01198 0 -0.00141294 -2.06477e-11 0 3.57823e-09 0 2.27225e-09
60 3 0.001 -0.0113134 0 -0.00144897 4.44775e-10 0 7.40908e-09 0 2.27226e-09
61 3 0.001 -0.0106469 0 -0.00148514 -1.15248e-09 0 -2.83055e-08 0 2.27226e-09
62 3 0.001 -0.0099803 0 -0.00152145 1.81093e-09 0 2.83191e-08 0 2.27227e-09
63 3 0.001 -0.00931374 0 -0.00155789 -7.00253e-10 0 -6.62826e-09 0 2.27227e-09
64 3 0.001 -0.00864719 0 -0.00159445 -6.31349e-10 0 -4.95806e-09 0 2.27228e-09
65 3 0.001 -0.00798064 0 -0.00163114 1.8265e-10 0 4.70848e-09 0 2.27228e-09
66 3 0.001 -0.0073141 0 -0.00166794 -2.76546e-10 0 -9.88021e-09 0 2.27228e-09
69 3 0.001 -0.00531451 0 -0.00177897 7.5292e-10 0 1.42395e-08 0 2.27229e-09
67 3 0.001 -0.00664757 0 -0.00170484 1.2e-09 0 1.69947e-08 0 2.27229e-09
68 3 0.001 -0.00598104 0 -0.00174185 -1.04345e-09 0 -1.5604e-08 0 2.27229e-09
70 3 0.001 -0.004648 0 -0.00181618 -7.05203e-10 0 -1.60868e-08 0 2.27229e-09
71 3 0.001 -0.00398149 0 -0.00185348 2.78445e-10 0 7.50811e-09 0 2.2723e-09
72 3 0.001 -0.00331498 0 -0.00189087 -3.19305e-11 0 3.21776e-09 0 2.2723e-09
73 3 0.001 -0.00264848 0 -0.00192835 -5.21308e-11 0 -2.46514e-09 0 2.2723e-09
74 3 0.001 -0.00198198 0 -0.00196591 9.32672e-11 0 -1.02646e-09 0 2.2723e-09
75 3 0.001 -0.00131549 0 -0.00200354 6.60638e-11 0 -8.5206e-10 0 2.2723e-09
76 3 0.001 -0.000648997 0 -0.00204125 3.19928e-10 0 1.19254e-08 0 2.2723e-09
77 3 0.001 1.74875e-05 0 -0.00207904 -1.87745e-09 0 -2.8555e-08 0 2.2723e-09
78 3 0.001 0.000683968 0 -0.00211689 2.33318e-09 0 3.19833e-08 0 2.27231e-09
79 3 0.001 0.00135045 0 -0.00215481 -6.0053e-10 0 -1.50569e-08 0 2.27231e-09
80 3 0.001 0.00201692 0 -0.00219279 -3.72613e-10 0 -3.27548e-09 0 2.27231e-09
81 3 0.001 0.00268339 0 -0.00223083 -6.99612e-11 0 2.28245e-09 0 2.27231e-09
82 3 0.001 0.00334986 0 -0.00226893 4.9389e-10 0 1.09869e-08 0 2.27231e-09
83 3 0.001 0.00401632 0 -0.00230709 -6.34573e-10 0 -1.22576e-08 0 2.27231e-09
84 3 0.001 0.00468278 0 -0.0023453 1.92165e-10 0 1.41258e-09 0 2.27231e-09
85 3 0.001 0.00534924 0 -0.00238356 3.08344e-10 0 5.58366e-09 0 2.27231e-09
86 3 0.001 0.00601569 0 -0.00242187 -5.33408e-10 0 -1.0717e-08 0 2.27231e-09
87 3 0.001 0.00668214 0 -0.00246023 8.93129e-10 0 1.1118e-08 0 2.27231e-09
88 3 0.001 0.00734859 0 -0.00249863 1.32936e-10 0 4.77003e-09 0 2.27231e-09
89 3 0.001 0.00801504 0 -0.00253708 -1.48014e-09 0 -1.9212e-08 0 2.27231e-09
1 1 0.001 -0.05 0 0 -0.00340998 0 0.00675413 0 1.14427e-32
3 3 0.001 -0.0493333 0 0 0.00851739 0 -0.0070565 0 3.1497e-09
4 3 0.001 -0.0486652 0 -3.13014e-06 -1.41009e-10 0 4.00449e-09 0 4.28276e-09
5 3 0.001 -0.0479977 0 -7.75833e-06 -4.18115e-11 0 1.65808e-09 0 2.26638e-09
6 3 0.001 -0.0473301 0 -1.38254e-05 2.42625e-10 0 -6.00199e-09 0 2.26686e-09
7 3 0.001 -0.0466626 0 -2.12719e-05 1.49416e-10 0 6.73754e-09 0 2.2673e-09
8 3 0.001 -0.0459951 0 -3.00408e-05 -5.21366e-10 0 -5.07325e-09 0 2.26771e-09
9 3 0.001 -0.0453276 0 -4.00775e-05 -7.92869e-11 0 8.39215e-10 0 2.26808e-09
10 3 0.001 -0.0446602 0 -5.13297e-05 3.91237e-10 0 3.1761e-09 0 2.26842e-09
11 3 0.001 -0.0439927 0 -6.37471e-05 1.60428e-10 0 -8.08957e-09 0 2.26874e-09
12 3 0.001 -0.0433253 0 -7.72816e-05 2.22247e-10 0 1.2614e-08 0 2.26903e-09
13 3 0.001 -0.0426579 0 -9.1887e-05 -6.95774e-10 0 -1.2754e-08 0 2.26929e-09
14 3 0.001 -0.0419906 0 -0.000107519 2.91066e-10 0 1.18322e-08 0 2.26954e-09
15 3 0.001 -0.0413232 0 -0.000124135 -9.48403e-11 0 -1.02401e-08 0 2.26976e-09
16 3 0.001 -0.0406559 0 -0.000141695 -1.0119e-10 0 2.06961e-09 0 2.26997e-09
17 3 0.001 -0.0399886 0 -0.00016016 4.38369e-11 0 6.66356e-09 0 2.27016e-09
18 3 0.001 -0.0393213 0 -0.000179491 1.22643e-10 0 -4.1008e-09 0 2.27033e-09
19 3 0.001 -0.0386541 0 -0.000199654 2.2733e-10 0 -1.91807e-09 0 2.27049e-09
20 3 0.001 -0.0379868 0 -0.000220614 -6.51508e-11 0 3.71916e-10 0 2.27064e-09
21 3 0.001 -0.0373196 0 -0.000242339 -4.44722e-10 0 -2.44311e-09 0 2.27078e-09
22 3 0.001 -0.0366525 0 -0.000264795 3.0641e-10 0 1.24234e-08 0 2.2709e-09
23 3 0.001 -0.0359853 0 -0.000287954 -1.21041e-10 0 -1.39284e-08 0 2.27101e-09
24 3 0.001 -0.0353182 0 -0.000311786 4.10856e-10 0 6.84365e-09 0 2.27112e-09
25 3 0.001 -0.0346511 0 -0.000336263 -4.67946e-10 0 -4.40465e-09 0 2.27122e-09
26 3 0.001 -0.033984 0 -0.000361359 -4.99677e-11 0 4.92749e-09 0 2.27131e-09
27 3 0.001 -0.0333169 0 -0.000387049 9.90534e-11 0 -3.23761e-09 0 2.27139e-09
28 3 0.001 -0.0326499 0 -0.000413307 2.97314e-10 0 4.75211e-10 0 2.27146e-09
29 3 0.001 -0.0319829 0 -0.00044011 -6.01565e-11 0 1.82512e-09 0 2.27153e-09
30 3 0.001 -0.0313159 0 -0.000467435 -3.64194e-10 0 -3.7343e-09 0 2.2716e-09
31 3 0.001 -0.0306489 0 -0.000495262 5.5627e-10 0 8.09186e-09 0 2.27165e-09
32 3 0.001 -0.029982 0 -0.000523569 -5.77308e-10 0 -1.67973e-08 0 2.27171e-09
33 3 0.001 -0.029315 0 -0.000552336 5.91935e-10 0 2.20581e-08 0 2.27176e-09
34 3 0.001 -0.0286481 0 -0.000581545 -9.07219e-10 0 -1.48222e-08 0 2.2718e-09
35 3 0.001 -0.0279812 0 -0.000611177 4.53612e-10 0 3.99815e-09 0 2.27184e-09
36 3 0.001 -0.0273143 0 -0.000641215 5.15081e-10 0 4.90696e-11 0 2.27188e-09
37 3 0.001 -0.0266475 0 -0.000671641 -2.58826e-10 0 -6.3293e-09 0 2.27192e-09
38 3 0.001 -0.0259806 0 -0.000702441 4.05e-11 0 1.27522e-08 0 2.27195e-09
39 3 0.001 -0.0253138 0 -0.000733598 -3.36234e-10 0 -4.58999e-09 0 2.27198e-09
40 3 0.001 -0.024647 0 -0.000765098 8.86635e-11 0 -1.59281e-09 0 2.27201e-09
41 3 0.001 -0.0239802 0 -0.000796926 -1.86941e-10 0 -5.47295e-09 0 2.27203e-09
42 3 0.001 -0.0233134 0 -0.000829069 -1.62671e-10 0 -6.6226e-10 0 2.27205e-09
43 3 0.001 -0.0226466 0 -0.000861515 1.09158e-09 0 2.18224e-08 0 2.27208e-09
