ITEM: TIMESTEP
2700000
ITEM: NUMBER OF ATOMS
151
ITEM: BOX BOUNDS ff ff ff
-5.5000000000000000e-02 5.5000000000000000e-02
-6.0000000000000001e-03 6.0000000000000001e-03
-2.5000000000000001e-02 2.5000000000000001e-02
ITEM: ATOMS id type radius x y z fx fy fz c_bendingE c_stretchingE
142 3 0.001 0.0433337 0 -0.00246348 -3.13701e-11 0 -4.28791e-10 0 1.98421e-10
143 3 0.001 0.0440002 0 -0.0024871 3.80025e-10 0 -5.84576e-09 0 1.98421e-10
144 3 0.001 0.0446667 0 -0.00251073 -1.41134e-09 0 6.91416e-09 0 1.98421e-10
145 3 0.001 0.0453333 0 -0.00253437 8.09343e-10 0 -4.85126e-09 0 1.98421e-10
146 3 0.001 0.0459998 0 -0.00255801 7.42475e-10 0 3.54043e-09 0 1.98421e-10
147 3 0.001 0.0466663 0 -0.00258166 -9.77994e-10 0 -1.20028e-09 0 1.98421e-10
148 3 0.001 0.0473328 0 -0.00260532 3.51966e-11 0 -5.81343e-09 0 1.98421e-10
149 3 0.001 0.0479993 0 -0.00262897 -1.85079e-10 0 1.25093e-08 0 1.98421e-10
150 3 0.001 0.0486658 0 -0.00265263 -7.15284e-11 0 -1.01943e-08 0 1.14987e-09
2 2 0.001 0.05 0 -0.0027 -0.00151081 0 5.73357e-05 0 1.05066e-09
151 3 0.001 0.0493329 0 -0.00267632 1.17477e-09 0 3.25597e-09 0 2.10132e-09
69 3 0.001 -0.00532472 0 -0.000832705 -5.60539e-11 0 2.36251e-09 0 1.98408e-10
70 3 0.001 -0.00465809 0 -0.000852522 1.95819e-10 0 -1.51673e-09 0 1.98409e-10
71 3 0.001 -0.00399146 0 -0.000872457 -3.15868e-10 0 -3.89715e-09 0 1.9841e-10
72 3 0.001 -0.00332483 0 -0.000892506 -4.74949e-10 0 5.02415e-09 0 1.9841e-10
73 3 0.001 -0.0026582 0 -0.000912668 -4.36636e-10 0 -4.24844e-09 0 1.9841e-10
74 3 0.001 -0.00199158 0 -0.000932939 -4.36358e-10 0 3.37787e-09 0 1.98411e-10
75 3 0.001 -0.00132496 0 -0.000953317 -4.87944e-11 0 -2.81046e-10 0 1.98411e-10
76 3 0.001 -0.00065835 0 -0.0009738 5.99393e-11 0 -1.86546e-09 0 1.98412e-10
77 3 0.001 8.26126e-06 0 -0.000994384 4.62611e-10 0 8.62525e-10 0 1.98412e-10
78 3 0.001 0.00067487 0 -0.00101507 2.94543e-10 0 9.76691e-10 0 1.98413e-10
79 3 0.001 0.00134147 0 -0.00103585 -4.38378e-10 0 -1.2952e-09 0 1.98413e-10
80 3 0.001 0.00200808 0 -0.00105672 4.95494e-10 0 -5.55252e-10 0 1.98413e-10
81 3 0.001 0.00267468 0 -0.00107769 3.40573e-10 0 2.52404e-09 0 1.98414e-10
82 3 0.001 0.00334127 0 -0.00109875 7.09013e-10 0 -2.21113e-09 0 1.98414e-10
83 3 0.001 0.00400787 0 -0.0011199 -2.17155e-10 0 6.1939e-10 0 1.98415e-10
84 3 0.001 0.00467446 0 -0.00114113 1.54401e-10 0 -3.24067e-10 0 1.98415e-10
85 3 0.001 0.00534105 0 -0.00116244 5.74277e-10 0 -3.16282e-10 0 1.98415e-10
86 3 0.001 0.00600763 0 -0.00118384 -7.31927e-10 0 2.72797e-09 0 1.98416e-10
87 3 0.001 0.00667422 0 -0.00120532 -9.00881e-10 0 -5.93434e-09 0 1.98416e-10
88 3 0.001 0.0073408 0 -0.00122687 9.68063e-10 0 6.98972e-09 0 1.98416e-10
89 3 0.001 0.00800737 0 -0.0012485 1.3747e-10 0 -3.35373e-09 0 1.98416e-10
90 3 0.001 0.00867395 0 -0.0012702 -9.34924e-10 0 -2.31062e-09 0 1.98417e-10
91 3 0.001 0.00934052 0 -0.00129198 -5.69552e-10 0 4.33955e-09 0 1.98417e-10
92 3 0.001 0.0100071 0 -0.00131382 -5.03109e-10 0 -1.25983e-09 0 1.98417e-10
93 3 0.001 0.0106737 0 -0.00133574 -2.65211e-10 0 -2.58079e-09 0 1.98417e-10
94 3 0.001 0.0113402 0 -0.00135772 -1.42619e-10 0 3.39439e-09 0 1.98417e-10
95 3 0.001 0.0120068 0 -0.00137976 4.21416e-10 0 -7.77823e-10 0 1.98417e-10
96 3 0.001 0.0126734 0 -0.00140187 4.13835e-10 0 -2.51276e-09 0 1.98417e-10
97 3 0.001 0.0133399 0 -0.00142404 -3.01005e-10 0 1.92785e-09 0 1.98418e-10
98 3 0.001 0.0140065 0 -0.00144627 8.63374e-10 0 1.09969e-09 0 1.98418e-10
99 3 0.001 0.014673 0 -0.00146856 8.26304e-10 0 -1.92791e-09 0 1.98418e-10
100 3 0.001 0.0153396 0 -0.0014909 7.03367e-10 0 1.94886e-10 0 1.98419e-10
101 3 0.001 0.0160061 0 -0.0015133 -3.77709e-10 0 1.88456e-09 0 1.98419e-10
102 3 0.001 0.0166727 0 -0.00153576 -1.39876e-09 0 -3.59166e-09 0 1.98419e-10
103 3 0.001 0.0173392 0 -0.00155826 3.52772e-11 0 3.89606e-09 0 1.98419e-10
104 3 0.001 0.0180058 0 -0.00158082 2.65744e-10 0 -2.5193e-09 0 1.98419e-10
105 3 0.001 0.0186723 0 -0.00160343 9.27538e-11 0 2.04212e-09 0 1.98419e-10
106 3 0.001 0.0193389 0 -0.00162608 1.37304e-10 0 -2.45161e-09 0 1.98419e-10
107 3 0.001 0.0200054 0 -0.00164878 -1.38542e-10 0 6.96388e-10 0 1.98419e-10
108 3 0.001 0.020672 0 -0.00167153 5.02724e-10 0 7.84067e-10 0 1.9842e-10
109 3 0.001 0.0213385 0 -0.00169431 -6.53934e-10 0 -9.39973e-10 0 1.9842e-10
110 3 0.001 0.022005 0 -0.00171715 -6.06148e-10 0 2.99699e-09 0 1.9842e-10
111 3 0.001 0.0226716 0 -0.00174002 -6.73831e-10 0 -3.14961e-09 0 1.98419e-10
112 3 0.001 0.0233381 0 -0.00176293 9.58631e-12 0 -1.28658e-09 0 1.98419e-10
113 3 0.001 0.0240046 0 -0.00178589 9.59685e-10 0 3.23431e-09 0 1.9842e-10
114 3 0.001 0.0246712 0 -0.00180888 -8.74447e-10 0 -3.34426e-10 0 1.9842e-10
115 3 0.001 0.0253377 0 -0.0018319 -5.9945e-11 0 -5.99338e-10 0 1.9842e-10
116 3 0.001 0.0260042 0 -0.00185497 -2.89458e-10 0 -2.35274e-09 0 1.9842e-10
117 3 0.001 0.0266708 0 -0.00187806 1.41894e-09 0 3.61071e-09 0 1.9842e-10
118 3 0.001 0.0273373 0 -0.00190119 6.7781e-10 0 -5.99442e-10 0 1.9842e-10
119 3 0.001 0.0280038 0 -0.00192435 -4.47386e-10 0 -4.35249e-09 0 1.9842e-10
120 3 0.001 0.0286704 0 -0.00194754 -3.55186e-10 0 8.34698e-09 0 1.9842e-10
121 3 0.001 0.0293369 0 -0.00197076 -1.5293e-09 0 -9.70836e-09 0 1.9842e-10
122 3 0.001 0.0300034 0 -0.00199401 -2.4006e-10 0 4.81335e-09 0 1.9842e-10
123 3 0.001 0.0306699 0 -0.00201729 1.28629e-09 0 5.53752e-09 0 1.9842e-10
124 3 0.001 0.0313364 0 -0.0020406 6.20478e-10 0 -1.16738e-08 0 1.98421e-10
125 3 0.001 0.032003 0 -0.00206393 -7.0458e-11 0 1.03176e-08 0 1.98421e-10
126 3 0.001 0.0326695 0 -0.00208728 1.40479e-09 0 -6.03734e-09 0 1.98421e-10
127 3 0.001 0.033336 0 -0.00211066 6.23628e-12 0 1.42506e-09 0 1.98421e-10
128 3 0.001 0.0340025 0 -0.00213406 -6.12747e-10 0 3.64576e-10 0 1.98421e-10
129 3 0.001 0.034669 0 -0.00215748 -2.30426e-10 0 -1.53552e-09 0 1.98421e-10
130 3 0.001 0.0353356 0 -0.00218092 -3.68477e-11 0 4.34465e-09 0 1.98421e-10
131 3 0.001 0.0360021 0 -0.00220438 1.75681e-10 0 -4.07772e-09 0 1.98421e-10
132 3 0.001 0.0366686 0 -0.00222786 -9.0117e-10 0 2.50722e-09 0 1.98421e-10
133 3 0.001 0.0373351 0 -0.00225136 8.83304e-10 0 -2.46529e-09 0 1.98421e-10
134 3 0.001 0.0380016 0 -0.00227487 3.40267e-10 0 -2.63774e-10 0 1.98421e-10
135 3 0.001 0.0386681 0 -0.0022984 -9.14454e-10 0 2.94548e-09 0 1.98421e-10
136 3 0.001 0.0393346 0 -0.00232195 -6.64796e-10 0 -1.70847e-09 0 1.98421e-10
137 3 0.001 0.0400012 0 -0.00234551 1.15313e-10 0 6.95748e-10 0 1.98421e-10
138 3 0.001 0.0406677 0 -0.00236908 1.10641e-10 0 -1.53853e-10 0 1.98421e-10
139 3 0.001 0.0413342 0 -0.00239266 4.18704e-10 0 -1.12707e-09 0 1.98421e-10
140 3 0.001 0.0420007 0 -0.00241626 6.91123e-10 0 -1.11397e-09 0 1.98422e-10
141 3 0.001 0.0426672 0 -0.00243986 -1.56828e-09 0 4.21249e-09 0 1.98421e-10
1 1 0.001 -0.05 0 0 -0.00341476 0 0.00241002 0 1.14427e-32
3 3 0.001 -0.0493333 0 0 0.00492556 0 -0.00246722 0 1.05304e-09
4 3 0.001 -0.0486658 0 -1.11586e-06 -1.80418e-10 0 -6.42713e-09 0 1.15213e-09
5 3 0.001 -0.0479989 0 -2.77614e-06 -2.70517e-10 0 5.96109e-09 0 1.98179e-10
6 3 0.001 -0.047332 0 -4.96946e-06 4.53263e-10 0 -5.30951e-09 0 1.9819e-10
7 3 0.001 -0.046665 0 -7.68372e-06 8.55058e-10 0 3.9609e-09 0 1.982e-10
8 3 0.001 -0.0459981 0 -1.09071e-05 -3.31505e-10 0 -3.20491e-10 0 1.9821e-10
9 3 0.001 -0.0453312 0 -1.4628e-05 -4.89244e-11 0 -1.93831e-09 0 1.98219e-10
10 3 0.001 -0.0446643 0 -1.88352e-05 2.63951e-10 0 2.71734e-09 0 1.98228e-10
11 3 0.001 -0.0439974 0 -2.35175e-05 -1.61894e-09 0 -2.87025e-09 0 1.98237e-10
12 3 0.001 -0.0433305 0 -2.86643e-05 9.51096e-10 0 3.68824e-10 0 1.98245e-10
13 3 0.001 -0.0426636 0 -3.42649e-05 9.94562e-10 0 4.04539e-09 0 1.98253e-10
14 3 0.001 -0.0419967 0 -4.03091e-05 -1.0512e-09 0 -6.20582e-09 0 1.98261e-10
15 3 0.001 -0.0413298 0 -4.67867e-05 1.33892e-09 0 3.09995e-09 0 1.98268e-10
16 3 0.001 -0.0406629 0 -5.36879e-05 -6.08973e-10 0 2.0013e-09 0 1.98275e-10
17 3 0.001 -0.039996 0 -6.10031e-05 -1.62401e-09 0 -4.64168e-09 0 1.98281e-10
18 3 0.001 -0.0393291 0 -6.87229e-05 8.17251e-10 0 3.37468e-09 0 1.98287e-10
19 3 0.001 -0.0386622 0 -7.6838e-05 1.40159e-09 0 9.30959e-10 0 1.98293e-10
20 3 0.001 -0.0379953 0 -8.53395e-05 -1.69985e-10 0 -1.87345e-09 0 1.98299e-10
21 3 0.001 -0.0373285 0 -9.42186e-05 -3.77598e-10 0 -1.55732e-09 0 1.98305e-10
22 3 0.001 -0.0366616 0 -0.000103467 4.25543e-10 0 1.45014e-09 0 1.9831e-10
23 3 0.001 -0.0359947 0 -0.000113075 -4.15114e-10 0 1.80882e-09 0 1.98315e-10
24 3 0.001 -0.0353279 0 -0.000123036 5.45522e-10 0 -2.47551e-09 0 1.9832e-10
25 3 0.001 -0.034661 0 -0.000133342 5.12821e-11 0 -7.98524e-11 0 1.98324e-10
26 3 0.001 -0.0339942 0 -0.000143984 4.07678e-10 0 2.58894e-09 0 1.98329e-10
27 3 0.001 -0.0333274 0 -0.000154954 1.90548e-10 0 -1.49224e-09 0 1.98333e-10
28 3 0.001 -0.0326605 0 -0.000166247 -3.27423e-10 0 -6.92795e-10 0 1.98337e-10
29 3 0.001 -0.0319937 0 -0.000177853 4.20694e-11 0 3.49238e-10 0 1.98341e-10
30 3 0.001 -0.0313269 0 -0.000189766 -1.89994e-09 0 -8.65314e-10 0 1.98344e-10
31 3 0.001 -0.03066 0 -0.000201979 -5.3656e-10 0 3.29696e-09 0 1.98347e-10
32 3 0.001 -0.0299932 0 -0.000214484 1.86581e-10 0 -2.87813e-09 0 1.9835e-10
33 3 0.001 -0.0293264 0 -0.000227277 -3.99203e-10 0 -1.9699e-09 0 1.98353e-10
34 3 0.001 -0.0286596 0 -0.000240349 1.07237e-09 0 6.55306e-09 0 1.98356e-10
35 3 0.001 -0.0279928 0 -0.000253694 1.98697e-09 0 -4.49568e-09 0 1.9836e-10
36 3 0.001 -0.027326 0 -0.000267307 -8.55411e-11 0 -2.79747e-09 0 1.98363e-10
37 3 0.001 -0.0266593 0 -0.00028118 -7.95736e-10 0 5.09706e-09 0 1.98365e-10
38 3 0.001 -0.0259925 0 -0.000295309 -8.64725e-10 0 9.67337e-11 0 1.98368e-10
39 3 0.001 -0.0253257 0 -0.000309687 -8.11443e-10 0 -4.47482e-09 0 1.9837e-10
40 3 0.001 -0.0246589 0 -0.000324309 7.96753e-10 0 3.36731e-09 0 1.98372e-10
41 3 0.001 -0.0239922 0 -0.000339168 -6.44195e-10 0 -9.73574e-10 0 1.98374e-10
42 3 0.001 -0.0233254 0 -0.000354261 3.04835e-10 0 1.90398e-09 0 1.98376e-10
43 3 0.001 -0.0226587 0 -0.00036958 3.25325e-11 0 -3.56194e-09 0 1.98378e-10
44 3 0.001 -0.0219919 0 -0.000385121 3.86736e-10 0 1.74141e-09 0 1.9838e-10
45 3 0.001 -0.0213252 0 -0.000400879 8.61092e-10 0 1.43043e-09 0 1.98382e-10
46 3 0.001 -0.0206584 0 -0.000416849 2.70819e-10 0 -2.20121e-09 0 1.98384e-10
47 3 0.001 -0.0199917 0 -0.000433026 1.45943e-10 0 4.02234e-11 0 1.98386e-10
48 3 0.001 -0.019325 0 -0.000449406 -4.28187e-10 0 2.38578e-09 0 1.98387e-10
49 3 0.001 -0.0186582 0 -0.000465983 -5.77294e-10 0 -2.45201e-09 0 1.98389e-10
50 3 0.001 -0.0179915 0 -0.000482753 -3.48592e-10 0 -3.15615e-10 0 1.9839e-10
51 3 0.001 -0.0173248 0 -0.000499712 5.04165e-11 0 4.4552e-09 0 1.98391e-10
52 3 0.001 -0.0166581 0 -0.000516855 2.98488e-10 0 -6.96447e-09 0 1.98393e-10
53 3 0.001 -0.0159914 0 -0.000534178 5.49854e-10 0 5.69869e-09 0 1.98394e-10
54 3 0.001 -0.0153247 0 -0.000551677 6.84405e-10 0 -2.87366e-09 0 1.98396e-10
55 3 0.001 -0.014658 0 -0.000569348 -7.37817e-11 0 1.26026e-09 0 1.98397e-10
56 3 0.001 -0.0139913 0 -0.000587186 -1.43632e-09 0 -6.67023e-11 0 1.98398e-10
57 3 0.001 -0.0133246 0 -0.000605189 -3.78685e-10 0 -1.1061e-09 0 1.98399e-10
58 3 0.001 -0.012658 0 -0.000623352 -2.79538e-10 0 -8.84164e-10 0 1.98399e-10
59 3 0.001 -0.0119913 0 -0.000641671 9.37378e-10 0 3.90622e-09 0 1.984e-10
60 3 0.001 -0.0113246 0 -0.000660143 -4.80616e-10 0 -3.61381e-09 0 1.98401e-10
61 3 0.001 -0.0106579 0 -0.000678764 -8.08395e-10 0 2.49475e-09 0 1.98402e-10
62 3 0.001 -0.00999127 0 -0.000697531 2.74434e-10 0 -3.65184e-09 0 1.98403e-10
63 3 0.001 -0.00932461 0 -0.000716441 1.51588e-09 0 6.79537e-09 0 1.98404e-10
64 3 0.001 -0.00865795 0 -0.000735489 6.92578e-10 0 -6.50047e-09 0 1.98405e-10
65 3 0.001 -0.0079913 0 -0.000754673 -6.19815e-10 0 -2.80078e-10 0 1.98406e-10
66 3 0.001 -0.00732465 0 -0.00077399 -1.34173e-10 0 5.01657e-09 0 1.98406e-10
67 3 0.001 -0.006658 0 -0.000793436 6.1325e-10 0 -5.12431e-09 0 1.98407e-10
68 3 0.001 -0.00599136 0 -0.000813009 -1.66082e-11 0 2.43406e-09 0 1.98408e-10
