ITEM: TIMESTEP
250000
ITEM: NUMBER OF ATOMS
151
ITEM: BOX BOUNDS ff ff ff
-5.2499999999999998e-02 5.2499999999999998e-02
-6.0000000000000001e-03 6.0000000000000001e-03
-1.4999999999999999e-02 1.4999999999999999e-02
ITEM: ATOMS id type radius x y z fx fy fz c_bendingE c_stretchingE
83 3 0.001 0.00380704 0 -0.000958218 3.6851e-05 0 -1.95427e-07 0 1.2146e-10
84 3 0.001 0.0044403 0 -0.000976954 -1.46971e-05 0 3.99793e-06 0 1.23653e-10
85 3 0.001 0.00507355 0 -0.00099578 -0.00013165 0 -2.74456e-07 0 1.09666e-10
86 3 0.001 0.00570678 0 -0.00101469 8.3523e-05 0 -4.98191e-06 0 1.0495e-10
87 3 0.001 0.00634002 0 -0.0010337 6.13118e-05 0 -1.68932e-06 0 1.18793e-10
88 3 0.001 0.00697327 0 -0.00105279 -5.35255e-05 0 2.7151e-06 0 1.19543e-10
89 3 0.001 0.00760651 0 -0.00107196 -3.88601e-05 0 5.2067e-06 0 1.10503e-10
90 3 0.001 0.00823974 0 -0.00109121 2.8225e-05 0 -4.77061e-06 0 1.09475e-10
91 3 0.001 0.00887297 0 -0.00111054 0.000107464 0 -8.00778e-06 0 1.23002e-10
92 3 0.001 0.00950621 0 -0.00112995 6.29802e-05 0 1.81115e-07 0 1.40609e-10
93 3 0.001 0.0101395 0 -0.00114943 2.77756e-05 0 2.07752e-06 0 1.50469e-10
94 3 0.001 0.0107727 0 -0.00116899 -0.000152922 0 3.82441e-06 0 1.37305e-10
95 3 0.001 0.011406 0 -0.00118862 -0.000158903 0 1.28683e-06 0 1.06223e-10
96 3 0.001 0.0120392 0 -0.00120831 -3.04956e-05 0 -1.62923e-07 0 8.87836e-11
97 3 0.001 0.0126723 0 -0.00122807 -1.97077e-05 0 6.24591e-06 0 8.45161e-11
98 3 0.001 0.0133055 0 -0.0012479 7.8591e-05 0 7.11283e-06 0 8.95844e-11
100 3 0.001 0.0145719 0 -0.00128773 2.42823e-05 0 -8.13517e-06 0 1.15173e-10
99 3 0.001 0.0139387 0 -0.00126778 8.87388e-05 0 -2.02119e-06 0 1.04548e-10
101 3 0.001 0.0152052 0 -0.00130774 0.000150605 0 -5.54068e-06 0 1.33338e-10
102 3 0.001 0.0158384 0 -0.00132781 8.11148e-05 0 -1.27959e-06 0 1.58378e-10
103 3 0.001 0.0164716 0 -0.00134794 -8.74475e-05 0 1.81798e-06 0 1.57675e-10
104 3 0.001 0.0171049 0 -0.00136813 9.23653e-05 0 -6.27499e-06 0 1.58271e-10
105 3 0.001 0.0177381 0 -0.00138837 -0.000100681 0 8.52753e-07 0 1.57377e-10
106 3 0.001 0.0183714 0 -0.00140867 -7.49558e-05 0 2.90827e-06 0 1.37921e-10
107 3 0.001 0.0190046 0 -0.00142903 0.000179715 0 -5.40596e-06 0 1.49869e-10
108 3 0.001 0.0196378 0 -0.00144943 -4.73443e-05 0 -4.37664e-07 0 1.64307e-10
109 3 0.001 0.020271 0 -0.00146989 -7.14568e-05 0 1.94271e-06 0 1.50833e-10
110 3 0.001 0.0209043 0 -0.00149039 -3.18864e-05 0 3.46298e-06 0 1.39433e-10
111 3 0.001 0.0215375 0 -0.00151094 1.32952e-05 0 -2.00522e-06 0 1.37424e-10
112 3 0.001 0.0221707 0 -0.00153152 -4.79125e-05 0 2.81983e-06 0 1.33807e-10
113 3 0.001 0.0228039 0 -0.00155215 3.98788e-05 0 2.22703e-06 0 1.32933e-10
114 3 0.001 0.0234371 0 -0.00157282 1.91294e-05 0 -3.3849e-06 0 1.39159e-10
115 3 0.001 0.0240703 0 -0.00159352 -1.12209e-05 0 -2.6057e-06 0 1.40024e-10
116 3 0.001 0.0247035 0 -0.00161426 7.61663e-05 0 1.09091e-06 0 1.47211e-10
117 3 0.001 0.0253367 0 -0.00163503 -3.95647e-05 0 7.71513e-06 0 1.51152e-10
118 3 0.001 0.0259699 0 -0.00165584 -4.0012e-07 0 -1.71754e-06 0 1.46673e-10
119 3 0.001 0.0266032 0 -0.00167667 2.51982e-05 0 -5.7975e-06 0 1.49452e-10
120 3 0.001 0.0272364 0 -0.00169754 -5.65241e-05 0 5.95077e-06 0 1.46047e-10
121 3 0.001 0.0278696 0 -0.00171843 6.15916e-05 0 2.68175e-06 0 1.46582e-10
122 3 0.001 0.0285028 0 -0.00173935 -0.000185211 0 7.04657e-06 0 1.33912e-10
123 3 0.001 0.029136 0 -0.0017603 -0.000120044 0 1.65593e-06 0 1.03418e-10
124 3 0.001 0.0297691 0 -0.00178128 0.000131803 0 -1.08913e-05 0 1.04596e-10
125 3 0.001 0.0304023 0 -0.00180228 -1.60867e-05 0 3.75798e-07 0 1.15274e-10
126 3 0.001 0.0310355 0 -0.00182331 6.13967e-05 0 -9.95857e-08 0 1.19802e-10
129 3 0.001 0.0329351 0 -0.00188655 0.000178156 0 9.11544e-07 0 1.88031e-10
127 3 0.001 0.0316687 0 -0.00184437 7.68896e-05 0 -5.71573e-06 0 1.33994e-10
128 3 0.001 0.0323019 0 -0.00186545 0.000105666 0 -3.84521e-06 0 1.53995e-10
130 3 0.001 0.0335683 0 -0.00190767 -0.000120066 0 2.37962e-06 0 1.94947e-10
131 3 0.001 0.0342016 0 -0.00192882 -6.28768e-05 0 -4.08669e-06 0 1.72261e-10
132 3 0.001 0.0348348 0 -0.00194998 3.55219e-05 0 5.22681e-07 0 1.68977e-10
133 3 0.001 0.035468 0 -0.00197116 -0.000137052 0 3.5643e-06 0 1.57557e-10
134 3 0.001 0.0361012 0 -0.00199235 3.33853e-05 0 -4.91993e-06 0 1.45625e-10
135 3 0.001 0.0367344 0 -0.00201356 0.000134 0 -3.12644e-06 0 1.64911e-10
136 3 0.001 0.0373676 0 -0.00203478 -4.8826e-05 0 9.80327e-06 0 1.74629e-10
137 3 0.001 0.0380008 0 -0.00205602 -9.86346e-05 0 9.02799e-06 0 1.57474e-10
138 3 0.001 0.038634 0 -0.00207725 7.17999e-05 0 -4.77294e-06 0 1.54324e-10
139 3 0.001 0.0392672 0 -0.0020985 8.5595e-05 0 -8.21779e-06 0 1.72672e-10
140 3 0.001 0.0399004 0 -0.00211976 -0.000153965 0 -1.48473e-06 0 1.64994e-10
141 3 0.001 0.0405336 0 -0.00214102 -0.000228678 0 6.35537e-06 0 1.24044e-10
142 3 0.001 0.0411668 0 -0.00216229 -0.000130759 0 7.28228e-06 0 8.97657e-11
143 3 0.001 0.0417999 0 -0.00218356 1.80176e-05 0 6.82221e-07 0 7.99846e-11
144 3 0.001 0.0424331 0 -0.00220484 0.000206642 0 -5.46735e-06 0 1.00149e-10
145 3 0.001 0.0430663 0 -0.00222611 0.000107207 0 -1.08759e-06 0 1.29938e-10
146 3 0.001 0.0436994 0 -0.00224738 -9.31002e-05 0 7.32846e-06 0 1.31322e-10
147 3 0.001 0.0443326 0 -0.00226864 -5.2492e-05 0 6.08155e-06 0 1.16461e-10
148 3 0.001 0.0449658 0 -0.00228991 3.24663e-05 0 5.3146e-06 0 1.14436e-10
149 3 0.001 0.045599 0 -0.00231117 7.67773e-05 0 -2.69927e-06 0 1.47082e-10
150 3 0.001 0.0462322 0 -0.00233243 0.00017632 0 -1.28348e-05 0 1.3685e-09
2 2 0.001 0.0475 0 -0.002375 -0.00162833 0 6.17524e-05 0 1.36519e-09
151 3 0.001 0.0468661 0 -0.00235371 0.000181549 0 -1.57664e-05 0 2.64539e-09
1 1 0.001 -0.0475 0 0 -0.00413455 0 0.0022858 0 1.60362e-34
3 3 0.001 -0.0468667 0 0 0.00577905 0 -0.00233395 0 1.37709e-09
4 3 0.001 -0.0462324 0 -9.0746e-07 -0.000101762 0 -6.93965e-07 0 1.50163e-09
5 3 0.001 -0.0455988 0 -2.25868e-06 -0.000228384 0 -9.46544e-10 0 1.95783e-10
6 3 0.001 -0.0449652 0 -4.04541e-06 -0.000157899 0 4.88782e-07 0 1.26405e-10
7 3 0.001 -0.0443317 0 -6.25873e-06 1.52377e-05 0 1.3526e-06 0 1.11785e-10
8 3 0.001 -0.0436982 0 -8.88993e-06 7.30493e-05 0 1.15465e-07 0 1.20532e-10
9 3 0.001 -0.0430646 0 -1.19307e-05 -5.62088e-05 0 -3.01568e-06 0 1.22177e-10
10 3 0.001 -0.0424311 0 -1.53728e-05 -8.28058e-05 0 2.53948e-06 0 1.08705e-10
11 3 0.001 -0.0417976 0 -1.92076e-05 -7.46067e-05 0 7.96771e-06 0 9.42926e-11
12 3 0.001 -0.0411641 0 -2.34269e-05 -0.000112865 0 -1.241e-06 0 7.86428e-11
13 3 0.001 -0.0405307 0 -2.80243e-05 0.000201464 0 -9.36079e-06 0 8.6511e-11
14 3 0.001 -0.0398972 0 -3.29934e-05 0.000263416 0 -3.53772e-06 0 1.30646e-10
15 3 0.001 -0.0392636 0 -3.83261e-05 2.97144e-05 0 2.31206e-06 0 1.61268e-10
16 3 0.001 -0.0386301 0 -4.40139e-05 2.31394e-05 0 1.968e-06 0 1.67411e-10
17 3 0.001 -0.0379965 0 -5.0049e-05 -2.06097e-05 0 1.09998e-06 0 1.67705e-10
18 3 0.001 -0.037363 0 -5.64243e-05 -4.24078e-05 0 -2.25243e-06 0 1.6041e-10
19 3 0.001 -0.0367295 0 -6.3133e-05 -1.25586e-05 0 -2.96878e-07 0 1.54125e-10
20 3 0.001 -0.036096 0 -7.01682e-05 4.47919e-05 0 9.17408e-07 0 1.57822e-10
21 3 0.001 -0.0354624 0 -7.75227e-05 2.66604e-05 0 3.03464e-06 0 1.66047e-10
22 3 0.001 -0.0348289 0 -8.51899e-05 -0.000119602 0 3.34189e-06 0 1.55625e-10
23 3 0.001 -0.0341954 0 -9.31637e-05 0.000150052 0 -8.44044e-07 0 1.59258e-10
24 3 0.001 -0.0335619 0 -0.000101439 0.000130893 0 -3.76466e-06 0 1.92932e-10
25 3 0.001 -0.0329284 0 -0.000110012 -7.09512e-05 0 -5.71593e-06 0 2.00329e-10
26 3 0.001 -0.0322948 0 -0.000118875 1.79184e-05 0 -3.12214e-06 0 1.93495e-10
27 3 0.001 -0.0316613 0 -0.000128023 -0.000147874 0 5.54343e-06 0 1.77872e-10
28 3 0.001 -0.0310278 0 -0.000137449 -6.53806e-05 0 3.91741e-07 0 1.52647e-10
29 3 0.001 -0.0303943 0 -0.000147146 -1.47494e-05 0 -9.56254e-07 0 1.43713e-10
30 3 0.001 -0.0297609 0 -0.000157109 -0.000123859 0 6.39884e-06 0 1.29328e-10
31 3 0.001 -0.0291274 0 -0.000167332 0.000161817 0 1.11787e-07 0 1.33486e-10
32 3 0.001 -0.028494 0 -0.000177808 2.29825e-06 0 1.04777e-06 0 1.50682e-10
33 3 0.001 -0.0278605 0 -0.000188535 -3.73357e-05 0 -2.62039e-06 0 1.46836e-10
34 3 0.001 -0.027227 0 -0.000199507 0.000128613 0 -3.19458e-06 0 1.57377e-10
35 3 0.001 -0.0265936 0 -0.000210719 -9.05699e-05 0 7.01322e-07 0 1.61573e-10
36 3 0.001 -0.0259601 0 -0.000222168 -1.56189e-05 0 -3.29134e-08 0 1.49396e-10
37 3 0.001 -0.0253267 0 -0.000233847 -2.20679e-05 0 1.90916e-06 0 1.45246e-10
38 3 0.001 -0.0246932 0 -0.000245751 -4.31074e-05 0 -4.71809e-06 0 1.38237e-10
39 3 0.001 -0.0240598 0 -0.000257877 7.48962e-05 0 -6.29512e-07 0 1.41739e-10
40 3 0.001 -0.0234264 0 -0.000270218 -5.83871e-05 0 8.96036e-06 0 1.43466e-10
41 3 0.001 -0.0227929 0 -0.00028277 1.42646e-05 0 4.49073e-06 0 1.38616e-10
42 3 0.001 -0.0221595 0 -0.000295528 4.43987e-05 0 -1.73822e-07 0 1.44986e-10
43 3 0.001 -0.0215261 0 -0.000308491 -0.000110836 0 -4.89514e-06 0 1.3804e-10
44 3 0.001 -0.0208927 0 -0.000321655 -1.7606e-05 0 -5.43253e-06 0 1.2447e-10
45 3 0.001 -0.0202593 0 -0.000335016 0.000120336 0 4.60327e-07 0 1.35398e-10
46 3 0.001 -0.0196259 0 -0.000348571 1.95301e-05 0 2.20314e-06 0 1.50265e-10
47 3 0.001 -0.0189925 0 -0.000362315 -0.000122923 0 2.41719e-06 0 1.39273e-10
48 3 0.001 -0.0183591 0 -0.000376244 5.8714e-05 0 2.63173e-06 0 1.32235e-10
49 3 0.001 -0.0177257 0 -0.000390355 -5.86794e-05 0 4.53903e-06 0 1.32223e-10
50 3 0.001 -0.0170923 0 -0.000404644 7.03839e-05 0 -3.87319e-06 0 1.33478e-10
51 3 0.001 -0.016459 0 -0.000419111 0.000115505 0 -4.01966e-06 0 1.53876e-10
52 3 0.001 -0.0158256 0 -0.000433752 -0.000107021 0 5.39261e-07 0 1.54803e-10
53 3 0.001 -0.0151922 0 -0.000448566 -2.96485e-05 0 -2.2676e-06 0 1.39551e-10
54 3 0.001 -0.0145588 0 -0.000463549 -9.92615e-06 0 -3.34508e-06 0 1.35339e-10
55 3 0.001 -0.0139254 0 -0.000478697 -0.000135577 0 7.30666e-08 0 1.20795e-10
56 3 0.001 -0.0132921 0 -0.000494006 -9.36565e-05 0 7.38375e-06 0 9.88281e-11
57 3 0.001 -0.0126588 0 -0.000509473 -6.92879e-06 0 9.83302e-06 0 8.97496e-11
58 3 0.001 -0.0120255 0 -0.000525093 -1.543e-05 0 -3.30281e-07 0 8.78201e-11
59 3 0.001 -0.0113922 0 -0.000540864 7.80941e-05 0 -5.9228e-06 0 9.33664e-11
60 3 0.001 -0.0107589 0 -0.000556787 8.0552e-05 0 -5.52534e-06 0 1.07828e-10
61 3 0.001 -0.0101255 0 -0.000572857 5.52155e-05 0 -4.12758e-06 0 1.20952e-10
62 3 0.001 -0.0094922 0 -0.000589073 4.98607e-05 0 6.14032e-06 0 1.31652e-10
63 3 0.001 -0.00885887 0 -0.00060543 -0.000123529 0 9.51517e-06 0 1.24319e-10
64 3 0.001 -0.00822556 0 -0.000621926 -0.000134122 0 -2.78687e-06 0 9.96815e-11
65 3 0.001 -0.00759227 0 -0.00063856 3.12547e-05 0 -1.32446e-05 0 9.02819e-11
66 3 0.001 -0.00695899 0 -0.000655331 0.000136302 0 -7.70673e-06 0 1.05727e-10
67 3 0.001 -0.00632568 0 -0.000672235 -9.12833e-06 0 2.73031e-06 0 1.17542e-10
68 3 0.001 -0.00569238 0 -0.000689266 4.01773e-05 0 4.50796e-07 0 1.20644e-10
69 3 0.001 -0.00505908 0 -0.000706419 -2.60468e-06 0 7.39587e-06 0 1.24366e-10
70 3 0.001 -0.00442578 0 -0.000723691 -5.16179e-05 0 1.29452e-05 0 1.18939e-10
71 3 0.001 -0.00379249 0 -0.000741079 0.000133983 0 -8.09279e-07 0 1.27511e-10
72 3 0.001 -0.00315918 0 -0.000758582 8.45313e-05 0 -8.84074e-06 0 1.5067e-10
73 3 0.001 -0.00252586 0 -0.000776202 -0.000102146 0 -2.75103e-06 0 1.48818e-10
74 3 0.001 -0.00189256 0 -0.000793935 -0.000109051 0 -2.91652e-06 0 1.26415e-10
75 3 0.001 -0.00125929 0 -0.00081178 0.000302344 0 -1.50421e-05 0 1.48595e-10
76 3 0.001 -0.000625964 0 -0.000829736 -3.50469e-05 0 3.84902e-06 0 1.77635e-10
77 3 0.001 7.35101e-06 0 -0.000847797 -4.57567e-05 0 7.00701e-06 0 1.67979e-10
78 3 0.001 0.000640656 0 -0.000865958 -7.95314e-05 0 1.08996e-05 0 1.53595e-10
79 3 0.001 0.00127394 0 -0.000884217 -2.96432e-05 0 3.64152e-06 0 1.41403e-10
80 3 0.001 0.00190723 0 -0.000902573 0.000104757 0 -6.34343e-06 0 1.49842e-10
81 3 0.001 0.00254052 0 -0.000921027 -0.000190061 0 2.75296e-06 0 1.41048e-10
82 3 0.001 0.00317378 0 -0.000939575 -1.43544e-05 0 -2.52542e-06 0 1.19189e-10
