ITEM: TIMESTEP
50000
ITEM: NUMBER OF ATOMS
151
ITEM: BOX BOUNDS ff ff ff
-5.2499999999999998e-02 5.2499999999999998e-02
-6.0000000000000001e-03 6.0000000000000001e-03
-1.4999999999999999e-02 1.4999999999999999e-02
ITEM: ATOMS id type radius x y z fx fy fz c_bendingE c_stretchingE
1 1 0.001 -0.0475 0 0 -0.00414031 0 0.000320612 0 1.60362e-34
3 3 0.001 -0.0468667 0 0 0.00320788 0 -0.000300524 0 4.24304e-10
4 3 0.001 -0.0462328 0 -1.27197e-07 0.000262328 0 2.41205e-06 0 4.33518e-10
5 3 0.001 -0.0455995 0 -3.21843e-07 0.000258284 0 -7.71091e-06 0 1.62075e-11
6 3 0.001 -0.0449663 0 -5.88492e-07 -5.69095e-05 0 -7.19129e-06 0 1.60539e-11
7 3 0.001 -0.044333 0 -9.30036e-07 0.000125866 0 -5.99286e-06 0 1.39074e-11
8 3 0.001 -0.0436998 0 -1.34795e-06 5.55331e-06 0 -1.78791e-06 0 9.53847e-12
9 3 0.001 -0.0430665 0 -1.8425e-06 1.08754e-05 0 6.78617e-06 0 9.08461e-12
10 3 0.001 -0.0424332 0 -2.41359e-06 4.90327e-05 0 -2.68143e-06 0 7.56582e-12
11 3 0.001 -0.0417999 0 -3.06249e-06 3.85824e-05 0 -7.21147e-06 0 5.52324e-12
12 3 0.001 -0.0411666 0 -3.78991e-06 0.000155297 0 7.07176e-06 0 2.63825e-12
13 3 0.001 -0.0405333 0 -4.59518e-06 -0.00014461 0 8.48907e-06 0 2.43226e-12
14 3 0.001 -0.0399 0 -5.47897e-06 -8.16178e-06 0 -1.42538e-05 0 4.44535e-12
15 3 0.001 -0.0392667 0 -6.44368e-06 -5.04765e-05 0 -2.23176e-05 0 5.68778e-12
16 3 0.001 -0.0386334 0 -7.48883e-06 7.93764e-05 0 2.91298e-06 0 5.1577e-12
17 3 0.001 -0.0380001 0 -8.60956e-06 0.000400145 0 2.02609e-05 0 3.30538e-12
18 3 0.001 -0.0373668 0 -9.80165e-06 -0.000112521 0 4.91093e-06 0 1.80203e-12
19 3 0.001 -0.0367334 0 -1.10648e-05 -0.000132256 0 -1.73373e-05 0 3.77213e-13
20 3 0.001 -0.0361001 0 -1.23998e-05 -0.000106015 0 -1.44907e-05 0 1.13517e-12
21 3 0.001 -0.0354668 0 -1.38039e-05 0.00021369 0 1.06115e-05 0 1.15438e-12
22 3 0.001 -0.0348334 0 -1.52716e-05 0.000455324 0 8.35405e-06 0 1.09099e-11
23 3 0.001 -0.0342 0 -1.67996e-05 -5.81686e-05 0 1.86239e-06 0 1.92472e-11
24 3 0.001 -0.0335666 0 -1.83862e-05 -0.000355075 0 6.82121e-06 0 8.86307e-12
25 3 0.001 -0.0329333 0 -2.003e-05 -5.11794e-05 0 -4.33105e-06 0 4.86911e-13
26 3 0.001 -0.0322999 0 -2.17311e-05 -7.10971e-05 0 -1.26759e-05 0 1.14638e-13
27 3 0.001 -0.0316666 0 -2.34886e-05 -6.86802e-05 0 -3.32587e-06 0 3.79103e-13
28 3 0.001 -0.0310333 0 -2.5299e-05 2.57821e-05 0 1.98338e-05 0 5.40309e-13
29 3 0.001 -0.0304 0 -2.71582e-05 5.27592e-05 0 2.78776e-05 0 1.93741e-13
30 3 0.001 -0.0297666 0 -2.9066e-05 0.000342105 0 -1.19577e-05 0 4.43944e-12
31 3 0.001 -0.0291333 0 -3.10279e-05 -0.000195176 0 -2.01973e-05 0 5.15707e-12
32 3 0.001 -0.0284999 0 -3.30468e-05 -0.000540276 0 1.84364e-06 0 7.57591e-12
33 3 0.001 -0.0278666 0 -3.51216e-05 4.20999e-05 0 -4.4548e-06 0 1.23576e-11
34 3 0.001 -0.0272334 0 -3.72517e-05 -0.000115248 0 -2.84011e-06 0 1.50364e-11
35 3 0.001 -0.0266001 0 -3.94352e-05 -2.43283e-06 0 1.3752e-05 0 1.91565e-11
36 3 0.001 -0.0259669 0 -4.16696e-05 0.000195539 0 1.32511e-05 0 1.30419e-11
37 3 0.001 -0.0253336 0 -4.39554e-05 -9.57659e-07 0 -4.08342e-06 0 6.85135e-12
38 3 0.001 -0.0247003 0 -4.62956e-05 0.00020414 0 -2.01641e-05 0 3.73197e-12
39 3 0.001 -0.024067 0 -4.86925e-05 -8.17338e-05 0 -5.46311e-06 0 1.43442e-12
40 3 0.001 -0.0234337 0 -5.11443e-05 2.07058e-05 0 1.05203e-05 0 2.01349e-12
41 3 0.001 -0.0228004 0 -5.36482e-05 0.000388126 0 8.87777e-06 0 3.29932e-12
42 3 0.001 -0.022167 0 -5.62039e-05 1.26038e-05 0 1.07761e-06 0 5.10952e-12
43 3 0.001 -0.0215337 0 -5.88125e-05 -0.000464117 0 -1.45958e-05 0 4.48386e-12
44 3 0.001 -0.0209004 0 -6.14753e-05 0.000161016 0 -5.00188e-06 0 1.89455e-12
45 3 0.001 -0.020267 0 -6.41911e-05 0.00025286 0 1.13003e-05 0 1.82547e-12
46 3 0.001 -0.0196337 0 -6.69574e-05 0.000299631 0 -3.75404e-06 0 1.22261e-11
47 3 0.001 -0.0190003 0 -6.97743e-05 -7.86575e-06 0 -9.82913e-06 0 2.06674e-11
48 3 0.001 -0.0183669 0 -7.26409e-05 -0.000446734 0 6.42178e-06 0 1.0275e-11
49 3 0.001 -0.0177335 0 -7.55546e-05 0.000129842 0 8.51523e-06 0 1.43581e-12
50 3 0.001 -0.0171002 0 -7.85141e-05 -0.000275618 0 6.50817e-06 0 1.71148e-12
51 3 0.001 -0.0164669 0 -8.15193e-05 3.40627e-05 0 -4.24767e-06 0 5.35685e-13
52 3 0.001 -0.0158335 0 -8.45717e-05 -7.91473e-06 0 -7.68294e-06 0 3.56784e-13
53 3 0.001 -0.0152002 0 -8.76717e-05 7.34617e-05 0 9.40086e-06 0 2.00283e-13
54 3 0.001 -0.0145669 0 -9.08183e-05 0.000124673 0 8.04107e-06 0 6.81106e-13
55 3 0.001 -0.0139336 0 -9.40124e-05 0.000169048 0 -2.82133e-06 0 4.33112e-12
56 3 0.001 -0.0133002 0 -9.72565e-05 9.86395e-05 0 -5.62233e-06 0 1.0124e-11
57 3 0.001 -0.0126668 0 -0.000100553 -0.000375042 0 -1.02358e-05 0 6.49194e-12
58 3 0.001 -0.0120335 0 -0.000103902 2.26553e-05 0 -1.47846e-05 0 9.82776e-14
59 3 0.001 -0.0114001 0 -0.000107303 -0.000124423 0 -2.24153e-06 0 3.46707e-13
60 3 0.001 -0.0107668 0 -0.000110752 -9.86029e-05 0 -1.12076e-06 0 1.58948e-12
61 3 0.001 -0.0101335 0 -0.000114244 0.000503607 0 3.08191e-06 0 5.66381e-12
62 3 0.001 -0.00950015 0 -0.000117774 -0.00031959 0 1.9318e-05 0 4.34231e-12
63 3 0.001 -0.00886683 0 -0.000121339 -0.000239621 0 5.04324e-06 0 2.27543e-12
64 3 0.001 -0.00823354 0 -0.000124936 0.000249995 0 -8.14887e-06 0 2.28393e-12
65 3 0.001 -0.00760022 0 -0.000128568 -0.00052352 0 -4.07728e-06 0 1.06653e-11
66 3 0.001 -0.00696698 0 -0.000132232 -4.83389e-05 0 -5.55897e-06 0 2.34329e-11
67 3 0.001 -0.00633375 0 -0.000135927 0.000495934 0 -3.90755e-07 0 1.29292e-11
68 3 0.001 -0.00570044 0 -0.000139649 -5.8255e-05 0 8.93451e-06 0 7.36304e-13
69 3 0.001 -0.00506713 0 -0.000143394 -0.000142671 0 -1.11958e-06 0 3.40775e-12
70 3 0.001 -0.00443385 0 -0.000147162 0.000495902 0 -1.72677e-05 0 5.08724e-12
71 3 0.001 -0.00380049 0 -0.000150951 0.000576257 0 9.05057e-07 0 2.93543e-11
72 3 0.001 -0.00316704 0 -0.000154756 -0.000245396 0 1.39841e-05 0 4.02588e-11
73 3 0.001 -0.00253362 0 -0.000158573 -0.000242477 0 2.14766e-06 0 1.74606e-11
74 3 0.001 -0.00190025 0 -0.000162401 0.000156712 0 6.58428e-06 0 1.37654e-11
75 3 0.001 -0.00126685 0 -0.000166238 -0.000490977 0 2.52388e-05 0 9.47876e-12
76 3 0.001 -0.000633528 0 -0.000170085 -0.000302617 0 9.06557e-06 0 4.08314e-12
77 3 0.001 -2.58113e-07 0 -0.000173946 -0.000112582 0 -1.15146e-05 0 1.1594e-11
78 3 0.001 0.000632993 0 -0.000177828 0.000177162 0 -1.59612e-05 0 1.00874e-11
79 3 0.001 0.00126627 0 -0.000181735 0.000317739 0 -6.95797e-06 0 2.7619e-12
80 3 0.001 0.00189961 0 -0.000185668 8.31943e-06 0 1.18743e-06 0 4.31707e-13
81 3 0.001 0.00253294 0 -0.000189626 0.000382371 0 -9.02114e-06 0 8.92066e-12
82 3 0.001 0.00316634 0 -0.00019361 2.99138e-05 0 -3.59895e-06 0 1.85284e-11
83 3 0.001 0.00379974 0 -0.000197618 -0.000380973 0 -5.52736e-06 0 1.03273e-11
84 3 0.001 0.00443307 0 -0.000201647 -2.17952e-05 0 -2.20133e-06 0 7.83649e-13
85 3 0.001 0.00506641 0 -0.000205696 -3.00444e-05 0 1.06925e-05 0 4.33383e-13
86 3 0.001 0.00569974 0 -0.000209759 -0.000432408 0 1.45041e-05 0 5.9782e-12
87 3 0.001 0.006333 0 -0.000213835 -1.82788e-05 0 -1.71482e-06 0 1.22808e-11
88 3 0.001 0.00696625 0 -0.000217924 0.000381777 0 -2.6181e-06 0 6.43839e-12
89 3 0.001 0.00759957 0 -0.000222027 -0.000222405 0 3.80177e-06 0 2.29569e-12
90 3 0.001 0.00823285 0 -0.000226143 -0.000280298 0 -3.5553e-06 0 1.326e-11
91 3 0.001 0.00886609 0 -0.000230273 0.000728058 0 -1.57381e-07 0 1.28285e-11
92 3 0.001 0.00949944 0 -0.000234417 0.000144162 0 3.65607e-06 0 7.09376e-12
93 3 0.001 0.0101328 0 -0.000238575 -0.000233645 0 1.53369e-06 0 5.85797e-12
94 3 0.001 0.0107662 0 -0.000242748 0.000115409 0 8.55961e-06 0 2.95885e-12
95 3 0.001 0.0113995 0 -0.000246937 -0.000354005 0 8.5371e-06 0 2.89179e-12
96 3 0.001 0.0120328 0 -0.000251146 4.25067e-05 0 -8.77575e-06 0 7.7595e-13
97 3 0.001 0.0126661 0 -0.000255378 0.000438604 0 -2.61622e-05 0 5.72824e-12
98 3 0.001 0.0132995 0 -0.000259638 3.47717e-05 0 -2.4737e-05 0 1.21157e-11
99 3 0.001 0.0139329 0 -0.000263922 -0.000107058 0 -1.60306e-06 0 1.01562e-11
100 3 0.001 0.0145663 0 -0.000268224 -0.000195024 0 1.23935e-05 0 3.94448e-12
101 3 0.001 0.0151996 0 -0.000272537 -0.000106343 0 1.78762e-05 0 4.00344e-13
102 3 0.001 0.0158329 0 -0.000276854 -6.17977e-05 0 7.95747e-06 0 2.05746e-13
103 3 0.001 0.0164662 0 -0.000281176 -0.000210626 0 -7.73536e-06 0 3.45177e-12
104 3 0.001 0.0170995 0 -0.000285501 -3.48235e-05 0 4.57331e-06 0 7.35458e-12
105 3 0.001 0.0177328 0 -0.000289827 -0.000171629 0 1.27315e-05 0 1.38964e-11
106 3 0.001 0.018366 0 -0.000294154 0.000634519 0 -8.31918e-06 0 1.06846e-11
107 3 0.001 0.0189993 0 -0.000298484 8.10554e-05 0 -9.86231e-06 0 3.04357e-12
108 3 0.001 0.0196327 0 -0.000302815 -1.16625e-06 0 -1.51571e-05 0 4.27938e-12
109 3 0.001 0.020266 0 -0.000307148 0.000122755 0 1.11305e-06 0 7.18128e-12
110 3 0.001 0.0208994 0 -0.000311476 -0.000310415 0 1.71691e-05 0 5.11596e-12
111 3 0.001 0.0215327 0 -0.000315796 0.000245479 0 4.88703e-06 0 3.4126e-12
112 3 0.001 0.0221661 0 -0.000320108 -0.000119037 0 2.71908e-06 0 4.48354e-12
113 3 0.001 0.0227995 0 -0.00032441 0.000119366 0 -5.43719e-06 0 4.4922e-12
114 3 0.001 0.0234328 0 -0.000328704 0.000129443 0 -1.08049e-05 0 1.04526e-11
115 3 0.001 0.0240662 0 -0.00033299 -0.000471048 0 -1.14222e-05 0 7.2256e-12
116 3 0.001 0.0246995 0 -0.000337264 -0.000206932 0 4.76672e-06 0 2.98411e-12
117 3 0.001 0.0253328 0 -0.000341521 0.000168033 0 7.89391e-06 0 3.22709e-12
118 3 0.001 0.0259661 0 -0.000345758 -0.000165146 0 8.99451e-06 0 3.16622e-12
119 3 0.001 0.0265994 0 -0.00034997 -1.40612e-05 0 1.63159e-05 0 5.89857e-12
120 3 0.001 0.0272327 0 -0.000354158 -0.000229698 0 -7.83081e-07 0 1.35836e-11
121 3 0.001 0.0278659 0 -0.000358323 -9.13371e-05 0 -2.14469e-05 0 2.50907e-11
122 3 0.001 0.0284991 0 -0.000362466 0.000436152 0 -7.39259e-06 0 1.56563e-11
123 3 0.001 0.0291324 0 -0.000366586 0.000199696 0 1.23906e-05 0 1.11153e-12
124 3 0.001 0.0297657 0 -0.000370678 0.00021721 0 4.01199e-06 0 2.80544e-12
125 3 0.001 0.0303991 0 -0.000374741 -5.11501e-05 0 4.51022e-06 0 4.49586e-12
126 3 0.001 0.0310324 0 -0.000378775 -0.000239123 0 1.7622e-06 0 1.80205e-12
127 3 0.001 0.0316658 0 -0.000382781 5.12707e-05 0 -4.54154e-06 0 5.82423e-14
128 3 0.001 0.0322991 0 -0.000386759 9.17821e-05 0 -2.39049e-06 0 5.16389e-13
129 3 0.001 0.0329324 0 -0.000390711 2.63969e-05 0 -8.65182e-07 0 1.27325e-12
130 3 0.001 0.0335658 0 -0.000394636 0.00010415 0 -2.60738e-06 0 3.1645e-12
131 3 0.001 0.0341991 0 -0.000398533 9.81747e-05 0 -4.9963e-06 0 7.13641e-12
132 3 0.001 0.0348325 0 -0.000402401 -4.6603e-05 0 2.80242e-06 0 8.2723e-12
133 3 0.001 0.0354659 0 -0.000406239 -0.000136673 0 1.80398e-05 0 4.53018e-12
134 3 0.001 0.0360992 0 -0.000410046 -0.000364952 0 1.02289e-05 0 2.80534e-12
135 3 0.001 0.0367325 0 -0.000413823 -7.57549e-05 0 -7.67772e-06 0 5.15206e-12
136 3 0.001 0.0373658 0 -0.000417574 0.000301398 0 -1.21217e-05 0 3.35884e-12
137 3 0.001 0.0379991 0 -0.000421302 -1.77958e-05 0 -5.05924e-06 0 1.12912e-14
138 3 0.001 0.0386324 0 -0.000425007 -1.67613e-05 0 2.49769e-06 0 1.35872e-14
139 3 0.001 0.0392658 0 -0.000428688 -0.000272707 0 9.76211e-06 0 3.50268e-12
140 3 0.001 0.039899 0 -0.000432344 7.98742e-05 0 2.4746e-06 0 5.32581e-12
141 3 0.001 0.0405323 0 -0.000435977 0.000245193 0 3.0109e-06 0 1.88462e-12
142 3 0.001 0.0411656 0 -0.000439589 3.78889e-05 0 5.97399e-07 0 2.61645e-13
143 3 0.001 0.041799 0 -0.000443182 4.7732e-05 0 -3.8231e-06 0 8.04578e-13
144 3 0.001 0.0424323 0 -0.000446759 -0.000180633 0 -1.57494e-06 0 7.4397e-13
145 3 0.001 0.0430656 0 -0.000450322 -6.54069e-05 0 -2.48838e-06 0 8.10885e-13
146 3 0.001 0.0436989 0 -0.000453872 -2.77039e-05 0 2.60145e-06 0 1.63607e-12
147 3 0.001 0.0443322 0 -0.000457411 -9.96597e-05 0 7.71119e-07 0 3.63188e-12
148 3 0.001 0.0449655 0 -0.00046094 8.2646e-05 0 4.01801e-06 0 3.86021e-12
149 3 0.001 0.0455988 0 -0.000464461 3.23805e-05 0 -3.55595e-08 0 1.33813e-12
150 3 0.001 0.0462322 0 -0.000467976 -0.000167205 0 -7.65279e-06 0 6.03962e-10
2 2 0.001 0.0475 0 -0.000475 0.000667689 0 -1.73904e-05 0 4.95002e-10
151 3 0.001 0.0468661 0 -0.000471491 -0.000361929 0 1.20085e-05 0 1.09883e-09
