ITEM: TIMESTEP
570000
ITEM: NUMBER OF ATOMS
151
ITEM: BOX BOUNDS ff ff ff
-5.2499999999999998e-02 5.2499999999999998e-02
-6.0000000000000001e-03 6.0000000000000001e-03
-1.4999999999999999e-02 1.4999999999999999e-02
ITEM: ATOMS id type radius x y z fx fy fz c_bendingE c_stretchingE
126 3 0.001 0.0310398 0 -0.00432156 -3.20579e-05 0 3.07779e-06 0 3.59307e-09
129 3 0.001 0.0329389 0 -0.00444759 2.13302e-05 0 -3.10081e-06 0 3.62449e-09
128 3 0.001 0.0323059 0 -0.00440557 7.80864e-06 0 -1.3555e-06 0 3.60844e-09
127 3 0.001 0.0316728 0 -0.00436356 2.62816e-05 0 -8.64472e-07 0 3.58984e-09
130 3 0.001 0.0335719 0 -0.0044896 -1.32819e-05 0 1.2017e-06 0 3.62894e-09
131 3 0.001 0.034205 0 -0.00453163 -8.56537e-06 0 2.28674e-06 0 3.6169e-09
132 3 0.001 0.034838 0 -0.00457366 5.14726e-05 0 -3.04261e-06 0 3.6404e-09
133 3 0.001 0.035471 0 -0.00461569 -7.77433e-06 0 -5.88849e-07 0 3.66441e-09
134 3 0.001 0.0361041 0 -0.00465772 -2.59898e-05 0 5.43169e-07 0 3.64593e-09
135 3 0.001 0.0367371 0 -0.00469976 -1.03942e-05 0 1.34261e-06 0 3.62598e-09
136 3 0.001 0.0373701 0 -0.00474181 -3.96184e-05 0 5.44918e-06 0 3.59853e-09
137 3 0.001 0.0380032 0 -0.00478385 6.76189e-06 0 1.47909e-07 0 3.58046e-09
138 3 0.001 0.0386362 0 -0.0048259 4.55227e-05 0 -5.09218e-06 0 3.60908e-09
139 3 0.001 0.0392692 0 -0.00486796 -8.62628e-06 0 -8.7797e-07 0 3.62937e-09
140 3 0.001 0.0399023 0 -0.00491001 -1.13132e-05 0 8.60444e-07 0 3.6185e-09
141 3 0.001 0.0405353 0 -0.00495207 1.87671e-05 0 6.18305e-07 0 3.62252e-09
142 3 0.001 0.0411683 0 -0.00499414 -2.14742e-05 0 9.80399e-07 0 3.62099e-09
143 3 0.001 0.0418014 0 -0.0050362 -4.01311e-05 0 9.06215e-07 0 3.58744e-09
144 3 0.001 0.0424344 0 -0.00507827 6.76901e-06 0 -1.37105e-06 0 3.56934e-09
145 3 0.001 0.0430674 0 -0.00512034 2.77987e-05 0 -2.08343e-06 0 3.58822e-09
146 3 0.001 0.0437004 0 -0.00516242 1.19285e-05 0 1.65176e-06 0 3.60982e-09
147 3 0.001 0.0443334 0 -0.00520449 6.16284e-06 0 2.29607e-06 0 3.61953e-09
148 3 0.001 0.0449665 0 -0.00524657 8.46984e-08 0 -6.96259e-07 0 3.62288e-09
149 3 0.001 0.0455995 0 -0.00528865 2.4308e-05 0 -5.78351e-06 0 3.73933e-09
150 3 0.001 0.0462326 0 -0.00533074 2.32119e-05 0 -4.49575e-06 0 6.71918e-09
2 2 0.001 0.0475 0 -0.005415 -0.00667988 0 0.00044818 0 4.80787e-09
151 3 0.001 0.0468663 0 -0.00537287 1.86441e-05 0 2.42255e-07 0 9.5992e-09
85 3 0.001 0.00508474 0 -0.00261073 -1.83277e-05 0 3.14273e-06 0 3.57e-09
86 3 0.001 0.00571781 0 -0.00265197 2.34666e-05 0 -1.06385e-06 0 3.57272e-09
87 3 0.001 0.00635089 0 -0.00269324 3.66085e-06 0 -2.66414e-06 0 3.58756e-09
88 3 0.001 0.00698396 0 -0.00273456 6.62839e-06 0 -1.16265e-06 0 3.59328e-09
89 3 0.001 0.00761704 0 -0.00277592 1.91553e-05 0 6.48054e-07 0 3.60733e-09
90 3 0.001 0.00825011 0 -0.00281731 3.63406e-06 0 1.78439e-06 0 3.61964e-09
91 3 0.001 0.00888318 0 -0.00285874 2.80482e-05 0 -1.65327e-06 0 3.63695e-09
93 3 0.001 0.0101493 0 -0.00294169 4.35884e-06 0 -2.81564e-06 0 3.64232e-09
92 3 0.001 0.00951626 0 -0.0029002 -1.15152e-05 0 -1.41386e-06 0 3.64609e-09
94 3 0.001 0.0107824 0 -0.00298321 -1.25121e-05 0 1.49687e-07 0 3.63797e-09
95 3 0.001 0.0114155 0 -0.00302477 -1.84072e-05 0 2.73094e-06 0 3.62099e-09
96 3 0.001 0.0120485 0 -0.00306634 2.51929e-05 0 8.65695e-07 0 3.62457e-09
97 3 0.001 0.0126816 0 -0.00310795 -2.40565e-05 0 2.57927e-06 0 3.62507e-09
98 3 0.001 0.0133146 0 -0.00314957 -3.22973e-06 0 -2.06805e-06 0 3.61016e-09
100 3 0.001 0.0145808 0 -0.00323289 -5.81827e-06 0 2.86954e-06 0 3.58483e-09
99 3 0.001 0.0139477 0 -0.00319122 -1.87994e-05 0 -6.29966e-07 0 3.59828e-09
102 3 0.001 0.0158469 0 -0.00331629 2.1621e-05 0 -2.17592e-06 0 3.66314e-09
103 3 0.001 0.0164799 0 -0.00335802 -1.78859e-05 0 -2.93108e-07 0 3.66527e-09
101 3 0.001 0.0152138 0 -0.00327458 6.37338e-05 0 -2.36409e-06 0 3.61638e-09
104 3 0.001 0.017113 0 -0.00339977 1.00133e-05 0 -6.16782e-07 0 3.66098e-09
105 3 0.001 0.017746 0 -0.00344154 -1.07929e-05 0 2.18389e-06 0 3.6605e-09
106 3 0.001 0.0183791 0 -0.00348332 -2.74483e-05 0 3.69862e-06 0 3.63937e-09
107 3 0.001 0.0190121 0 -0.00352511 3.30717e-06 0 -1.54664e-07 0 3.62605e-09
108 3 0.001 0.0196452 0 -0.00356692 -4.48906e-06 0 -1.81444e-06 0 3.62547e-09
109 3 0.001 0.0202782 0 -0.00360875 5.98491e-06 0 -1.00127e-06 0 3.62639e-09
110 3 0.001 0.0209113 0 -0.00365059 -1.07913e-05 0 2.50718e-06 0 3.62372e-09
111 3 0.001 0.0215443 0 -0.00369244 -2.79745e-05 0 1.6242e-06 0 3.60247e-09
112 3 0.001 0.0221774 0 -0.00373431 -2.30392e-05 0 -2.20137e-07 0 3.57472e-09
114 3 0.001 0.0234434 0 -0.00381809 3.86337e-05 0 -3.74569e-06 0 3.58642e-09
113 3 0.001 0.0228104 0 -0.00377619 2.6975e-06 0 -2.17759e-06 0 3.56378e-09
115 3 0.001 0.0240765 0 -0.00385999 7.37092e-06 0 2.68052e-06 0 3.61144e-09
116 3 0.001 0.0247095 0 -0.00390191 1.98927e-05 0 2.77852e-06 0 3.62611e-09
117 3 0.001 0.0253425 0 -0.00394383 -1.9329e-05 0 8.38003e-07 0 3.62629e-09
118 3 0.001 0.0259756 0 -0.00398577 -3.56976e-05 0 -2.09564e-06 0 3.59639e-09
119 3 0.001 0.0266086 0 -0.00402771 -2.96582e-05 0 2.4104e-07 0 3.56103e-09
120 3 0.001 0.0272416 0 -0.00406967 -8.26487e-06 0 1.41564e-06 0 3.54047e-09
121 3 0.001 0.0278747 0 -0.00411163 1.39687e-05 0 -1.51258e-07 0 3.54351e-09
122 3 0.001 0.0285077 0 -0.0041536 1.11166e-05 0 -5.64296e-07 0 3.55708e-09
123 3 0.001 0.0291407 0 -0.00419558 1.25021e-05 0 -3.09291e-07 0 3.56989e-09
124 3 0.001 0.0297737 0 -0.00423757 3.47285e-05 0 -2.17069e-06 0 3.59561e-09
125 3 0.001 0.0304068 0 -0.00427956 -3.61455e-06 0 4.62381e-07 0 3.61258e-09
41 3 0.001 -0.0227768 0 -0.000888924 -1.48177e-05 0 4.43922e-06 0 3.57369e-09
42 3 0.001 -0.0221433 0 -0.000924226 7.75499e-06 0 -1.22945e-06 0 3.5698e-09
43 3 0.001 -0.0215099 0 -0.000959833 1.94439e-05 0 -4.93466e-06 0 3.58478e-09
45 3 0.001 -0.0202431 0 -0.00103191 1.49035e-05 0 1.20936e-06 0 3.61425e-09
46 3 0.001 -0.0196097 0 -0.00106835 6.64655e-06 0 9.49462e-07 0 3.62596e-09
44 3 0.001 -0.0208765 0 -0.00099573 9.64513e-06 0 -1.88018e-06 0 3.60083e-09
47 3 0.001 -0.0189764 0 -0.00110504 -9.94725e-07 0 -5.57881e-07 0 3.62906e-09
48 3 0.001 -0.018343 0 -0.00114198 -6.90514e-07 0 -2.22462e-07 0 3.62818e-09
50 3 0.001 -0.0170764 0 -0.00121653 3.43588e-05 0 -9.84142e-08 0 3.62487e-09
49 3 0.001 -0.0177097 0 -0.00117914 -1.97709e-05 0 2.72282e-06 0 3.61696e-09
51 3 0.001 -0.016443 0 -0.00125413 4.43353e-05 0 -3.98755e-06 0 3.66811e-09
52 3 0.001 -0.0158097 0 -0.00129194 -3.22476e-05 0 -1.43967e-06 0 3.67492e-09
53 3 0.001 -0.0151764 0 -0.00132994 -4.7907e-05 0 1.2695e-07 0 3.63109e-09
55 3 0.001 -0.0139099 0 -0.00140649 -2.46529e-05 0 3.59323e-06 0 3.59228e-09
54 3 0.001 -0.0145432 0 -0.00136813 8.45804e-07 0 1.11512e-06 0 3.60536e-09
56 3 0.001 -0.0132767 0 -0.00144503 9.56441e-06 0 -1.52696e-07 0 3.58398e-09
57 3 0.001 -0.0126434 0 -0.00148372 1.37188e-05 0 -1.62648e-06 0 3.59669e-09
58 3 0.001 -0.0120102 0 -0.00152257 -1.66164e-05 0 8.10952e-08 0 3.59518e-09
59 3 0.001 -0.011377 0 -0.00156157 4.44243e-05 0 -2.35737e-06 0 3.61043e-09
60 3 0.001 -0.0107437 0 -0.00160071 -1.386e-05 0 2.89368e-06 0 3.62705e-09
62 3 0.001 -0.00947733 0 -0.00167939 2.26302e-05 0 -3.35973e-06 0 3.6339e-09
61 3 0.001 -0.0101105 0 -0.00163999 1.90918e-06 0 8.54984e-07 0 3.6204e-09
63 3 0.001 -0.00884413 0 -0.00171892 2.58671e-06 0 -1.50899e-06 0 3.64785e-09
64 3 0.001 -0.00821094 0 -0.00175857 4.58653e-06 0 -6.32556e-07 0 3.65186e-09
65 3 0.001 -0.00757776 0 -0.00179832 -3.90489e-05 0 3.08801e-06 0 3.63296e-09
66 3 0.001 -0.00694459 0 -0.00183819 1.84272e-05 0 -1.18837e-06 0 3.62162e-09
67 3 0.001 -0.00631142 0 -0.00187816 -7.15228e-06 0 -1.96212e-06 0 3.62788e-09
68 3 0.001 -0.00567826 0 -0.00191823 -4.24855e-05 0 2.44615e-06 0 3.60086e-09
69 3 0.001 -0.00504511 0 -0.00195839 -9.33341e-06 0 3.02054e-06 0 3.57252e-09
71 3 0.001 -0.00377883 0 -0.00203897 3.28917e-05 0 -8.92012e-07 0 3.61992e-09
72 3 0.001 -0.00314569 0 -0.00207939 1.02409e-05 0 -8.86653e-07 0 3.64352e-09
70 3 0.001 -0.00441197 0 -0.00199864 3.19214e-05 0 6.8844e-07 0 3.58466e-09
73 3 0.001 -0.00251256 0 -0.00211988 5.61915e-06 0 -2.27195e-06 0 3.65232e-09
74 3 0.001 -0.00187942 0 -0.00216045 -2.28634e-05 0 -1.52061e-06 0 3.64303e-09
75 3 0.001 -0.0012463 0 -0.00220109 -6.31378e-06 0 -5.33456e-07 0 3.62715e-09
76 3 0.001 -0.00061318 0 -0.00224179 3.46922e-05 0 -7.1e-07 0 3.64273e-09
77 3 0.001 1.99412e-05 0 -0.00228256 -2.78748e-06 0 1.85519e-06 0 3.66014e-09
78 3 0.001 0.000653058 0 -0.0023234 -2.816e-05 0 1.8037e-06 0 3.64308e-09
79 3 0.001 0.00128617 0 -0.00236429 -7.15483e-06 0 9.24553e-07 0 3.62368e-09
80 3 0.001 0.00191927 0 -0.00240523 -9.47956e-06 0 2.61199e-06 0 3.61449e-09
81 3 0.001 0.00255237 0 -0.00244623 2.06529e-05 0 6.96705e-08 0 3.62049e-09
83 3 0.001 0.00381856 0 -0.00252839 -2.28729e-05 0 -1.43835e-06 0 3.64353e-09
84 3 0.001 0.00445166 0 -0.00256953 -4.67038e-05 0 2.93068e-06 0 3.60555e-09
82 3 0.001 0.00318547 0 -0.00248728 2.19189e-05 0 -3.57414e-06 0 3.64387e-09
1 1 0.001 -0.0475 0 0 -0.00412303 0 0.00905639 0 1.60362e-34
3 3 0.001 -0.0468667 0 0 0.0107782 0 -0.00950083 0 4.79211e-09
4 3 0.001 -0.0462316 0 -3.60007e-06 -1.04008e-05 0 2.2061e-06 0 6.72031e-09
5 3 0.001 -0.0455971 0 -8.91578e-06 -2.95318e-05 0 1.01095e-06 0 3.73501e-09
6 3 0.001 -0.0449627 0 -1.58735e-05 -1.08681e-05 0 -1.01834e-06 0 3.60818e-09
7 3 0.001 -0.0443284 0 -2.44001e-05 9.94929e-06 0 -1.13045e-06 0 3.60863e-09
8 3 0.001 -0.043694 0 -3.44252e-05 3.41506e-06 0 -2.08676e-08 0 3.61678e-09
9 3 0.001 -0.0430597 0 -4.58812e-05 -3.33363e-05 0 3.123e-06 0 3.60122e-09
10 3 0.001 -0.0424254 0 -5.87035e-05 -1.59336e-05 0 1.08106e-06 0 3.57507e-09
11 3 0.001 -0.0417912 0 -7.2831e-05 1.58528e-05 0 -3.30051e-08 0 3.57565e-09
12 3 0.001 -0.0411569 0 -8.82053e-05 1.91269e-07 0 4.93603e-07 0 3.58494e-09
13 3 0.001 -0.0405227 0 -0.000104771 9.33844e-06 0 1.8868e-07 0 3.59064e-09
14 3 0.001 -0.0398885 0 -0.000122474 2.20706e-05 0 7.31819e-07 0 3.60823e-09
15 3 0.001 -0.0392544 0 -0.000141265 -2.24962e-06 0 -5.85041e-08 0 3.61946e-09
16 3 0.001 -0.0386203 0 -0.000161095 -2.94544e-05 0 -1.47785e-06 0 3.60262e-09
17 3 0.001 -0.0379862 0 -0.000181918 8.67143e-06 0 -3.56413e-06 0 3.59175e-09
18 3 0.001 -0.0373521 0 -0.00020369 -4.88503e-06 0 2.64315e-07 0 3.59422e-09
19 3 0.001 -0.0367181 0 -0.000226367 -1.22324e-05 0 2.72979e-06 0 3.58517e-09
20 3 0.001 -0.0360841 0 -0.000249908 6.85061e-05 0 -4.58707e-07 0 3.61615e-09
21 3 0.001 -0.0354502 0 -0.000274275 4.6191e-06 0 2.32894e-06 0 3.65628e-09
22 3 0.001 -0.0348163 0 -0.000299431 -2.83706e-05 0 2.25476e-06 0 3.64341e-09
23 3 0.001 -0.0341824 0 -0.000325341 -4.05687e-07 0 -9.78894e-07 0 3.62783e-09
24 3 0.001 -0.0335485 0 -0.000351971 -1.75611e-05 0 -1.29439e-08 0 3.61824e-09
25 3 0.001 -0.0329146 0 -0.000379291 7.79208e-06 0 -6.16924e-07 0 3.6131e-09
26 3 0.001 -0.0322808 0 -0.00040727 -1.23675e-05 0 3.737e-07 0 3.61077e-09
27 3 0.001 -0.0316471 0 -0.000435878 -2.64447e-05 0 -8.69956e-07 0 3.58982e-09
28 3 0.001 -0.0310133 0 -0.00046509 5.56648e-06 0 -2.3123e-06 0 3.57868e-09
29 3 0.001 -0.0303796 0 -0.000494876 6.00075e-06 0 1.25329e-06 0 3.58512e-09
30 3 0.001 -0.0297459 0 -0.000525212 2.74171e-06 0 2.6785e-06 0 3.58988e-09
31 3 0.001 -0.0291122 0 -0.000556074 -2.84559e-06 0 9.70281e-07 0 3.58983e-09
32 3 0.001 -0.0284786 0 -0.000587437 -1.32562e-05 0 -1.755e-06 0 3.5812e-09
33 3 0.001 -0.027845 0 -0.00061928 -1.37777e-05 0 -1.37208e-06 0 3.56671e-09
34 3 0.001 -0.0272114 0 -0.000651581 -1.78819e-06 0 1.04105e-06 0 3.55837e-09
35 3 0.001 -0.0265778 0 -0.000684321 8.68574e-07 0 1.25541e-06 0 3.55789e-09
36 3 0.001 -0.0259442 0 -0.00071748 1.8579e-05 0 -1.77952e-06 0 3.5685e-09
37 3 0.001 -0.0253107 0 -0.000751038 4.14239e-05 0 -3.91172e-06 0 3.60133e-09
38 3 0.001 -0.0246772 0 -0.000784979 1.06008e-05 0 -1.78327e-06 0 3.62989e-09
39 3 0.001 -0.0240437 0 -0.000819285 -7.94031e-06 0 1.15057e-06 0 3.63141e-09
40 3 0.001 -0.0234102 0 -0.000853939 -4.12928e-05 0 5.1649e-06 0 3.60445e-09
