ITEM: TIMESTEP
9200000
ITEM: NUMBER OF ATOMS
151
ITEM: BOX BOUNDS ff ff ff
-5.5000000000000000e-02 5.5000000000000000e-02
-6.0000000000000001e-03 6.0000000000000001e-03
-2.5000000000000001e-02 2.5000000000000001e-02
ITEM: ATOMS id type radius x y z fx fy fz c_bendingE c_stretchingE
142 3 0.001 0.0433364 0 -0.00853007 -4.75425e-08 0 -2.84037e-07 0 2.48796e-08
143 3 0.001 0.0440026 0 -0.00859705 -2.25112e-08 0 -2.35288e-07 0 2.48795e-08
144 3 0.001 0.0446689 0 -0.00866403 5.74681e-08 0 3.70305e-07 0 2.48796e-08
145 3 0.001 0.0453351 0 -0.00873101 -1.72075e-08 0 -1.59945e-08 0 2.48796e-08
148 3 0.001 0.0473338 0 -0.00893196 5.20472e-08 0 7.78826e-07 0 2.48796e-08
146 3 0.001 0.0460014 0 -0.008798 -3.25492e-09 0 -7.67106e-08 0 2.48796e-08
147 3 0.001 0.0466676 0 -0.00886498 -2.54127e-08 0 -3.9349e-07 0 2.48796e-08
150 3 0.001 0.0486663 0 -0.00906592 3.30701e-08 0 1.02449e-07 0 3.03201e-08
149 3 0.001 0.0480001 0 -0.00899894 -5.65064e-08 0 -5.37479e-07 0 2.48795e-08
2 2 0.001 0.05 0 -0.0092 -0.0168447 0 0.00169356 0 1.78803e-08
151 3 0.001 0.0493332 0 -0.00913296 -4.12909e-09 0 8.01504e-09 0 3.57607e-08
120 3 0.001 0.0286789 0 -0.00705655 -3.94523e-08 0 -5.7273e-07 0 2.48796e-08
121 3 0.001 0.0293452 0 -0.00712353 6.73268e-08 0 7.96949e-07 0 2.48796e-08
119 3 0.001 0.0280127 0 -0.00698958 -2.39241e-08 0 -2.15835e-07 0 2.48795e-08
122 3 0.001 0.0300114 0 -0.0071905 -4.36722e-08 0 -4.02054e-07 0 2.48795e-08
123 3 0.001 0.0306777 0 -0.00725748 3.69887e-08 0 1.84493e-07 0 2.48796e-08
124 3 0.001 0.0313439 0 -0.00732445 -3.35932e-08 0 -1.88126e-07 0 2.48796e-08
125 3 0.001 0.0320102 0 -0.00739143 1.38995e-08 0 1.99909e-07 0 2.48795e-08
126 3 0.001 0.0326764 0 -0.00745841 -8.80355e-09 0 -2.78004e-07 0 2.48796e-08
127 3 0.001 0.0333427 0 -0.00752538 1.58989e-08 0 2.75435e-07 0 2.48796e-08
128 3 0.001 0.0340089 0 -0.00759236 -1.49777e-08 0 -6.06904e-08 0 2.48795e-08
129 3 0.001 0.0346751 0 -0.00765934 -4.53544e-09 0 -1.84892e-07 0 2.48795e-08
130 3 0.001 0.0353414 0 -0.00772632 2.39071e-08 0 3.37628e-07 0 2.48796e-08
132 3 0.001 0.0366739 0 -0.00786027 6.11328e-08 0 3.84292e-07 0 2.48796e-08
131 3 0.001 0.0360076 0 -0.00779329 -4.19055e-08 0 -3.82341e-07 0 2.48795e-08
133 3 0.001 0.0373401 0 -0.00792725 -5.65142e-08 0 -5.05235e-07 0 2.48796e-08
134 3 0.001 0.0380064 0 -0.00799423 4.08418e-08 0 4.83182e-07 0 2.48796e-08
135 3 0.001 0.0386726 0 -0.00806121 9.29699e-09 0 -5.8017e-09 0 2.48796e-08
136 3 0.001 0.0393389 0 -0.00812819 -5.92991e-08 0 -3.68775e-07 0 2.48796e-08
137 3 0.001 0.0400051 0 -0.00819517 2.2901e-08 0 2.67243e-07 0 2.48795e-08
138 3 0.001 0.0406714 0 -0.00826215 7.22392e-09 0 -2.27767e-07 0 2.48796e-08
139 3 0.001 0.0413376 0 -0.00832913 2.70797e-08 0 3.79601e-07 0 2.48796e-08
140 3 0.001 0.0420039 0 -0.00839611 -5.40829e-08 0 -4.70095e-07 0 2.48796e-08
141 3 0.001 0.0426701 0 -0.00846309 6.52393e-08 0 5.19081e-07 0 2.48796e-08
96 3 0.001 0.0126889 0 -0.00544954 3.32098e-09 0 -7.41743e-08 0 2.48795e-08
97 3 0.001 0.0133552 0 -0.00551647 3.20844e-08 0 4.61926e-07 0 2.48795e-08
98 3 0.001 0.0140214 0 -0.00558341 -8.00167e-08 0 -7.49619e-07 0 2.48795e-08
99 3 0.001 0.0146877 0 -0.00565035 8.56717e-08 0 6.66217e-07 0 2.48795e-08
100 3 0.001 0.0153539 0 -0.00571729 -2.65639e-08 0 -1.46549e-07 0 2.48795e-08
101 3 0.001 0.0160202 0 -0.00578424 -4.32297e-08 0 -3.87625e-07 0 2.48795e-08
102 3 0.001 0.0166864 0 -0.00585119 7.40587e-08 0 4.40633e-07 0 2.48796e-08
104 3 0.001 0.0180189 0 -0.0059851 -1.15628e-07 0 -8.73857e-07 0 2.48795e-08
105 3 0.001 0.0186852 0 -0.00605205 1.14797e-07 0 9.59668e-07 0 2.48795e-08
103 3 0.001 0.0173527 0 -0.00591814 -9.80708e-10 0 1.43999e-07 0 2.48796e-08
107 3 0.001 0.0200177 0 -0.00618597 -7.56767e-09 0 -3.49498e-08 0 2.48795e-08
106 3 0.001 0.0193514 0 -0.00611901 -3.82064e-08 0 -4.40272e-07 0 2.48795e-08
108 3 0.001 0.0206839 0 -0.00625293 5.57632e-08 0 3.88966e-07 0 2.48796e-08
109 3 0.001 0.0213502 0 -0.00631989 -7.03452e-08 0 -5.6042e-07 0 2.48796e-08
112 3 0.001 0.0233489 0 -0.00652079 -2.10074e-08 0 -7.29526e-08 0 2.48795e-08
110 3 0.001 0.0220164 0 -0.00638686 1.78784e-08 0 3.14372e-07 0 2.48795e-08
111 3 0.001 0.0226827 0 -0.00645382 2.07538e-08 0 4.18733e-08 0 2.48795e-08
113 3 0.001 0.0240152 0 -0.00658776 -3.76348e-08 0 -3.02138e-07 0 2.48795e-08
114 3 0.001 0.0246814 0 -0.00665472 1.00777e-07 0 6.99009e-07 0 2.48795e-08
115 3 0.001 0.0253477 0 -0.00672169 -6.91455e-08 0 -6.66517e-07 0 2.48796e-08
116 3 0.001 0.0260139 0 -0.00678866 1.94427e-08 0 3.67706e-07 0 2.48796e-08
117 3 0.001 0.0266802 0 -0.00685564 -2.17858e-08 0 -3.21194e-07 0 2.48795e-08
118 3 0.001 0.0273464 0 -0.00692261 4.14339e-08 0 5.15158e-07 0 2.48795e-08
73 3 0.001 -0.00263507 0 -0.00391199 7.7062e-08 0 8.33336e-07 0 2.48795e-08
74 3 0.001 -0.00196879 0 -0.0039787 -1.13046e-07 0 -9.23582e-07 0 2.48795e-08
75 3 0.001 -0.00130252 0 -0.00404544 1.03939e-07 0 8.27682e-07 0 2.48795e-08
77 3 0.001 3.00199e-05 0 -0.00417896 1.17294e-08 0 2.23614e-07 0 2.48795e-08
78 3 0.001 0.000696287 0 -0.00424574 2.06155e-08 0 1.40168e-07 0 2.48795e-08
76 3 0.001 -0.000636249 0 -0.00411219 -5.30751e-08 0 -6.42017e-07 0 2.48795e-08
79 3 0.001 0.00136255 0 -0.00431254 -4.73667e-08 0 -3.71745e-07 0 2.48795e-08
80 3 0.001 0.00202882 0 -0.00437935 4.06269e-08 0 5.80226e-07 0 2.48795e-08
81 3 0.001 0.00269508 0 -0.00444617 -2.50542e-08 0 -5.01369e-07 0 2.48795e-08
82 3 0.001 0.00336134 0 -0.00451301 9.61156e-09 0 6.2384e-08 0 2.48796e-08
83 3 0.001 0.0040276 0 -0.00457985 5.62691e-09 0 2.46506e-07 0 2.48795e-08
84 3 0.001 0.00469386 0 -0.00464671 2.03327e-08 0 -1.22761e-08 0 2.48795e-08
86 3 0.001 0.00602638 0 -0.00478045 -9.25886e-09 0 1.90552e-07 0 2.48795e-08
87 3 0.001 0.00669264 0 -0.00484733 6.12117e-09 0 -7.32571e-08 0 2.48795e-08
85 3 0.001 0.00536012 0 -0.00471358 -2.70733e-08 0 -2.86261e-07 0 2.48796e-08
88 3 0.001 0.00735889 0 -0.00491422 1.64717e-08 0 1.31149e-07 0 2.48795e-08
89 3 0.001 0.00802515 0 -0.00498112 -1.38441e-08 0 -3.54538e-08 0 2.48795e-08
91 3 0.001 0.00935766 0 -0.00511492 4.58659e-08 0 5.28419e-07 0 2.48796e-08
90 3 0.001 0.00869141 0 -0.00504802 -1.31871e-08 0 -3.16186e-07 0 2.48795e-08
92 3 0.001 0.0100239 0 -0.00518184 -4.69547e-08 0 -2.75782e-07 0 2.48795e-08
93 3 0.001 0.0106902 0 -0.00524876 -1.0933e-08 0 -3.11434e-07 0 2.48795e-08
94 3 0.001 0.0113564 0 -0.00531568 7.06939e-08 0 6.74192e-07 0 2.48796e-08
95 3 0.001 0.0120227 0 -0.00538261 -5.04433e-08 0 -4.15299e-07 0 2.48795e-08
50 3 0.001 -0.0179605 0 -0.00238894 -9.7516e-08 0 -8.04347e-07 0 2.48794e-08
52 3 0.001 -0.0166277 0 -0.0025199 4.13548e-08 0 2.95615e-07 0 2.48794e-08
53 3 0.001 -0.0159613 0 -0.00258554 -6.8737e-08 0 -4.54367e-07 0 2.48794e-08
51 3 0.001 -0.0172941 0 -0.00245436 6.82868e-08 0 4.62086e-07 0 2.48794e-08
55 3 0.001 -0.0146286 0 -0.00271712 1.3252e-07 0 1.26073e-06 0 2.48795e-08
54 3 0.001 -0.015295 0 -0.00265128 -4.33969e-08 0 -4.75718e-07 0 2.48794e-08
56 3 0.001 -0.0139622 0 -0.00278303 -8.89361e-08 0 -7.66684e-07 0 2.48795e-08
57 3 0.001 -0.0132959 0 -0.00284903 -2.80769e-08 0 -3.97089e-07 0 2.48795e-08
58 3 0.001 -0.0126296 0 -0.0029151 1.1028e-07 0 1.05469e-06 0 2.48795e-08
59 3 0.001 -0.0119632 0 -0.00298124 -1.12186e-07 0 -9.70946e-07 0 2.48795e-08
60 3 0.001 -0.0112969 0 -0.00304743 5.97353e-08 0 4.89983e-07 0 2.48795e-08
62 3 0.001 -0.00996427 0 -0.00318 -2.85969e-08 0 -8.87724e-08 0 2.48795e-08
61 3 0.001 -0.0106306 0 -0.00311369 3.82245e-09 0 1.82013e-08 0 2.48795e-08
63 3 0.001 -0.00929796 0 -0.00324636 -2.38126e-08 0 -4.29148e-07 0 2.48795e-08
64 3 0.001 -0.00863165 0 -0.00331277 9.24662e-08 0 8.06332e-07 0 2.48795e-08
66 3 0.001 -0.00729906 0 -0.0034457 -1.23794e-08 0 -2.14256e-07 0 2.48795e-08
65 3 0.001 -0.00796535 0 -0.00337921 -6.27824e-08 0 -3.35725e-07 0 2.48795e-08
69 3 0.001 -0.00530019 0 -0.00364537 -2.64264e-09 0 -2.17741e-07 0 2.48795e-08
67 3 0.001 -0.00663276 0 -0.00351222 6.1598e-09 0 -2.99261e-09 0 2.48795e-08
68 3 0.001 -0.00596647 0 -0.00357878 2.45142e-08 0 3.53243e-07 0 2.48795e-08
71 3 0.001 -0.00396762 0 -0.00377863 4.46643e-09 0 2.34533e-07 0 2.48795e-08
70 3 0.001 -0.0046339 0 -0.00371199 -1.3599e-08 0 -8.1575e-08 0 2.48795e-08
72 3 0.001 -0.00330134 0 -0.0038453 -2.76404e-08 0 -4.75021e-07 0 2.48795e-08
26 3 0.001 -0.0339612 0 -0.000893518 1.0723e-09 0 1.56386e-07 0 2.48736e-08
25 3 0.001 -0.0346284 0 -0.000837172 -4.2736e-08 0 -6.06771e-07 0 2.48727e-08
27 3 0.001 -0.033294 0 -0.00095065 4.2891e-08 0 3.76279e-07 0 2.48745e-08
28 3 0.001 -0.0326269 0 -0.00100851 -3.23994e-08 0 -5.40386e-07 0 2.48752e-08
30 3 0.001 -0.0312929 0 -0.00112621 -1.39261e-08 0 -1.49302e-07 0 2.48763e-08
29 3 0.001 -0.0319599 0 -0.00106705 1.20553e-08 0 3.96337e-07 0 2.48758e-08
32 3 0.001 -0.0299591 0 -0.00124622 4.0013e-08 0 5.62441e-07 0 2.48772e-08
31 3 0.001 -0.030626 0 -0.00118594 -6.42772e-09 0 -2.04029e-07 0 2.48768e-08
35 3 0.001 -0.0279587 0 -0.00142987 -3.15795e-08 0 -8.01148e-08 0 2.48781e-08
33 3 0.001 -0.0292922 0 -0.00130699 -5.0871e-08 0 -6.50481e-07 0 2.48775e-08
34 3 0.001 -0.0286254 0 -0.00136822 5.23032e-08 0 4.27543e-07 0 2.48778e-08
37 3 0.001 -0.0266253 0 -0.00155433 5.5512e-08 0 4.90094e-07 0 2.48784e-08
36 3 0.001 -0.027292 0 -0.00149192 -2.7212e-08 0 -2.92396e-07 0 2.48782e-08
38 3 0.001 -0.0259586 0 -0.00161708 -3.95243e-08 0 -3.21058e-07 0 2.48786e-08
39 3 0.001 -0.025292 0 -0.00168015 3.53584e-08 0 1.85709e-07 0 2.48787e-08
40 3 0.001 -0.0246254 0 -0.0017435 -3.40104e-08 0 -4.28116e-07 0 2.48789e-08
41 3 0.001 -0.0239588 0 -0.00180712 2.7716e-08 0 5.66598e-07 0 2.48789e-08
44 3 0.001 -0.0219592 0 -0.0019994 5.78334e-09 0 2.25658e-07 0 2.48791e-08
42 3 0.001 -0.0232922 0 -0.00187099 -2.0723e-08 0 -2.60887e-07 0 2.4879e-08
43 3 0.001 -0.0226257 0 -0.00193509 1.46884e-09 0 -7.44583e-08 0 2.48791e-08
45 3 0.001 -0.0212927 0 -0.00206391 -4.09525e-08 0 -5.85373e-07 0 2.48792e-08
46 3 0.001 -0.0206262 0 -0.0021286 1.09036e-07 0 1.00733e-06 0 2.48793e-08
48 3 0.001 -0.0192933 0 -0.00225848 -3.32326e-09 0 -7.65505e-08 0 2.48793e-08
47 3 0.001 -0.0199598 0 -0.00219346 -8.62588e-08 0 -7.27027e-07 0 2.48793e-08
49 3 0.001 -0.0186269 0 -0.00232364 6.07056e-08 0 6.40341e-07 0 2.48794e-08
1 1 0.001 -0.05 0 0 -0.00339446 0 0.019866 0 1.14427e-32
3 3 0.001 -0.0493333 0 0 0.0202392 0 -0.0215594 0 1.7817e-08
4 3 0.001 -0.0486632 0 -9.23485e-06 1.32865e-08 0 -1.51756e-07 0 3.01773e-08
5 3 0.001 -0.0479938 0 -2.27383e-05 -6.94536e-09 0 3.0667e-07 0 2.47318e-08
6 3 0.001 -0.0473244 0 -4.02021e-05 -7.92949e-09 0 -3.30739e-07 0 2.47528e-08
7 3 0.001 -0.0466551 0 -6.1333e-05 3.27373e-08 0 4.57842e-07 0 2.47709e-08
8 3 0.001 -0.045986 0 -8.58594e-05 -4.30945e-08 0 -6.59288e-07 0 2.47863e-08
9 3 0.001 -0.0453169 0 -0.00011353 1.91984e-08 0 4.3715e-07 0 2.47995e-08
10 3 0.001 -0.044648 0 -0.000144111 1.49895e-08 0 3.55955e-08 0 2.48109e-08
11 3 0.001 -0.0439793 0 -0.000177388 -3.60852e-08 0 -2.7518e-07 0 2.48207e-08
12 3 0.001 -0.0433106 0 -0.000213161 2.51558e-08 0 4.43141e-07 0 2.4829e-08
13 3 0.001 -0.0426421 0 -0.000251244 2.47337e-09 0 -3.7137e-07 0 2.48362e-08
14 3 0.001 -0.0419737 0 -0.000291467 -2.11352e-08 0 -1.11085e-07 0 2.48424e-08
15 3 0.001 -0.0413054 0 -0.000333671 2.0757e-08 0 2.52858e-07 0 2.48477e-08
16 3 0.001 -0.0406373 0 -0.000377709 1.43813e-08 0 5.30331e-08 0 2.48522e-08
17 3 0.001 -0.0399692 0 -0.000423446 -4.11238e-08 0 -2.09226e-07 0 2.48561e-08
18 3 0.001 -0.0393013 0 -0.000470755 2.61e-08 0 3.3073e-07 0 2.48594e-08
19 3 0.001 -0.0386335 0 -0.00051952 -1.40684e-08 0 -3.97157e-07 0 2.48623e-08
20 3 0.001 -0.0379657 0 -0.000569633 -6.18087e-09 0 7.17303e-08 0 2.48647e-08
21 3 0.001 -0.0372981 0 -0.000620994 2.8438e-08 0 1.64855e-07 0 2.48669e-08
22 3 0.001 -0.0366306 0 -0.000673511 1.64935e-08 0 1.12864e-07 0 2.48687e-08
23 3 0.001 -0.0359631 0 -0.000727098 -6.34589e-08 0 -4.89061e-07 0 2.48702e-08
24 3 0.001 -0.0352957 0 -0.000781676 5.82354e-08 0 6.72545e-07 0 2.48715e-08
