ITEM: TIMESTEP
7000000
ITEM: NUMBER OF ATOMS
151
ITEM: BOX BOUNDS ff ff ff
-5.5000000000000000e-02 5.5000000000000000e-02
-6.0000000000000001e-03 6.0000000000000001e-03
-2.5000000000000001e-02 2.5000000000000001e-02
ITEM: ATOMS id type radius x y z fx fy fz c_bendingE c_stretchingE
128 3 0.001 0.0340071 0 -0.0057406 4.4215e-09 0 5.64695e-08 0 8.5057e-09
129 3 0.001 0.0346734 0 -0.00579305 -4.57977e-09 0 -6.55897e-08 0 8.5057e-09
130 3 0.001 0.0353397 0 -0.00584552 2.44359e-09 0 3.16619e-08 0 8.5057e-09
131 3 0.001 0.0360061 0 -0.00589798 -3.35719e-11 0 -3.35433e-09 0 8.5057e-09
132 3 0.001 0.0366724 0 -0.00595044 8.16207e-10 0 1.42148e-08 0 8.5057e-09
133 3 0.001 0.0373387 0 -0.00600291 -6.61315e-10 0 -5.36798e-09 0 8.5057e-09
134 3 0.001 0.038005 0 -0.00605537 -2.56836e-09 0 -4.10914e-08 0 8.5057e-09
135 3 0.001 0.0386714 0 -0.00610784 4.09113e-09 0 6.11971e-08 0 8.5057e-09
136 3 0.001 0.0393377 0 -0.00616031 -3.55003e-09 0 -4.2731e-08 0 8.5057e-09
137 3 0.001 0.040004 0 -0.00621278 3.6369e-09 0 3.59868e-08 0 8.5057e-09
138 3 0.001 0.0406703 0 -0.00626525 -5.61296e-09 0 -6.20308e-08 0 8.5057e-09
139 3 0.001 0.0413366 0 -0.00631772 4.30519e-09 0 5.85177e-08 0 8.5057e-09
140 3 0.001 0.042003 0 -0.0063702 9.88294e-10 0 7.18686e-09 0 8.5057e-09
141 3 0.001 0.0426693 0 -0.00642267 -4.16268e-09 0 -5.47504e-08 0 8.5057e-09
142 3 0.001 0.0433356 0 -0.00647514 4.03958e-09 0 4.41052e-08 0 8.5057e-09
143 3 0.001 0.0440019 0 -0.00652762 -1.72488e-09 0 -1.83362e-08 0 8.5057e-09
144 3 0.001 0.0446683 0 -0.00658009 -1.42697e-09 0 -1.07429e-08 0 8.5057e-09
145 3 0.001 0.0453346 0 -0.00663257 2.71122e-09 0 3.91258e-08 0 8.5057e-09
148 3 0.001 0.0473335 0 -0.00679 9.70672e-09 0 1.24014e-07 0 8.5057e-09
146 3 0.001 0.0460009 0 -0.00668505 -1.14061e-09 0 -1.35389e-08 0 8.5057e-09
147 3 0.001 0.0466672 0 -0.00673752 -4.50718e-09 0 -7.15181e-08 0 8.5057e-09
149 3 0.001 0.0479999 0 -0.00684248 -7.39638e-09 0 -8.68804e-08 0 8.5057e-09
150 3 0.001 0.0486662 0 -0.00689495 2.00563e-09 0 1.84063e-08 0 1.19127e-08
2 2 0.001 0.05 0 -0.007 -0.0098682 0 0.000777444 0 7.65982e-09
151 3 0.001 0.0493331 0 -0.00694748 5.49867e-10 0 8.6264e-09 0 1.53196e-08
97 3 0.001 0.0133509 0 -0.00411619 3.7728e-09 0 5.17176e-08 0 8.50569e-09
98 3 0.001 0.0140173 0 -0.00416849 -7.64609e-09 0 -8.97365e-08 0 8.50569e-09
99 3 0.001 0.0146836 0 -0.0042208 7.0645e-09 0 7.70814e-08 0 8.50569e-09
100 3 0.001 0.0153499 0 -0.00427312 -2.96077e-10 0 -1.42325e-08 0 8.50569e-09
101 3 0.001 0.0160163 0 -0.00432545 -1.72277e-09 0 -6.18001e-09 0 8.50569e-09
102 3 0.001 0.0166826 0 -0.00437779 -1.33056e-09 0 -1.05864e-08 0 8.50569e-09
104 3 0.001 0.0180153 0 -0.0044825 1.12637e-09 0 7.86101e-09 0 8.50569e-09
105 3 0.001 0.0186816 0 -0.00453486 8.54238e-12 0 -3.87762e-09 0 8.50569e-09
103 3 0.001 0.0173489 0 -0.00443014 6.45097e-10 0 3.37531e-09 0 8.50569e-09
106 3 0.001 0.0193479 0 -0.00458723 7.66644e-10 0 2.07099e-08 0 8.50569e-09
107 3 0.001 0.0200142 0 -0.00463961 -3.53871e-09 0 -4.4312e-08 0 8.50569e-09
108 3 0.001 0.0206806 0 -0.004692 1.86962e-09 0 1.64394e-08 0 8.50569e-09
109 3 0.001 0.0213469 0 -0.00474439 2.19003e-09 0 2.71448e-08 0 8.50569e-09
112 3 0.001 0.0233459 0 -0.00490159 -5.03961e-10 0 -1.65448e-09 0 8.50569e-09
110 3 0.001 0.0220132 0 -0.00479678 -1.05172e-09 0 -1.74784e-08 0 8.5057e-09
111 3 0.001 0.0226796 0 -0.00484919 -1.45975e-09 0 -1.33365e-08 0 8.5057e-09
113 3 0.001 0.0240122 0 -0.00495401 3.40832e-09 0 3.88718e-08 0 8.50569e-09
114 3 0.001 0.0246785 0 -0.00500642 -2.70083e-09 0 -3.15148e-08 0 8.5057e-09
115 3 0.001 0.0253449 0 -0.00505884 1.22667e-09 0 1.62246e-08 0 8.5057e-09
116 3 0.001 0.0260112 0 -0.00511127 -3.63915e-09 0 -4.65323e-08 0 8.5057e-09
117 3 0.001 0.0266775 0 -0.00516369 5.52687e-09 0 6.41963e-08 0 8.5057e-09
118 3 0.001 0.0273438 0 -0.00521613 -2.88453e-09 0 -4.70387e-08 0 8.5057e-09
119 3 0.001 0.0280102 0 -0.00526856 1.53967e-09 0 3.03722e-08 0 8.5057e-09
120 3 0.001 0.0286765 0 -0.005321 2.85313e-10 0 2.318e-08 0 8.5057e-09
121 3 0.001 0.0293428 0 -0.00537344 -6.73704e-09 0 -8.69351e-08 0 8.50569e-09
122 3 0.001 0.0300091 0 -0.00542588 5.37476e-09 0 5.53616e-08 0 8.5057e-09
123 3 0.001 0.0306755 0 -0.00547833 3.5261e-09 0 3.43551e-08 0 8.5057e-09
124 3 0.001 0.0313418 0 -0.00553078 -6.64086e-09 0 -7.86066e-08 0 8.5057e-09
125 3 0.001 0.0320081 0 -0.00558323 4.89221e-09 0 6.58791e-08 0 8.5057e-09
126 3 0.001 0.0326744 0 -0.00563568 -1.82086e-09 0 -2.77476e-08 0 8.5057e-09
127 3 0.001 0.0333408 0 -0.00568814 -1.94465e-09 0 -1.70116e-08 0 8.5057e-09
66 3 0.001 -0.00730636 0 -0.0025061 2.31261e-09 0 1.88959e-08 0 8.50566e-09
69 3 0.001 -0.00530714 0 -0.00266028 -1.95661e-09 0 -1.19421e-08 0 8.50567e-09
67 3 0.001 -0.00663995 0 -0.00255742 -3.91265e-09 0 -6.15039e-08 0 8.50566e-09
68 3 0.001 -0.00597355 0 -0.00260882 3.47526e-09 0 5.20324e-08 0 8.50567e-09
71 3 0.001 -0.00397436 0 -0.00276336 4.19232e-09 0 5.643e-08 0 8.50567e-09
70 3 0.001 -0.00464075 0 -0.00271179 -2.51523e-09 0 -3.78749e-08 0 8.50567e-09
72 3 0.001 -0.00330797 0 -0.00281499 -2.05961e-09 0 -1.82909e-08 0 8.50567e-09
73 3 0.001 -0.00264158 0 -0.00286666 -1.44679e-09 0 -2.35852e-08 0 8.50568e-09
74 3 0.001 -0.0019752 0 -0.00291838 2.76888e-09 0 2.88435e-08 0 8.50568e-09
75 3 0.001 -0.00130882 0 -0.00297014 -1.50696e-09 0 -3.29421e-08 0 8.50568e-09
76 3 0.001 -0.000642448 0 -0.00302194 3.38474e-09 0 4.92195e-08 0 8.50568e-09
77 3 0.001 2.39235e-05 0 -0.00307379 -4.12237e-09 0 -3.23549e-08 0 8.50568e-09
78 3 0.001 0.000690292 0 -0.00312567 -1.65152e-09 0 -2.9104e-08 0 8.50568e-09
79 3 0.001 0.00135666 0 -0.00317758 6.89809e-09 0 7.75357e-08 0 8.50568e-09
80 3 0.001 0.00202302 0 -0.00322953 -6.11845e-09 0 -7.15911e-08 0 8.50568e-09
81 3 0.001 0.00268938 0 -0.00328151 1.53079e-09 0 2.59817e-08 0 8.50568e-09
82 3 0.001 0.00335574 0 -0.00333352 1.89583e-09 0 2.61257e-08 0 8.50568e-09
83 3 0.001 0.0040221 0 -0.00338555 -1.03153e-09 0 -2.3365e-08 0 8.50569e-09
84 3 0.001 0.00468845 0 -0.00343761 -4.36117e-09 0 -5.83952e-08 0 8.50569e-09
85 3 0.001 0.00535481 0 -0.0034897 8.16684e-09 0 1.1317e-07 0 8.50569e-09
86 3 0.001 0.00602116 0 -0.0035418 -3.55759e-09 0 -5.2741e-08 0 8.50569e-09
87 3 0.001 0.00668751 0 -0.00359393 -3.96257e-09 0 -5.57091e-08 0 8.50569e-09
88 3 0.001 0.00735385 0 -0.00364608 9.86184e-09 0 1.30426e-07 0 8.50569e-09
89 3 0.001 0.0080202 0 -0.00369825 -1.39937e-08 0 -1.69436e-07 0 8.50569e-09
90 3 0.001 0.00868654 0 -0.00375044 1.07932e-08 0 1.44578e-07 0 8.50569e-09
91 3 0.001 0.00935289 0 -0.00380265 -1.65678e-09 0 -3.84344e-08 0 8.50569e-09
92 3 0.001 0.0100192 0 -0.00385487 -2.62342e-09 0 -4.33315e-08 0 8.50569e-09
93 3 0.001 0.0106856 0 -0.0039071 1.03479e-09 0 2.90181e-08 0 8.50569e-09
94 3 0.001 0.0113519 0 -0.00395936 4.10082e-10 0 8.57439e-09 0 8.50569e-09
95 3 0.001 0.0120182 0 -0.00401162 -1.61865e-10 0 -5.20807e-09 0 8.50569e-09
96 3 0.001 0.0126846 0 -0.0040639 -1.42946e-09 0 -1.97834e-08 0 8.50569e-09
32 3 0.001 -0.029971 0 -0.000850761 -2.6256e-09 0 -3.36932e-08 0 8.50421e-09
35 3 0.001 -0.0279703 0 -0.000984074 -5.4268e-09 0 -7.60326e-08 0 8.50464e-09
33 3 0.001 -0.029304 0 -0.000894722 -3.86511e-10 0 -1.31703e-08 0 8.50437e-09
34 3 0.001 -0.0286371 0 -0.000939169 3.92815e-09 0 6.80076e-08 0 8.50452e-09
37 3 0.001 -0.0266366 0 -0.00107516 8.90574e-10 0 1.55223e-08 0 8.50486e-09
36 3 0.001 -0.0273034 0 -0.00102941 2.88564e-09 0 3.42976e-08 0 8.50476e-09
38 3 0.001 -0.0259698 0 -0.00112129 -1.80112e-09 0 -3.24449e-08 0 8.50495e-09
39 3 0.001 -0.025303 0 -0.00116778 1.97174e-09 0 2.47833e-08 0 8.50504e-09
40 3 0.001 -0.0246363 0 -0.00121461 -3.00332e-09 0 -3.72741e-08 0 8.50511e-09
41 3 0.001 -0.0239696 0 -0.00126177 1.56062e-09 0 1.96503e-08 0 8.50517e-09
44 3 0.001 -0.0219695 0 -0.00140499 -3.72277e-10 0 9.90151e-11 0 8.50532e-09
42 3 0.001 -0.0233029 0 -0.00130923 3.65311e-09 0 5.04576e-08 0 8.50523e-09
43 3 0.001 -0.0226362 0 -0.00135698 -4.12475e-09 0 -5.8245e-08 0 8.50528e-09
45 3 0.001 -0.0213029 0 -0.00145327 6.95848e-10 0 1.76819e-08 0 8.50536e-09
46 3 0.001 -0.0206363 0 -0.00150178 7.67734e-10 0 6.35686e-09 0 8.5054e-09
48 3 0.001 -0.0193031 0 -0.00159947 2.35423e-09 0 2.61984e-08 0 8.50546e-09
47 3 0.001 -0.0199697 0 -0.00155052 -8.28111e-10 0 -1.73155e-08 0 8.50543e-09
49 3 0.001 -0.0186365 0 -0.00164862 -2.51885e-09 0 -3.8016e-08 0 8.50549e-09
50 3 0.001 -0.0179699 0 -0.00169797 1.37794e-10 0 1.5166e-08 0 8.50551e-09
51 3 0.001 -0.0173034 0 -0.00174749 9.90601e-10 0 1.9328e-08 0 8.50553e-09
52 3 0.001 -0.0166369 0 -0.00179718 -1.75105e-09 0 -3.0651e-08 0 8.50554e-09
53 3 0.001 -0.0159703 0 -0.00184703 2.7332e-09 0 3.27558e-08 0 8.50556e-09
54 3 0.001 -0.0153038 0 -0.00189704 -1.84287e-09 0 -3.13192e-08 0 8.50558e-09
55 3 0.001 -0.0146373 0 -0.00194718 7.1574e-10 0 2.22698e-08 0 8.50559e-09
56 3 0.001 -0.0139708 0 -0.00199746 -1.7652e-09 0 -1.76426e-08 0 8.5056e-09
57 3 0.001 -0.0133044 0 -0.00204786 2.7784e-09 0 1.81818e-08 0 8.50561e-09
58 3 0.001 -0.0126379 0 -0.00209838 -1.74243e-09 0 -1.58132e-08 0 8.50562e-09
59 3 0.001 -0.0119714 0 -0.00214901 1.56682e-09 0 3.40932e-08 0 8.50562e-09
60 3 0.001 -0.011305 0 -0.00219975 -4.0265e-09 0 -5.95344e-08 0 8.50563e-09
61 3 0.001 -0.0106385 0 -0.00225059 3.00368e-09 0 2.9557e-08 0 8.50564e-09
62 3 0.001 -0.00997207 0 -0.00230153 2.23581e-09 0 2.37676e-08 0 8.50564e-09
63 3 0.001 -0.00930563 0 -0.00235255 -1.39845e-09 0 -6.13648e-09 0 8.50565e-09
64 3 0.001 -0.0086392 0 -0.00240365 -4.85832e-09 0 -5.17576e-08 0 8.50565e-09
65 3 0.001 -0.00797278 0 -0.00245484 4.04798e-09 0 4.60392e-08 0 8.50566e-09
1 1 0.001 -0.05 0 0 -0.00340367 0 0.0122086 0 1.14427e-32
3 3 0.001 -0.0493333 0 0 0.0132719 0 -0.0129859 0 7.65224e-09
4 3 0.001 -0.0486644 0 -5.66498e-06 2.61377e-11 0 -2.44973e-08 0 1.18865e-08
5 3 0.001 -0.0479961 0 -1.39966e-05 -3.58385e-10 0 -4.02231e-10 0 8.47058e-09
6 3 0.001 -0.0473278 0 -2.48476e-05 1.59758e-09 0 3.15297e-08 0 8.47447e-09
7 3 0.001 -0.0466595 0 -3.80741e-05 -6.8185e-10 0 -2.27868e-08 0 8.47792e-09
8 3 0.001 -0.0459913 0 -5.35409e-05 -1.79485e-09 0 -1.46565e-08 0 8.48099e-09
9 3 0.001 -0.0453232 0 -7.11199e-05 8.0326e-10 0 3.29866e-08 0 8.48372e-09
10 3 0.001 -0.0446551 0 -9.06907e-05 2.30155e-10 0 -1.03725e-08 0 8.48615e-09
11 3 0.001 -0.043987 0 -0.00011214 6.17155e-10 0 -4.94327e-09 0 8.48831e-09
12 3 0.001 -0.043319 0 -0.00013536 -5.75818e-10 0 -2.31371e-08 0 8.49024e-09
13 3 0.001 -0.0426511 0 -0.000160249 9.05567e-10 0 3.83576e-08 0 8.49195e-09
14 3 0.001 -0.0419833 0 -0.000186714 -4.52376e-10 0 -1.4559e-08 0 8.49347e-09
15 3 0.001 -0.0413155 0 -0.000214663 1.88112e-10 0 3.35241e-09 0 8.49482e-09
16 3 0.001 -0.0406477 0 -0.000244011 -8.44831e-10 0 -1.42114e-08 0 8.49602e-09
17 3 0.001 -0.03998 0 -0.00027468 1.16125e-09 0 2.335e-08 0 8.49709e-09
18 3 0.001 -0.0393124 0 -0.000306594 -1.78323e-09 0 -2.36031e-08 0 8.49804e-09
19 3 0.001 -0.0386449 0 -0.000339681 3.28375e-10 0 4.90214e-09 0 8.49889e-09
20 3 0.001 -0.0379773 0 -0.000373875 1.34793e-09 0 1.5124e-08 0 8.49964e-09
21 3 0.001 -0.0373099 0 -0.000409113 -1.43389e-09 0 -2.13438e-08 0 8.50031e-09
22 3 0.001 -0.0366425 0 -0.000445334 1.94669e-09 0 2.89346e-08 0 8.50091e-09
23 3 0.001 -0.0359751 0 -0.000482483 -1.38717e-09 0 -2.73297e-08 0 8.50144e-09
24 3 0.001 -0.0353078 0 -0.000520507 5.56595e-10 0 6.65996e-09 0 8.50191e-09
25 3 0.001 -0.0346406 0 -0.000559356 1.84791e-09 0 2.71904e-08 0 8.50233e-09
26 3 0.001 -0.0339734 0 -0.000598982 -4.97914e-09 0 -6.06542e-08 0 8.5027e-09
27 3 0.001 -0.0333062 0 -0.000639342 4.01672e-09 0 7.00256e-08 0 8.50303e-09
28 3 0.001 -0.0326391 0 -0.000680394 -2.52106e-09 0 -5.66291e-08 0 8.50332e-09
29 3 0.001 -0.031972 0 -0.000722098 2.47386e-09 0 3.51627e-08 0 8.50358e-09
30 3 0.001 -0.031305 0 -0.000764417 -1.55637e-09 0 -2.74723e-08 0 8.50382e-09
31 3 0.001 -0.0306379 0 -0.000807315 2.12976e-09 0 3.93407e-08 0 8.50402e-09
