ITEM: TIMESTEP
10000000
ITEM: NUMBER OF ATOMS
151
ITEM: BOX BOUNDS ff ff ff
-5.5000000000000000e-02 5.5000000000000000e-02
-6.0000000000000001e-03 6.0000000000000001e-03
-2.5000000000000001e-02 2.5000000000000001e-02
ITEM: ATOMS id type radius x y z fx fy fz c_bendingE c_stretchingE
136 3 0.001 0.0393393 0 -0.00884356 -3.9647e-08 0 -5.00717e-07 0 3.45309e-08
137 3 0.001 0.0400055 0 -0.00891583 5.68304e-08 0 6.65493e-07 0 3.45309e-08
138 3 0.001 0.0406717 0 -0.0089881 3.03446e-08 0 3.15858e-07 0 3.45309e-08
139 3 0.001 0.041338 0 -0.00906037 -8.98947e-08 0 -1.04496e-06 0 3.45309e-08
140 3 0.001 0.0420042 0 -0.00913263 8.49857e-08 0 8.44307e-07 0 3.4531e-08
141 3 0.001 0.0426704 0 -0.0092049 -2.96835e-08 0 -1.12972e-07 0 3.45309e-08
142 3 0.001 0.0433366 0 -0.00927717 -6.38233e-08 0 -4.62371e-07 0 3.45309e-08
143 3 0.001 0.0440029 0 -0.00934944 9.64535e-08 0 6.32946e-07 0 3.45309e-08
144 3 0.001 0.0446691 0 -0.00942171 -4.29885e-08 0 -3.44995e-07 0 3.45309e-08
145 3 0.001 0.0453353 0 -0.00949398 9.71404e-09 0 -1.7545e-08 0 3.45309e-08
148 3 0.001 0.047334 0 -0.00971079 7.91865e-08 0 5.74971e-07 0 3.45309e-08
146 3 0.001 0.0460015 0 -0.00956625 -2.2223e-09 0 -2.34084e-08 0 3.4531e-08
147 3 0.001 0.0466677 0 -0.00963852 -3.94407e-08 0 -8.79136e-08 0 3.45309e-08
150 3 0.001 0.0486664 0 -0.00985533 8.35553e-08 0 6.24242e-07 0 4.08366e-08
149 3 0.001 0.0480002 0 -0.00978306 -1.1118e-07 0 -8.39801e-07 0 3.45309e-08
2 2 0.001 0.05 0 -0.01 -0.0198285 0 0.00215098 0 2.35712e-08
151 3 0.001 0.0493332 0 -0.00992767 1.88076e-08 0 -1.85611e-07 0 4.71424e-08
114 3 0.001 0.0246824 0 -0.00725369 -6.22831e-08 0 -3.06161e-07 0 3.4531e-08
115 3 0.001 0.0253487 0 -0.00732595 -4.28506e-08 0 -2.71325e-07 0 3.45309e-08
116 3 0.001 0.0260149 0 -0.00739821 8.34786e-08 0 6.64234e-07 0 3.45309e-08
117 3 0.001 0.0266811 0 -0.00747048 -7.4523e-08 0 -4.31091e-07 0 3.45309e-08
118 3 0.001 0.0273473 0 -0.00754274 4.36508e-09 0 -1.97153e-07 0 3.45309e-08
120 3 0.001 0.0286798 0 -0.00768727 -8.06982e-09 0 -1.56193e-07 0 3.45309e-08
121 3 0.001 0.029346 0 -0.00775954 -3.40807e-08 0 -4.58917e-07 0 3.4531e-08
119 3 0.001 0.0280135 0 -0.00761501 6.64713e-08 0 6.03742e-07 0 3.45309e-08
122 3 0.001 0.0300122 0 -0.00783181 1.35597e-08 0 3.48264e-07 0 3.4531e-08
123 3 0.001 0.0306784 0 -0.00790407 -1.83075e-08 0 6.78267e-08 0 3.45309e-08
124 3 0.001 0.0313447 0 -0.00797634 -5.74749e-08 0 -5.06498e-07 0 3.45308e-08
125 3 0.001 0.0320109 0 -0.00804861 1.33721e-07 0 9.77077e-07 0 3.45309e-08
126 3 0.001 0.0326771 0 -0.00812087 -9.48119e-08 0 -8.60733e-07 0 3.45309e-08
127 3 0.001 0.0333433 0 -0.00819314 4.4361e-08 0 2.42609e-07 0 3.45309e-08
128 3 0.001 0.0340095 0 -0.00826541 9.48659e-09 0 -5.07945e-08 0 3.4531e-08
129 3 0.001 0.0346758 0 -0.00833768 1.18159e-10 0 2.5872e-07 0 3.4531e-08
130 3 0.001 0.035342 0 -0.00840994 -1.02347e-07 0 -6.80799e-07 0 3.45309e-08
132 3 0.001 0.0366744 0 -0.00855448 -8.87734e-08 0 -9.92288e-07 0 3.45309e-08
131 3 0.001 0.0360082 0 -0.00848221 1.41959e-07 0 1.23867e-06 0 3.45308e-08
133 3 0.001 0.0373406 0 -0.00862675 -2.09044e-08 0 -2.3545e-07 0 3.45309e-08
134 3 0.001 0.0380069 0 -0.00869902 1.30034e-07 0 1.18943e-06 0 3.45309e-08
135 3 0.001 0.0386731 0 -0.00877129 -9.01727e-08 0 -7.24957e-07 0 3.45309e-08
92 3 0.001 0.0100255 0 -0.00566416 1.76793e-08 0 1.38099e-07 0 3.45309e-08
93 3 0.001 0.0106918 0 -0.00573639 -7.57358e-08 0 -7.03637e-07 0 3.45309e-08
96 3 0.001 0.0126904 0 -0.0059531 1.70485e-07 0 1.61192e-06 0 3.45309e-08
94 3 0.001 0.011358 0 -0.00580863 1.56993e-07 0 1.4186e-06 0 3.45309e-08
95 3 0.001 0.0120242 0 -0.00588086 -1.91192e-07 0 -1.89252e-06 0 3.45309e-08
97 3 0.001 0.0133567 0 -0.00602534 -4.98961e-08 0 -6.7918e-07 0 3.45309e-08
98 3 0.001 0.0140229 0 -0.00609759 -3.77249e-08 0 -1.34344e-07 0 3.45309e-08
99 3 0.001 0.0146891 0 -0.00616984 4.62983e-09 0 2.95982e-07 0 3.45309e-08
100 3 0.001 0.0153553 0 -0.00624208 -1.5789e-08 0 -2.05835e-07 0 3.45308e-08
101 3 0.001 0.0160215 0 -0.00631433 4.61162e-08 0 1.49469e-07 0 3.45309e-08
102 3 0.001 0.0166878 0 -0.00638658 3.08662e-08 0 2.86375e-07 0 3.45309e-08
104 3 0.001 0.0180202 0 -0.00653109 1.069e-07 0 7.80012e-07 0 3.45309e-08
105 3 0.001 0.0186864 0 -0.00660335 -1.14947e-07 0 -8.41977e-07 0 3.45309e-08
103 3 0.001 0.017354 0 -0.00645884 -1.02862e-07 0 -7.65383e-07 0 3.45309e-08
107 3 0.001 0.0200189 0 -0.00674786 3.38858e-09 0 3.33409e-08 0 3.45309e-08
106 3 0.001 0.0193527 0 -0.0066756 9.43026e-08 0 7.92086e-07 0 3.45309e-08
108 3 0.001 0.0206851 0 -0.00682012 -1.21656e-07 0 -1.06488e-06 0 3.45309e-08
109 3 0.001 0.0213513 0 -0.00689238 1.7858e-07 0 1.47613e-06 0 3.45309e-08
112 3 0.001 0.02335 0 -0.00710916 -6.18514e-08 0 -6.70576e-07 0 3.45309e-08
110 3 0.001 0.0220175 0 -0.00696464 -1.61368e-07 0 -1.32577e-06 0 3.45309e-08
111 3 0.001 0.0226838 0 -0.0070369 1.0156e-07 0 9.87727e-07 0 3.45309e-08
113 3 0.001 0.0240162 0 -0.00718142 9.07203e-08 0 5.23378e-07 0 3.4531e-08
71 3 0.001 -0.00396535 0 -0.00414871 5.03929e-08 0 4.78316e-07 0 3.45309e-08
70 3 0.001 -0.0046316 0 -0.00407668 -5.36693e-08 0 -6.68382e-07 0 3.45309e-08
73 3 0.001 -0.00263286 0 -0.00429284 5.80213e-08 0 6.64226e-07 0 3.45309e-08
72 3 0.001 -0.00329911 0 -0.00422077 -5.04115e-08 0 -4.38693e-07 0 3.45309e-08
74 3 0.001 -0.00196662 0 -0.00436493 -7.44065e-08 0 -9.22602e-07 0 3.45309e-08
75 3 0.001 -0.00130038 0 -0.00443704 6.42034e-08 0 8.23993e-07 0 3.45309e-08
77 3 0.001 3.20903e-05 0 -0.00458128 3.36178e-08 0 7.82616e-08 0 3.45309e-08
78 3 0.001 0.000698325 0 -0.00465342 -1.61926e-08 0 -3.5549e-08 0 3.45309e-08
76 3 0.001 -0.000634146 0 -0.00450915 -4.0695e-08 0 -3.78367e-07 0 3.45309e-08
79 3 0.001 0.00136456 0 -0.00472557 -3.44427e-08 0 -3.06311e-07 0 3.45309e-08
80 3 0.001 0.00203079 0 -0.00479773 5.68436e-08 0 6.55483e-07 0 3.45309e-08
81 3 0.001 0.00269702 0 -0.0048699 -2.75479e-08 0 -3.26129e-07 0 3.45309e-08
82 3 0.001 0.00336326 0 -0.00494208 1.24567e-08 0 -8.96181e-08 0 3.45309e-08
83 3 0.001 0.00402949 0 -0.00501426 -4.20774e-08 0 -4.24364e-07 0 3.4531e-08
84 3 0.001 0.00469572 0 -0.00508645 1.21983e-07 0 1.41022e-06 0 3.45309e-08
86 3 0.001 0.00602817 0 -0.00523085 5.91132e-08 0 4.73262e-07 0 3.45309e-08
87 3 0.001 0.0066944 0 -0.00530306 -2.19019e-09 0 1.32487e-07 0 3.45309e-08
85 3 0.001 0.00536194 0 -0.00515865 -1.52356e-07 0 -1.3833e-06 0 3.45309e-08
88 3 0.001 0.00736063 0 -0.00537527 -2.1552e-08 0 -4.15076e-07 0 3.45309e-08
89 3 0.001 0.00802685 0 -0.00544748 9.03337e-08 0 5.73391e-07 0 3.4531e-08
91 3 0.001 0.00935931 0 -0.00559193 -8.71424e-09 0 2.4181e-07 0 3.45309e-08
90 3 0.001 0.00869308 0 -0.00551971 -6.22189e-08 0 -4.87132e-07 0 3.4531e-08
48 3 0.001 -0.0192901 0 -0.0025019 -1.58174e-10 0 1.38697e-07 0 3.45307e-08
47 3 0.001 -0.0199565 0 -0.00243119 -1.03338e-08 0 -1.08277e-07 0 3.45307e-08
50 3 0.001 -0.0179574 0 -0.00264367 1.45452e-07 0 1.17385e-06 0 3.45307e-08
49 3 0.001 -0.0186237 0 -0.00257273 -6.58659e-08 0 -6.12752e-07 0 3.45307e-08
52 3 0.001 -0.0166247 0 -0.00278587 -7.53295e-08 0 -4.90382e-07 0 3.45308e-08
53 3 0.001 -0.0159583 0 -0.00285711 1.29834e-07 0 1.19798e-06 0 3.45308e-08
51 3 0.001 -0.017291 0 -0.00271472 -6.65707e-08 0 -7.55667e-07 0 3.45308e-08
55 3 0.001 -0.0146257 0 -0.00299982 6.39083e-09 0 2.30785e-08 0 3.45308e-08
54 3 0.001 -0.015292 0 -0.00292842 -9.15998e-08 0 -6.87344e-07 0 3.45308e-08
56 3 0.001 -0.0139594 0 -0.00307129 6.66119e-09 0 -5.1513e-08 0 3.45308e-08
57 3 0.001 -0.0132931 0 -0.00314281 3.64798e-08 0 3.22886e-07 0 3.45308e-08
58 3 0.001 -0.0126268 0 -0.0032144 -1.14152e-08 0 -3.50921e-07 0 3.45309e-08
59 3 0.001 -0.0119605 0 -0.00328605 1.24397e-08 0 2.15318e-07 0 3.45309e-08
60 3 0.001 -0.0112942 0 -0.00335774 -5.66687e-08 0 -2.43291e-07 0 3.45309e-08
62 3 0.001 -0.00996166 0 -0.00350126 9.54524e-08 0 5.1859e-07 0 3.45308e-08
61 3 0.001 -0.0106279 0 -0.00342948 -1.26499e-08 0 1.08399e-07 0 3.45308e-08
63 3 0.001 -0.00929539 0 -0.00357308 -9.62866e-08 0 -9.00685e-07 0 3.45309e-08
64 3 0.001 -0.00862912 0 -0.00364493 9.0231e-08 0 8.20797e-07 0 3.45309e-08
66 3 0.001 -0.0072966 0 -0.00378874 1.39622e-08 0 4.87035e-07 0 3.4531e-08
65 3 0.001 -0.00796286 0 -0.00371682 -5.09118e-08 0 -8.16985e-07 0 3.4531e-08
69 3 0.001 -0.00529784 0 -0.00400466 1.23905e-07 0 1.04878e-06 0 3.45308e-08
67 3 0.001 -0.00663035 0 -0.00386069 4.51565e-08 0 5.27076e-07 0 3.45309e-08
68 3 0.001 -0.00596409 0 -0.00393266 -1.45965e-07 0 -1.23406e-06 0 3.45308e-08
23 3 0.001 -0.0359587 0 -0.000821887 -5.26346e-08 0 -1.01323e-06 0 3.45195e-08
26 3 0.001 -0.0339568 0 -0.00100666 6.90571e-08 0 4.06817e-07 0 3.4524e-08
25 3 0.001 -0.034624 0 -0.000944191 -1.51706e-08 0 -8.82443e-09 0 3.45227e-08
24 3 0.001 -0.0352913 0 -0.000882575 2.63084e-08 0 3.53188e-07 0 3.45213e-08
27 3 0.001 -0.0332897 0 -0.00106991 -1.17441e-07 0 -1.29342e-06 0 3.45251e-08
28 3 0.001 -0.0326226 0 -0.00113389 1.79705e-07 0 1.89052e-06 0 3.4526e-08
30 3 0.001 -0.0312887 0 -0.00126378 -4.85516e-08 0 -4.31103e-07 0 3.45273e-08
29 3 0.001 -0.0319556 0 -0.00119853 -1.49731e-07 0 -1.17953e-06 0 3.45267e-08
32 3 0.001 -0.0299549 0 -0.00139591 -6.08291e-08 0 -9.25612e-07 0 3.45283e-08
31 3 0.001 -0.0306218 0 -0.00132959 1.27226e-07 0 1.24401e-06 0 3.45278e-08
35 3 0.001 -0.0279547 0 -0.0015976 1.17138e-07 0 9.96255e-07 0 3.45294e-08
33 3 0.001 -0.0292882 0 -0.00146272 5.43485e-08 0 4.94433e-07 0 3.45288e-08
34 3 0.001 -0.0286214 0 -0.00152996 -7.47167e-08 0 -5.79632e-07 0 3.45291e-08
37 3 0.001 -0.0266214 0 -0.00173397 -2.95216e-09 0 4.05309e-08 0 3.45297e-08
36 3 0.001 -0.027288 0 -0.00166562 -1.33871e-07 0 -9.60056e-07 0 3.45296e-08
38 3 0.001 -0.0259548 0 -0.00180264 1.48074e-07 0 1.19847e-06 0 3.45299e-08
39 3 0.001 -0.0252882 0 -0.00187159 -1.58537e-07 0 -1.69854e-06 0 3.45301e-08
40 3 0.001 -0.0246217 0 -0.00194081 8.5582e-08 0 8.97848e-07 0 3.45303e-08
41 3 0.001 -0.0239552 0 -0.00201028 3.99245e-08 0 4.71755e-07 0 3.45303e-08
44 3 0.001 -0.0219557 0 -0.00221995 -4.80524e-08 0 -5.2973e-07 0 3.45305e-08
42 3 0.001 -0.0232887 0 -0.00207997 -1.09973e-07 0 -1.08511e-06 0 3.45304e-08
43 3 0.001 -0.0226222 0 -0.00214986 7.60312e-08 0 7.94408e-07 0 3.45305e-08
45 3 0.001 -0.0212893 0 -0.00229021 3.73807e-08 0 4.52589e-07 0 3.45306e-08
46 3 0.001 -0.0206229 0 -0.00236063 -4.56206e-09 0 -1.28266e-07 0 3.45306e-08
1 1 0.001 -0.05 0 0 -0.00339053 0 0.0230549 0 1.14427e-32
3 3 0.001 -0.0493333 0 0 0.023219 0 -0.0252058 0 2.34637e-08
4 3 0.001 -0.0486627 0 -1.07255e-05 -1.50629e-08 0 1.26903e-07 0 4.06056e-08
5 3 0.001 -0.0479928 0 -2.63759e-05 4.04331e-09 0 9.72502e-08 0 3.43027e-08
6 3 0.001 -0.047323 0 -4.65653e-05 -3.28031e-08 0 -3.04107e-07 0 3.43377e-08
7 3 0.001 -0.0466533 0 -7.09301e-05 2.83077e-08 0 5.77674e-07 0 3.43673e-08
8 3 0.001 -0.0459838 0 -9.91353e-05 -1.36904e-08 0 -8.67713e-07 0 3.43924e-08
9 3 0.001 -0.0453144 0 -0.000130873 4.37564e-08 0 6.09389e-07 0 3.44137e-08
10 3 0.001 -0.0446452 0 -0.00016586 -2.0264e-08 0 7.97239e-08 0 3.44317e-08
11 3 0.001 -0.0439761 0 -0.000203836 -1.8052e-08 0 -3.99516e-07 0 3.44469e-08
12 3 0.001 -0.0433072 0 -0.00024456 2.88457e-08 0 5.31621e-07 0 3.44598e-08
13 3 0.001 -0.0426385 0 -0.000287812 -4.39221e-08 0 -3.55605e-07 0 3.44707e-08
14 3 0.001 -0.0419699 0 -0.00033339 -5.7189e-08 0 -1.11963e-06 0 3.44799e-08
15 3 0.001 -0.0413015 0 -0.000381108 1.9365e-07 0 2.53001e-06 0 3.44878e-08
16 3 0.001 -0.0406332 0 -0.000430792 -1.20064e-07 0 -1.7775e-06 0 3.44944e-08
17 3 0.001 -0.0399651 0 -0.000482286 -1.53298e-08 0 1.95974e-07 0 3.45e-08
18 3 0.001 -0.0392971 0 -0.000535444 1.35692e-08 0 2.56596e-07 0 3.45047e-08
19 3 0.001 -0.0386292 0 -0.000590133 5.92343e-09 0 -1.51619e-07 0 3.45087e-08
20 3 0.001 -0.0379614 0 -0.00064623 3.6587e-08 0 3.07571e-07 0 3.45122e-08
21 3 0.001 -0.0372937 0 -0.000703623 -6.84974e-08 0 -7.09094e-07 0 3.45151e-08
22 3 0.001 -0.0366262 0 -0.000762207 6.03139e-08 0 1.13616e-06 0 3.45174e-08
