ITEM: TIMESTEP
7400000
ITEM: NUMBER OF ATOMS
151
ITEM: BOX BOUNDS ff ff ff
-5.5000000000000000e-02 5.5000000000000000e-02
-6.0000000000000001e-03 6.0000000000000001e-03
-2.5000000000000001e-02 2.5000000000000001e-02
ITEM: ATOMS id type radius x y z fx fy fz c_bendingE c_stretchingE
149 3 0.001 0.0479999 0 -0.00723457 1.99837e-09 0 6.35586e-08 0 1.05787e-08
150 3 0.001 0.0486662 0 -0.00728968 -4.96462e-09 0 -5.60959e-08 0 1.43171e-08
2 2 0.001 0.05 0 -0.0074 -0.0110017 0 0.000910134 0 9.02774e-09
151 3 0.001 0.0493331 0 -0.00734484 1.40457e-09 0 1.64998e-08 0 1.80555e-08
120 3 0.001 0.0286769 0 -0.00563667 -1.59098e-09 0 -1.99951e-08 0 1.05787e-08
121 3 0.001 0.0293433 0 -0.00569175 1.7682e-09 0 -5.09928e-09 0 1.05787e-08
122 3 0.001 0.0300096 0 -0.00574684 -1.10295e-09 0 7.39448e-09 0 1.05787e-08
123 3 0.001 0.0306759 0 -0.00580192 4.62122e-09 0 5.42379e-08 0 1.05787e-08
124 3 0.001 0.0313422 0 -0.00585701 -5.67116e-09 0 -7.84052e-08 0 1.05787e-08
125 3 0.001 0.0320085 0 -0.0059121 8.69471e-10 0 8.25697e-09 0 1.05787e-08
126 3 0.001 0.0326748 0 -0.00596719 1.1863e-09 0 4.10262e-08 0 1.05787e-08
127 3 0.001 0.0333411 0 -0.00602229 -1.9947e-09 0 -2.00462e-08 0 1.05787e-08
128 3 0.001 0.0340074 0 -0.00607738 4.33751e-09 0 2.66157e-08 0 1.05787e-08
129 3 0.001 0.0346737 0 -0.00613248 -2.73783e-09 0 -5.74637e-08 0 1.05787e-08
130 3 0.001 0.03534 0 -0.00618757 3.37157e-09 0 6.2587e-08 0 1.05787e-08
131 3 0.001 0.0360064 0 -0.00624267 -6.73262e-09 0 -7.05969e-08 0 1.05787e-08
132 3 0.001 0.0366727 0 -0.00629777 4.39534e-09 0 5.13511e-08 0 1.05787e-08
133 3 0.001 0.037339 0 -0.00635287 1.40104e-09 0 2.53012e-08 0 1.05787e-08
134 3 0.001 0.0380053 0 -0.00640797 -6.14612e-09 0 -8.01893e-08 0 1.05787e-08
135 3 0.001 0.0386716 0 -0.00646308 4.45413e-09 0 5.57802e-08 0 1.05787e-08
136 3 0.001 0.0393379 0 -0.00651818 2.21558e-09 0 6.85726e-09 0 1.05787e-08
137 3 0.001 0.0400042 0 -0.00657328 -3.97545e-09 0 -4.23146e-08 0 1.05787e-08
138 3 0.001 0.0406705 0 -0.00662839 -9.43888e-10 0 1.72461e-08 0 1.05787e-08
139 3 0.001 0.0413368 0 -0.0066835 2.90931e-09 0 3.47321e-08 0 1.05787e-08
140 3 0.001 0.0420031 0 -0.0067386 -7.15184e-11 0 -3.79336e-08 0 1.05787e-08
141 3 0.001 0.0426694 0 -0.00679371 -3.88674e-09 0 -1.77397e-08 0 1.05787e-08
142 3 0.001 0.0433357 0 -0.00684881 8.72601e-09 0 8.77299e-08 0 1.05787e-08
143 3 0.001 0.0440021 0 -0.00690392 -9.40394e-09 0 -1.18013e-07 0 1.05787e-08
144 3 0.001 0.0446684 0 -0.00695903 6.14948e-09 0 6.85057e-08 0 1.05787e-08
145 3 0.001 0.0453347 0 -0.00701414 -1.34672e-09 0 1.56338e-08 0 1.05787e-08
148 3 0.001 0.0473336 0 -0.00717947 -8.81664e-10 0 -3.81036e-08 0 1.05787e-08
146 3 0.001 0.046001 0 -0.00706925 -5.99893e-09 0 -5.50169e-08 0 1.05787e-08
147 3 0.001 0.0466673 0 -0.00712436 6.87793e-09 0 4.16277e-08 0 1.05787e-08
91 3 0.001 0.00935379 0 -0.00404119 5.20749e-09 0 8.11343e-08 0 1.05787e-08
92 3 0.001 0.0100201 0 -0.0040961 5.54858e-11 0 -1.88475e-08 0 1.05787e-08
93 3 0.001 0.0106864 0 -0.00415102 8.39361e-10 0 -1.04698e-10 0 1.05787e-08
94 3 0.001 0.0113528 0 -0.00420595 -2.34677e-09 0 -4.19303e-08 0 1.05787e-08
95 3 0.001 0.0120191 0 -0.00426089 2.15671e-09 0 8.3109e-08 0 1.05787e-08
96 3 0.001 0.0126854 0 -0.00431585 -5.69884e-09 0 -7.77017e-08 0 1.05787e-08
97 3 0.001 0.0133517 0 -0.00437081 6.00368e-09 0 3.22494e-08 0 1.05787e-08
98 3 0.001 0.014018 0 -0.00442578 3.43062e-09 0 3.76651e-08 0 1.05787e-08
99 3 0.001 0.0146844 0 -0.00448076 -1.03721e-08 0 -1.0329e-07 0 1.05787e-08
100 3 0.001 0.0153507 0 -0.00453575 9.59167e-09 0 1.07968e-07 0 1.05787e-08
101 3 0.001 0.016017 0 -0.00459075 -7.13073e-09 0 -7.29522e-08 0 1.05787e-08
102 3 0.001 0.0166833 0 -0.00464575 2.52925e-09 0 3.30254e-08 0 1.05787e-08
104 3 0.001 0.0180159 0 -0.00475578 -4.84624e-09 0 -9.76348e-08 0 1.05787e-08
105 3 0.001 0.0186823 0 -0.0048108 2.80337e-09 0 2.71536e-08 0 1.05787e-08
103 3 0.001 0.0173496 0 -0.00470076 2.57528e-09 0 4.66996e-08 0 1.05787e-08
106 3 0.001 0.0193486 0 -0.00486583 4.05527e-09 0 8.24405e-08 0 1.05787e-08
107 3 0.001 0.0200149 0 -0.00492087 -1.05984e-08 0 -1.24804e-07 0 1.05787e-08
108 3 0.001 0.0206812 0 -0.0049759 9.10051e-09 0 8.5937e-08 0 1.05787e-08
109 3 0.001 0.0213475 0 -0.00503095 -1.10156e-09 0 -1.23762e-08 0 1.05787e-08
112 3 0.001 0.0233465 0 -0.0051961 1.31353e-10 0 -1.53448e-08 0 1.05787e-08
110 3 0.001 0.0220138 0 -0.005086 -1.89086e-09 0 -1.5536e-08 0 1.05787e-08
111 3 0.001 0.0226801 0 -0.00514105 -3.86932e-10 0 -5.7528e-09 0 1.05787e-08
113 3 0.001 0.0240128 0 -0.00525116 7.32355e-09 0 1.02265e-07 0 1.05787e-08
114 3 0.001 0.0246791 0 -0.00530623 -1.47027e-08 0 -1.29737e-07 0 1.05787e-08
115 3 0.001 0.0253454 0 -0.00536129 3.36328e-09 0 1.6256e-08 0 1.05787e-08
116 3 0.001 0.0260117 0 -0.00541636 8.79435e-09 0 7.61768e-08 0 1.05787e-08
117 3 0.001 0.026678 0 -0.00547144 -1.02854e-09 0 -2.58289e-08 0 1.05787e-08
118 3 0.001 0.0273443 0 -0.00552651 -4.71952e-09 0 -2.75903e-08 0 1.05787e-08
119 3 0.001 0.0280106 0 -0.00558159 1.6365e-09 0 2.4797e-08 0 1.05787e-08
62 3 0.001 -0.00997057 0 -0.00246034 5.68085e-09 0 3.70222e-08 0 1.05786e-08
63 3 0.001 -0.00930416 0 -0.00251419 -4.74991e-09 0 -4.63686e-08 0 1.05786e-08
64 3 0.001 -0.00863775 0 -0.00256812 2.88448e-09 0 6.19789e-08 0 1.05786e-08
66 3 0.001 -0.00730496 0 -0.0026762 1.03517e-08 0 1.11079e-07 0 1.05786e-08
65 3 0.001 -0.00797135 0 -0.00262213 -7.6736e-09 0 -9.14519e-08 0 1.05786e-08
69 3 0.001 -0.00530581 0 -0.00283877 6.49537e-09 0 1.03074e-07 0 1.05787e-08
67 3 0.001 -0.00663857 0 -0.00273033 -2.14418e-09 0 -4.58079e-08 0 1.05787e-08
68 3 0.001 -0.00597219 0 -0.00278452 -6.64056e-09 0 -8.0129e-08 0 1.05787e-08
71 3 0.001 -0.00397306 0 -0.00294741 -7.00066e-09 0 -9.05515e-08 0 1.05787e-08
70 3 0.001 -0.00463943 0 -0.00289307 4.1183e-10 0 1.78101e-09 0 1.05787e-08
72 3 0.001 -0.0033067 0 -0.00300181 3.69013e-09 0 7.04333e-08 0 1.05787e-08
73 3 0.001 -0.00264033 0 -0.00305624 3.79846e-09 0 4.40539e-09 0 1.05787e-08
74 3 0.001 -0.00197397 0 -0.00311072 2.86807e-10 0 -1.05408e-08 0 1.05787e-08
75 3 0.001 -0.00130762 0 -0.00316524 -3.12432e-09 0 -2.38617e-08 0 1.05787e-08
76 3 0.001 -0.000641262 0 -0.00321979 -5.87611e-09 0 -2.95688e-08 0 1.05787e-08
77 3 0.001 2.50892e-05 0 -0.00327438 9.02915e-09 0 1.13083e-07 0 1.05787e-08
78 3 0.001 0.000691438 0 -0.003329 -4.59947e-09 0 -8.96349e-08 0 1.05787e-08
79 3 0.001 0.00135778 0 -0.00338364 -1.72191e-10 0 -2.30197e-08 0 1.05787e-08
80 3 0.001 0.00202413 0 -0.00343832 6.4915e-09 0 1.10452e-07 0 1.05787e-08
81 3 0.001 0.00269047 0 -0.00349302 -7.55796e-09 0 -1.07791e-07 0 1.05787e-08
82 3 0.001 0.00335681 0 -0.00354775 8.92563e-10 0 1.75985e-08 0 1.05787e-08
83 3 0.001 0.00402315 0 -0.0036025 9.32883e-09 0 1.20387e-07 0 1.05787e-08
84 3 0.001 0.00468948 0 -0.00365727 -1.5723e-08 0 -1.71724e-07 0 1.05787e-08
85 3 0.001 0.00535582 0 -0.00371207 7.19136e-09 0 6.68602e-08 0 1.05787e-08
86 3 0.001 0.00602215 0 -0.00376688 7.16548e-09 0 5.35091e-08 0 1.05787e-08
87 3 0.001 0.00668848 0 -0.00382171 -9.52537e-09 0 -9.06507e-08 0 1.05787e-08
88 3 0.001 0.00735481 0 -0.00387656 3.12784e-09 0 6.6357e-08 0 1.05787e-08
89 3 0.001 0.00802114 0 -0.00393142 3.21757e-09 0 8.69586e-09 0 1.05787e-08
90 3 0.001 0.00868747 0 -0.0039863 -7.68018e-09 0 -8.58135e-08 0 1.05787e-08
30 3 0.001 -0.0313027 0 -0.00082798 -4.831e-09 0 -8.31833e-08 0 1.05765e-08
32 3 0.001 -0.0299688 0 -0.000920455 -4.93717e-09 0 -4.72478e-08 0 1.0577e-08
31 3 0.001 -0.0306357 0 -0.000873942 4.49632e-09 0 3.17624e-08 0 1.05768e-08
35 3 0.001 -0.0279681 0 -0.00106297 2.45977e-09 0 -1.91912e-08 0 1.05775e-08
33 3 0.001 -0.0293018 0 -0.000967485 2.4491e-09 0 4.46788e-08 0 1.05772e-08
34 3 0.001 -0.028635 0 -0.001015 -2.1457e-09 0 -7.47759e-09 0 1.05774e-08
37 3 0.001 -0.0266345 0 -0.00116018 -1.95715e-10 0 2.64171e-08 0 1.05778e-08
36 3 0.001 -0.0273013 0 -0.00111138 9.56704e-10 0 1.22563e-08 0 1.05777e-08
38 3 0.001 -0.0259677 0 -0.00120937 -3.25865e-09 0 -4.16052e-08 0 1.05779e-08
39 3 0.001 -0.025301 0 -0.00125891 1.85892e-09 0 1.88374e-08 0 1.0578e-08
40 3 0.001 -0.0246342 0 -0.00130878 -3.81248e-09 0 -2.29523e-08 0 1.05781e-08
41 3 0.001 -0.0239675 0 -0.00135897 6.73245e-09 0 7.0391e-08 0 1.05781e-08
44 3 0.001 -0.0219676 0 -0.00151125 1.57006e-08 0 2.29317e-07 0 1.05783e-08
42 3 0.001 -0.0233009 0 -0.00140946 -2.63113e-09 0 -4.54413e-08 0 1.05782e-08
43 3 0.001 -0.0226342 0 -0.00146023 -6.50887e-09 0 -1.11406e-07 0 1.05782e-08
45 3 0.001 -0.021301 0 -0.00156253 -1.53448e-08 0 -1.7362e-07 0 1.05783e-08
46 3 0.001 -0.0206344 0 -0.00161403 5.014e-09 0 3.74047e-08 0 1.05784e-08
48 3 0.001 -0.0193012 0 -0.00171768 -1.15247e-08 0 -1.35485e-07 0 1.05784e-08
47 3 0.001 -0.0199678 0 -0.00166575 5.37766e-09 0 6.86518e-08 0 1.05784e-08
49 3 0.001 -0.0186347 0 -0.00176979 1.27113e-08 0 1.56314e-07 0 1.05785e-08
50 3 0.001 -0.0179681 0 -0.00182209 -6.85917e-09 0 -1.07327e-07 0 1.05785e-08
51 3 0.001 -0.0173016 0 -0.00187455 8.65432e-10 0 2.49353e-08 0 1.05785e-08
52 3 0.001 -0.0166351 0 -0.00192718 3.64361e-10 0 3.28219e-08 0 1.05785e-08
53 3 0.001 -0.0159686 0 -0.00197995 -4.01908e-09 0 -4.2575e-08 0 1.05785e-08
54 3 0.001 -0.0153021 0 -0.00203287 5.14324e-09 0 9.85925e-09 0 1.05786e-08
55 3 0.001 -0.0146356 0 -0.00208592 1.93759e-10 0 3.58507e-09 0 1.05786e-08
56 3 0.001 -0.0139692 0 -0.00213909 2.23824e-09 0 4.75541e-08 0 1.05786e-08
57 3 0.001 -0.0133027 0 -0.00219238 -8.32921e-09 0 -8.87008e-08 0 1.05786e-08
58 3 0.001 -0.0126363 0 -0.00224577 3.83188e-09 0 3.36061e-08 0 1.05786e-08
59 3 0.001 -0.0119698 0 -0.00229928 4.88638e-09 0 6.54886e-08 0 1.05786e-08
60 3 0.001 -0.0113034 0 -0.00235287 -6.52119e-09 0 -8.22213e-08 0 1.05786e-08
61 3 0.001 -0.010637 0 -0.00240656 1.67806e-10 0 1.18583e-08 0 1.05786e-08
1 1 0.001 -0.05 0 0 -0.00340217 0 0.0134756 0 1.14427e-32
3 3 0.001 -0.0493333 0 0 0.0144039 0 -0.0143856 0 9.01491e-09
4 3 0.001 -0.0486642 0 -6.25472e-06 2.37605e-09 0 2.72976e-08 0 1.42793e-08
5 3 0.001 -0.0479957 0 -1.5444e-05 -1.09108e-10 0 -2.97439e-08 0 1.05316e-08
6 3 0.001 -0.0473272 0 -2.73965e-05 -2.26963e-10 0 -1.07057e-08 0 1.05371e-08
7 3 0.001 -0.0466588 0 -4.19461e-05 1.59107e-09 0 8.62617e-08 0 1.05419e-08
8 3 0.001 -0.0459904 0 -5.89365e-05 -3.19647e-09 0 -1.04369e-07 0 1.05462e-08
9 3 0.001 -0.0453221 0 -7.82209e-05 -7.37829e-10 0 3.33856e-10 0 1.055e-08
10 3 0.001 -0.0446539 0 -9.96612e-05 3.08602e-09 0 9.84206e-08 0 1.05533e-08
11 3 0.001 -0.0439857 0 -0.000123128 -1.87759e-09 0 -7.16221e-08 0 1.05563e-08
12 3 0.001 -0.0433176 0 -0.000148499 3.23992e-09 0 4.71439e-09 0 1.05589e-08
13 3 0.001 -0.0426496 0 -0.000175659 -2.76121e-09 0 3.26848e-09 0 1.05612e-08
14 3 0.001 -0.0419816 0 -0.000204501 4.9487e-10 0 3.1903e-08 0 1.05632e-08
15 3 0.001 -0.0413137 0 -0.000234924 -3.71958e-09 0 -6.52283e-08 0 1.0565e-08
16 3 0.001 -0.0406459 0 -0.000266832 5.74845e-09 0 8.26426e-08 0 1.05666e-08
17 3 0.001 -0.0399782 0 -0.000300137 -4.00503e-09 0 -9.53716e-08 0 1.0568e-08
18 3 0.001 -0.0393105 0 -0.000334753 5.24826e-09 0 1.16504e-07 0 1.05693e-08
19 3 0.001 -0.0386429 0 -0.000370603 -6.48071e-09 0 -1.1433e-07 0 1.05704e-08
20 3 0.001 -0.0379753 0 -0.000407612 3.62414e-09 0 2.3559e-08 0 1.05713e-08
21 3 0.001 -0.0373078 0 -0.000445709 2.19125e-09 0 9.65239e-08 0 1.05722e-08
22 3 0.001 -0.0366404 0 -0.00048483 -7.19884e-09 0 -1.12252e-07 0 1.05729e-08
23 3 0.001 -0.035973 0 -0.000524913 7.42543e-09 0 7.66899e-08 0 1.05736e-08
24 3 0.001 -0.0353057 0 -0.0005659 -4.27552e-09 0 -9.25459e-08 0 1.05742e-08
25 3 0.001 -0.0346384 0 -0.000607737 3.41565e-09 0 7.18097e-08 0 1.05747e-08
26 3 0.001 -0.0339712 0 -0.000650372 -1.62139e-09 0 1.88795e-08 0 1.05752e-08
27 3 0.001 -0.033304 0 -0.000693758 -1.14633e-09 0 -3.52617e-08 0 1.05756e-08
28 3 0.001 -0.0326369 0 -0.000737849 -3.2652e-09 0 -6.20278e-08 0 1.05759e-08
29 3 0.001 -0.0319698 0 -0.000782603 7.15842e-09 0 1.3048e-07 0 1.05763e-08
