ITEM: TIMESTEP
180000
ITEM: NUMBER OF ATOMS
151
ITEM: BOX BOUNDS ff ff ff
-5.2499999999999998e-02 5.2499999999999998e-02
-6.0000000000000001e-03 6.0000000000000001e-03
-1.4999999999999999e-02 1.4999999999999999e-02
ITEM: ATOMS id type radius x y z fx fy fz c_bendingE c_stretchingE
100 3 0.001 0.0145697 0 -0.000886702 7.33047e-05 0 -1.68172e-06 0 3.6374e-11
101 3 0.001 0.015203 0 -0.000901527 -1.34051e-05 0 6.65426e-06 0 3.96082e-11
102 3 0.001 0.0158362 0 -0.000916412 -7.96789e-05 0 -1.38476e-06 0 3.459e-11
103 3 0.001 0.0164695 0 -0.000931356 6.8094e-05 0 -7.47852e-06 0 3.39543e-11
104 3 0.001 0.0171028 0 -0.000946359 -8.81767e-05 0 5.38883e-06 0 3.29707e-11
105 3 0.001 0.017736 0 -0.00096142 -8.8996e-05 0 -1.18314e-06 0 2.44028e-11
106 3 0.001 0.0183692 0 -0.000976536 0.000214137 0 -6.08058e-06 0 3.11113e-11
107 3 0.001 0.0190025 0 -0.000991707 9.45703e-05 0 9.57388e-06 0 4.77004e-11
108 3 0.001 0.0196358 0 -0.00100693 -0.000111542 0 7.23542e-06 0 4.66941e-11
109 3 0.001 0.0202691 0 -0.00102221 6.44559e-05 0 -1.28752e-05 0 4.36656e-11
110 3 0.001 0.0209023 0 -0.00103754 -8.43193e-05 0 -8.59902e-06 0 4.25739e-11
111 3 0.001 0.0215356 0 -0.00105292 7.26441e-05 0 -1.77472e-06 0 4.18642e-11
112 3 0.001 0.0221689 0 -0.00106835 0.000182668 0 -3.48211e-06 0 5.87731e-11
113 3 0.001 0.0228022 0 -0.00108383 0.000187553 0 -1.85753e-06 0 8.72613e-11
114 3 0.001 0.0234355 0 -0.00109936 -0.000221303 0 1.27414e-05 0 8.46999e-11
115 3 0.001 0.0240688 0 -0.00111492 -0.000252438 0 5.37483e-06 0 5.02546e-11
116 3 0.001 0.024702 0 -0.00113053 -1.78e-05 0 -1.11816e-06 0 3.32831e-11
117 3 0.001 0.0253353 0 -0.00114617 -0.000153643 0 7.13819e-06 0 2.53844e-11
118 3 0.001 0.0259685 0 -0.00116186 -5.01705e-05 0 -5.74095e-06 0 1.65709e-11
119 3 0.001 0.0266017 0 -0.00117758 0.000168622 0 -5.13282e-06 0 2.17772e-11
120 3 0.001 0.0272349 0 -0.00119334 0.000111814 0 9.11395e-06 0 3.4782e-11
121 3 0.001 0.0278682 0 -0.00120913 0.000131546 0 -5.67517e-07 0 4.90712e-11
122 3 0.001 0.0285015 0 -0.00122496 0.000137065 0 -1.00441e-05 0 6.76297e-11
123 3 0.001 0.0291347 0 -0.00124082 -0.000162372 0 -6.32563e-06 0 6.59429e-11
124 3 0.001 0.029768 0 -0.00125672 -2.28806e-05 0 -8.28277e-06 0 5.2542e-11
125 3 0.001 0.0304013 0 -0.00127264 -0.000258262 0 1.63702e-05 0 3.70294e-11
126 3 0.001 0.0310345 0 -0.0012886 -0.000194384 0 1.95239e-05 0 1.60878e-11
129 3 0.001 0.0329341 0 -0.00133661 3.36482e-06 0 4.97852e-06 0 2.78527e-11
127 3 0.001 0.0316677 0 -0.00130457 0.000254138 0 -9.83634e-06 0 1.88257e-11
128 3 0.001 0.0323009 0 -0.00132058 -8.24739e-06 0 -2.29286e-06 0 2.8091e-11
130 3 0.001 0.0335674 0 -0.00135266 0.000126298 0 -1.42481e-07 0 3.47341e-11
131 3 0.001 0.0342006 0 -0.00136874 -2.71275e-05 0 -3.52201e-06 0 3.991e-11
132 3 0.001 0.0348339 0 -0.00138484 -0.000157352 0 -4.22023e-06 0 3.0537e-11
133 3 0.001 0.0354671 0 -0.00140097 0.000135897 0 -8.66621e-06 0 2.93667e-11
134 3 0.001 0.0361003 0 -0.00141712 -3.12469e-05 0 -5.06868e-06 0 3.43637e-11
135 3 0.001 0.0367335 0 -0.0014333 -0.00011864 0 6.09721e-06 0 2.71218e-11
136 3 0.001 0.0373667 0 -0.00144949 0.000254958 0 2.99844e-06 0 3.49497e-11
137 3 0.001 0.038 0 -0.0014657 -1.07156e-05 0 7.50402e-06 0 4.76806e-11
138 3 0.001 0.0386332 0 -0.00148192 0.000197532 0 -4.54803e-06 0 6.09077e-11
139 3 0.001 0.0392665 0 -0.00149815 -0.000120899 0 -4.80658e-06 0 6.59354e-11
140 3 0.001 0.0398998 0 -0.0015144 -0.000135658 0 3.97564e-06 0 4.85021e-11
141 3 0.001 0.040533 0 -0.00153066 0.000248004 0 -4.58406e-06 0 5.67256e-11
142 3 0.001 0.0411663 0 -0.00154694 -4.34431e-05 0 -2.42058e-06 0 7.02006e-11
143 3 0.001 0.0417996 0 -0.00156322 2.75353e-06 0 -7.76367e-07 0 6.71078e-11
144 3 0.001 0.0424329 0 -0.00157951 -1.79081e-05 0 -4.94721e-06 0 6.60029e-11
145 3 0.001 0.0430661 0 -0.00159581 -0.000288448 0 7.47877e-06 0 4.70489e-11
146 3 0.001 0.0436993 0 -0.00161212 -3.85906e-05 0 9.32292e-06 0 2.75561e-11
147 3 0.001 0.0443326 0 -0.00162842 -0.000119304 0 7.98975e-06 0 2.07941e-11
148 3 0.001 0.0449658 0 -0.00164473 -7.29825e-05 0 2.7354e-06 0 1.34588e-11
149 3 0.001 0.0455989 0 -0.00166104 0.000224914 0 -7.43814e-06 0 3.09001e-11
150 3 0.001 0.0462322 0 -0.00167735 4.29211e-05 0 -2.74602e-06 0 9.60455e-10
2 2 0.001 0.0475 0 -0.00171 -0.000565228 0 1.50442e-05 0 9.08408e-10
151 3 0.001 0.0468661 0 -0.00169367 -6.82935e-05 0 4.29407e-06 0 1.84348e-09
1 1 0.001 -0.0475 0 0 -0.00413698 0 0.00133925 0 1.60362e-34
3 3 0.001 -0.0468667 0 0 0.0047254 0 -0.00136964 0 9.2071e-10
4 3 0.001 -0.0462326 0 -5.31536e-07 -0.000113 0 1.11222e-05 0 9.39306e-10
5 3 0.001 -0.0455991 0 -1.32239e-06 5.39451e-05 0 4.91338e-06 0 3.01518e-11
6 3 0.001 -0.0449657 0 -2.3694e-06 7.29063e-05 0 2.43873e-06 0 2.65139e-11
7 3 0.001 -0.0443323 0 -3.66995e-06 -4.34091e-05 0 1.36766e-06 0 2.7837e-11
8 3 0.001 -0.0436988 0 -5.22187e-06 -2.58972e-05 0 2.92766e-06 0 2.45925e-11
9 3 0.001 -0.0430654 0 -7.02335e-06 0.000181648 0 -7.77039e-06 0 3.27736e-11
10 3 0.001 -0.042432 0 -9.07328e-06 5.85808e-05 0 -8.80455e-06 0 4.5717e-11
11 3 0.001 -0.0417985 0 -1.1369e-05 0.000144761 0 3.66222e-06 0 5.9409e-11
12 3 0.001 -0.041165 0 -1.39064e-05 -1.5828e-05 0 5.64752e-06 0 6.83146e-11
13 3 0.001 -0.0405316 0 -1.66819e-05 -0.000284808 0 -4.04645e-06 0 4.92814e-11
14 3 0.001 -0.0398981 0 -1.96933e-05 0.000148478 0 -8.0994e-06 0 3.99111e-11
15 3 0.001 -0.0392647 0 -2.29376e-05 4.60539e-05 0 4.54457e-07 0 5.13823e-11
16 3 0.001 -0.0386312 0 -2.64102e-05 -5.40704e-06 0 7.1426e-06 0 5.4018e-11
17 3 0.001 -0.0379978 0 -3.01067e-05 1.14244e-05 0 -1.45296e-06 0 5.4423e-11
18 3 0.001 -0.0373643 0 -3.40241e-05 -0.000185839 0 -9.68207e-06 0 4.40815e-11
19 3 0.001 -0.0367309 0 -3.81591e-05 9.5881e-05 0 -2.74869e-06 0 3.83531e-11
20 3 0.001 -0.0360974 0 -4.25067e-05 -0.000207726 0 1.25171e-05 0 3.30348e-11
21 3 0.001 -0.035464 0 -4.7061e-05 4.31336e-05 0 6.7397e-06 0 2.42621e-11
22 3 0.001 -0.0348306 0 -5.18188e-05 0.00022535 0 -5.05305e-06 0 3.87573e-11
23 3 0.001 -0.0341972 0 -5.67785e-05 -0.000122833 0 -3.02245e-06 0 4.39586e-11
24 3 0.001 -0.0335638 0 -6.19371e-05 -5.87066e-05 0 -1.13856e-06 0 3.35086e-11
25 3 0.001 -0.0329304 0 -6.72912e-05 7.19494e-05 0 1.25761e-06 0 3.42431e-11
26 3 0.001 -0.0322969 0 -7.28375e-05 -4.42822e-05 0 2.29845e-06 0 3.56584e-11
27 3 0.001 -0.0316635 0 -7.85725e-05 -0.000272977 0 4.05846e-06 0 2.20331e-11
28 3 0.001 -0.0310302 0 -8.44932e-05 0.000145339 0 3.23182e-06 0 1.60177e-11
29 3 0.001 -0.0303968 0 -9.05978e-05 6.49341e-05 0 7.81769e-07 0 2.41163e-11
30 3 0.001 -0.0297634 0 -9.68845e-05 0.000138926 0 -8.0006e-07 0 3.43583e-11
31 3 0.001 -0.02913 0 -0.000103352 0.000280344 0 -9.28931e-07 0 6.13916e-11
32 3 0.001 -0.0284965 0 -0.000110001 -3.47661e-05 0 -3.97637e-06 0 7.82834e-11
33 3 0.001 -0.027863 0 -0.000116828 6.65545e-05 0 -6.32457e-06 0 8.09327e-11
34 3 0.001 -0.0272296 0 -0.000123834 -0.00018144 0 -5.20568e-06 0 7.24203e-11
35 3 0.001 -0.0265961 0 -0.000131014 -0.000222821 0 -9.46768e-07 0 4.50445e-11
36 3 0.001 -0.0259628 0 -0.000138366 -9.72339e-05 0 9.84062e-06 0 2.70397e-11
37 3 0.001 -0.0253294 0 -0.000145884 -0.000101582 0 7.83573e-06 0 1.85101e-11
38 3 0.001 -0.024696 0 -0.000153567 8.2536e-05 0 1.36447e-07 0 1.77015e-11
39 3 0.001 -0.0240627 0 -0.000161413 0.000274688 0 3.60807e-07 0 3.53398e-11
40 3 0.001 -0.0234292 0 -0.00016942 0.000125529 0 -5.72447e-06 0 5.85396e-11
41 3 0.001 -0.0227958 0 -0.00017759 -8.575e-05 0 -7.32916e-06 0 6.11662e-11
42 3 0.001 -0.0221624 0 -0.000185919 4.77356e-05 0 2.79475e-06 0 5.83986e-11
43 3 0.001 -0.021529 0 -0.000194406 -2.66413e-05 0 6.39976e-06 0 5.98298e-11
44 3 0.001 -0.0208956 0 -0.000203048 -0.000199823 0 -1.00772e-07 0 4.57866e-11
45 3 0.001 -0.0202622 0 -0.000211844 -6.77827e-06 0 -4.32992e-06 0 3.32685e-11
46 3 0.001 -0.0196288 0 -0.000220792 0.000176259 0 9.75476e-08 0 4.33795e-11
47 3 0.001 -0.0189954 0 -0.000229893 6.05226e-05 0 3.72449e-06 0 5.80215e-11
48 3 0.001 -0.018362 0 -0.000239142 -5.00191e-05 0 -4.07373e-06 0 5.87254e-11
49 3 0.001 -0.0177286 0 -0.00024854 -6.99503e-05 0 -7.2491e-06 0 5.07377e-11
50 3 0.001 -0.0170952 0 -0.000258084 -8.07197e-05 0 5.01093e-06 0 4.15065e-11
51 3 0.001 -0.0164619 0 -0.000267772 3.8885e-05 0 1.08441e-05 0 3.89816e-11
52 3 0.001 -0.0158285 0 -0.000277602 0.000173213 0 -5.6531e-06 0 5.25096e-11
53 3 0.001 -0.0151951 0 -0.000287572 -0.000165619 0 -7.85686e-06 0 5.29654e-11
54 3 0.001 -0.0145617 0 -0.000297683 1.60002e-05 0 -3.05304e-06 0 4.30429e-11
55 3 0.001 -0.0139283 0 -0.000307931 4.01829e-05 0 1.00162e-06 0 4.6486e-11
56 3 0.001 -0.013295 0 -0.000318313 -0.000173444 0 5.68191e-06 0 3.91891e-11
57 3 0.001 -0.0126616 0 -0.000328826 -0.000135761 0 4.39701e-06 0 2.34789e-11
58 3 0.001 -0.0120283 0 -0.000339468 0.000163637 0 3.27763e-06 0 2.48793e-11
59 3 0.001 -0.011395 0 -0.000350237 0.000105819 0 4.20965e-06 0 3.81169e-11
60 3 0.001 -0.0107616 0 -0.000361134 -0.000200558 0 9.70153e-06 0 3.35959e-11
61 3 0.001 -0.0101283 0 -0.000372156 -0.000192993 0 8.27191e-06 0 1.62616e-11
62 3 0.001 -0.00949498 0 -0.000383307 -0.000110524 0 -8.24444e-06 0 6.79536e-12
63 3 0.001 -0.00886171 0 -0.000394589 -5.31682e-05 0 -1.03462e-05 0 3.3576e-12
64 3 0.001 -0.00822845 0 -0.000406004 0.000182965 0 -8.73532e-07 0 6.4821e-12
65 3 0.001 -0.00759516 0 -0.00041755 0.000152569 0 3.85557e-06 0 1.59209e-11
66 3 0.001 -0.00696185 0 -0.000429226 -3.01526e-05 0 -5.42878e-06 0 2.0137e-11
67 3 0.001 -0.00632855 0 -0.000441033 4.34792e-05 0 -1.19141e-05 0 2.07168e-11
68 3 0.001 -0.00569524 0 -0.00045297 9.73092e-05 0 -7.98866e-06 0 2.71117e-11
69 3 0.001 -0.00506192 0 -0.000465034 0.000120379 0 -4.5201e-06 0 3.84597e-11
70 3 0.001 -0.00442858 0 -0.00047722 -0.000117961 0 6.48588e-06 0 3.85831e-11
71 3 0.001 -0.00379527 0 -0.000489524 -1.33943e-05 0 8.34853e-06 0 3.12617e-11
72 3 0.001 -0.00316196 0 -0.000501943 -2.45257e-05 0 -3.55389e-07 0 2.93682e-11
73 3 0.001 -0.00252865 0 -0.000514473 -7.63209e-05 0 -3.65465e-06 0 2.47281e-11
74 3 0.001 -0.00189536 0 -0.000527113 2.24811e-06 0 -5.18027e-07 0 2.13883e-11
75 3 0.001 -0.00126207 0 -0.00053986 2.78483e-05 0 -9.03686e-07 0 2.26872e-11
76 3 0.001 -0.000628778 0 -0.00055271 -4.5195e-05 0 2.94113e-06 0 2.19681e-11
77 3 0.001 4.50458e-06 0 -0.00056566 -0.000119559 0 3.65934e-06 0 1.57718e-11
78 3 0.001 0.000637765 0 -0.000578707 2.52072e-05 0 3.64595e-07 0 1.23012e-11
79 3 0.001 0.00127103 0 -0.000591848 0.000211876 0 -2.95874e-06 0 2.19203e-11
80 3 0.001 0.00190432 0 -0.000605082 -2.50896e-05 0 2.0696e-06 0 2.94989e-11
81 3 0.001 0.00253761 0 -0.000618405 -0.000119383 0 7.80829e-06 0 2.30802e-11
82 3 0.001 0.00317088 0 -0.000631816 5.72958e-05 0 -9.38477e-07 0 2.02375e-11
83 3 0.001 0.00380416 0 -0.000645313 8.2336e-05 0 -6.53407e-06 0 2.64131e-11
84 3 0.001 0.00443744 0 -0.000658897 7.31392e-05 0 -1.19365e-06 0 3.41252e-11
85 3 0.001 0.00507074 0 -0.000672566 -0.000112261 0 -9.70346e-07 0 3.22369e-11
86 3 0.001 0.00570402 0 -0.000686317 0.000125541 0 -6.24713e-06 0 3.29966e-11
87 3 0.001 0.00633732 0 -0.000700149 -2.66849e-05 0 7.01071e-06 0 3.80169e-11
88 3 0.001 0.00697061 0 -0.000714059 -0.000100299 0 1.0627e-05 0 3.14172e-11
89 3 0.001 0.00760388 0 -0.000728044 1.09929e-05 0 5.74065e-07 0 2.68367e-11
90 3 0.001 0.00823715 0 -0.000742106 -5.24416e-05 0 -4.24002e-06 0 2.49817e-11
91 3 0.001 0.00887041 0 -0.000756243 -0.000161088 0 9.12917e-07 0 1.67244e-11
92 3 0.001 0.00950365 0 -0.000770455 -0.000233412 0 4.66623e-06 0 6.10684e-12
93 3 0.001 0.0101368 0 -0.00078474 0.000260051 0 -4.93067e-06 0 6.93275e-12
94 3 0.001 0.0107701 0 -0.000799099 0.000334406 0 -5.72004e-06 0 2.78376e-11
95 3 0.001 0.0114034 0 -0.00081353 -6.04974e-05 0 -1.22368e-06 0 3.97266e-11
96 3 0.001 0.0120366 0 -0.000828031 -9.92917e-05 0 6.89048e-07 0 3.12453e-11
97 3 0.001 0.0126699 0 -0.0008426 1.98287e-05 0 -4.69128e-06 0 2.71637e-11
98 3 0.001 0.0133032 0 -0.000857237 3.35182e-05 0 1.00665e-06 0 2.97632e-11
99 3 0.001 0.0139364 0 -0.000871938 9.33214e-06 0 4.07166e-06 0 3.18928e-11
