ITEM: TIMESTEP
690000
ITEM: NUMBER OF ATOMS
151
ITEM: BOX BOUNDS ff ff ff
-5.2499999999999998e-02 5.2499999999999998e-02
-6.0000000000000001e-03 6.0000000000000001e-03
-1.4999999999999999e-02 1.4999999999999999e-02
ITEM: ATOMS id type radius x y z fx fy fz c_bendingE c_stretchingE
133 3 0.001 0.035472 0 -0.00561273 6.54656e-06 0 2.77063e-07 0 7.62169e-09
134 3 0.001 0.0361049 0 -0.00566231 -2.06557e-05 0 2.96269e-06 0 7.61035e-09
135 3 0.001 0.0367379 0 -0.00571189 1.75402e-05 0 5.75958e-08 0 7.6077e-09
136 3 0.001 0.0373709 0 -0.00576147 2.78909e-05 0 -1.13298e-06 0 7.6437e-09
137 3 0.001 0.0380039 0 -0.00581105 -1.62492e-05 0 2.19002e-06 0 7.65284e-09
138 3 0.001 0.0386369 0 -0.00586064 1.26566e-05 0 -3.94481e-07 0 7.64988e-09
139 3 0.001 0.0392698 0 -0.00591022 7.71239e-06 0 -1.82992e-06 0 7.66616e-09
140 3 0.001 0.0399028 0 -0.00595981 -3.44944e-05 0 -2.37498e-07 0 7.6451e-09
142 3 0.001 0.0411688 0 -0.00605898 2.3442e-05 0 -1.77483e-06 0 7.64627e-09
143 3 0.001 0.0418018 0 -0.00610857 -2.56937e-06 0 1.21272e-06 0 7.66283e-09
141 3 0.001 0.0405358 0 -0.00600939 6.06431e-06 0 -1.64143e-06 0 7.62271e-09
144 3 0.001 0.0424348 0 -0.00615816 -1.91659e-06 0 2.4932e-06 0 7.65905e-09
145 3 0.001 0.0430677 0 -0.00620775 1.40428e-06 0 1.06286e-06 0 7.65843e-09
146 3 0.001 0.0437007 0 -0.00625734 -1.34404e-06 0 4.23669e-07 0 7.65839e-09
147 3 0.001 0.0443337 0 -0.00630693 -8.44078e-07 0 -6.10399e-07 0 7.65667e-09
148 3 0.001 0.0449667 0 -0.00635652 1.34795e-05 0 -9.37687e-07 0 7.66678e-09
149 3 0.001 0.0455997 0 -0.00640611 1.3613e-05 0 -2.22342e-06 0 7.8338e-09
150 3 0.001 0.0462327 0 -0.00645571 -7.19138e-06 0 -8.29774e-07 0 1.1787e-08
2 2 0.001 0.0475 0 -0.006555 -0.00960082 0 0.000754514 0 7.76356e-09
151 3 0.001 0.0468663 0 -0.00650535 -2.50425e-05 0 1.20049e-06 0 1.55555e-08
102 3 0.001 0.0158493 0 -0.00407799 -7.43644e-06 0 1.46341e-07 0 7.68169e-09
103 3 0.001 0.0164823 0 -0.00412739 -8.56349e-06 0 -1.04999e-07 0 7.669e-09
101 3 0.001 0.0152163 0 -0.00402861 2.38701e-05 0 -3.29289e-06 0 7.66847e-09
104 3 0.001 0.0171153 0 -0.00417679 -2.79762e-06 0 -2.70731e-07 0 7.66002e-09
105 3 0.001 0.0177483 0 -0.00422621 4.22877e-07 0 6.2683e-07 0 7.65811e-09
106 3 0.001 0.0183813 0 -0.00427564 1.56926e-05 0 9.25325e-08 0 7.67085e-09
107 3 0.001 0.0190143 0 -0.00432508 -8.95859e-06 0 2.34478e-06 0 7.67603e-09
108 3 0.001 0.0196473 0 -0.00437453 7.08057e-06 0 1.22033e-06 0 7.67432e-09
109 3 0.001 0.0202803 0 -0.00442398 4.06907e-06 0 5.70545e-07 0 7.68306e-09
110 3 0.001 0.0209133 0 -0.00447344 -1.30664e-05 0 -7.08767e-07 0 7.67594e-09
111 3 0.001 0.0215463 0 -0.00452292 -8.52008e-06 0 -2.51045e-06 0 7.65902e-09
112 3 0.001 0.0221793 0 -0.0045724 5.3427e-07 0 -1.86317e-06 0 7.65297e-09
114 3 0.001 0.0234452 0 -0.00467139 -2.12872e-05 0 2.6525e-06 0 7.63073e-09
113 3 0.001 0.0228123 0 -0.00462189 -3.69548e-06 0 -5.15905e-07 0 7.65062e-09
116 3 0.001 0.0247112 0 -0.0047704 5.97643e-07 0 4.99238e-07 0 7.63173e-09
117 3 0.001 0.0253442 0 -0.00481991 -1.04774e-05 0 2.43496e-06 0 7.62374e-09
115 3 0.001 0.0240782 0 -0.00472089 1.10575e-05 0 -6.12248e-07 0 7.62251e-09
118 3 0.001 0.0259772 0 -0.00486943 -4.0952e-06 0 2.786e-06 0 7.61191e-09
119 3 0.001 0.0266102 0 -0.00491896 1.33314e-05 0 2.38751e-07 0 7.61902e-09
120 3 0.001 0.0272432 0 -0.00496849 1.74078e-05 0 -2.98832e-06 0 7.64351e-09
121 3 0.001 0.0278761 0 -0.00501802 9.80084e-06 0 -3.08069e-06 0 7.66543e-09
122 3 0.001 0.0285091 0 -0.00506756 -2.10829e-05 0 -1.17289e-06 0 7.65677e-09
123 3 0.001 0.0291421 0 -0.00511711 -1.65935e-05 0 9.00522e-07 0 7.62697e-09
124 3 0.001 0.0297751 0 -0.00516665 -3.4632e-06 0 1.62727e-06 0 7.61096e-09
126 3 0.001 0.0310411 0 -0.00526576 2.22686e-05 0 -2.24693e-07 0 7.6212e-09
125 3 0.001 0.0304081 0 -0.00521621 -2.74034e-06 0 1.76396e-06 0 7.60586e-09
129 3 0.001 0.03294 0 -0.00541444 5.21986e-06 0 -1.26529e-06 0 7.67604e-09
128 3 0.001 0.032307 0 -0.00536488 1.47424e-05 0 -3.09595e-07 0 7.66011e-09
127 3 0.001 0.031674 0 -0.00531532 6.15213e-06 0 1.14981e-06 0 7.64361e-09
130 3 0.001 0.033573 0 -0.00546401 -1.20748e-05 0 -2.56453e-06 0 7.67084e-09
131 3 0.001 0.034206 0 -0.00551358 -2.11757e-05 0 -8.58905e-07 0 7.64472e-09
132 3 0.001 0.034839 0 -0.00556315 -7.21727e-06 0 5.96541e-07 0 7.62227e-09
68 3 0.001 -0.00567372 0 -0.00241256 -6.70958e-06 0 2.51729e-06 0 7.67158e-09
69 3 0.001 -0.00504063 0 -0.00246086 6.28073e-06 0 6.60304e-07 0 7.67105e-09
71 3 0.001 -0.00377448 0 -0.00255765 -1.9223e-05 0 5.04294e-07 0 7.69482e-09
72 3 0.001 -0.00314141 0 -0.00260614 -1.56874e-06 0 -1.38305e-06 0 7.67837e-09
70 3 0.001 -0.00440755 0 -0.00250922 2.13007e-05 0 -2.33961e-06 0 7.69306e-09
73 3 0.001 -0.00250834 0 -0.00265469 3.39981e-06 0 -6.34729e-07 0 7.67995e-09
74 3 0.001 -0.00187528 0 -0.0027033 -1.49228e-05 0 1.34348e-06 0 7.67077e-09
75 3 0.001 -0.00124222 0 -0.00275195 -1.20047e-05 0 3.51262e-08 0 7.64935e-09
76 3 0.001 -0.000609172 0 -0.00280065 -2.99482e-06 0 1.71416e-07 0 7.63746e-09
79 3 0.001 0.00128996 0 -0.00294703 2.33868e-06 0 4.93335e-07 0 7.62842e-09
77 3 0.001 2.38745e-05 0 -0.0028494 -2.91477e-08 0 4.45634e-07 0 7.63503e-09
78 3 0.001 0.000656917 0 -0.00289819 -5.16009e-06 0 1.87679e-06 0 7.63079e-09
80 3 0.001 0.00192299 0 -0.0029959 9.5724e-06 0 -1.22656e-06 0 7.63789e-09
81 3 0.001 0.00255603 0 -0.00304481 1.19637e-05 0 -1.65049e-06 0 7.65512e-09
83 3 0.001 0.00382209 0 -0.00314274 6.76941e-06 0 -6.51789e-07 0 7.68039e-09
84 3 0.001 0.00445512 0 -0.00319175 -8.01562e-06 0 -2.89414e-08 0 7.67945e-09
82 3 0.001 0.00318906 0 -0.00309376 6.41128e-06 0 -9.58912e-07 0 7.66984e-09
85 3 0.001 0.00508815 0 -0.00324079 1.00134e-05 0 -2.15197e-06 0 7.68117e-09
86 3 0.001 0.00572118 0 -0.00328987 -3.59502e-06 0 2.82256e-07 0 7.68638e-09
87 3 0.001 0.0063542 0 -0.00333897 -1.14425e-05 0 3.16111e-06 0 7.67424e-09
88 3 0.001 0.00698722 0 -0.00338809 3.52504e-06 0 1.5674e-06 0 7.66767e-09
89 3 0.001 0.00762024 0 -0.00343724 -6.83896e-06 0 2.49084e-06 0 7.6648e-09
90 3 0.001 0.00825326 0 -0.00348641 -2.0151e-05 0 1.75547e-06 0 7.64317e-09
91 3 0.001 0.00888627 0 -0.0035356 -4.04744e-06 0 -1.3559e-06 0 7.624e-09
93 3 0.001 0.0101523 0 -0.00363406 3.35818e-06 0 -2.00652e-06 0 7.61823e-09
92 3 0.001 0.00951928 0 -0.00358482 -3.61553e-06 0 -2.2647e-06 0 7.61817e-09
94 3 0.001 0.0107853 0 -0.00368332 1.11637e-05 0 -1.42475e-06 0 7.62992e-09
95 3 0.001 0.0114183 0 -0.0037326 -9.76972e-06 0 4.4681e-08 0 7.63111e-09
96 3 0.001 0.0120513 0 -0.00378189 3.02074e-05 0 -2.17782e-06 0 7.64743e-09
97 3 0.001 0.0126843 0 -0.00383121 1.58863e-06 0 1.69753e-06 0 7.67264e-09
98 3 0.001 0.0133173 0 -0.00388053 -1.51837e-05 0 3.25515e-06 0 7.66156e-09
100 3 0.001 0.0145833 0 -0.00397924 1.24397e-06 0 -9.91859e-07 0 7.6483e-09
99 3 0.001 0.0139503 0 -0.00392988 -1.25834e-06 0 7.11392e-07 0 7.64829e-09
33 3 0.001 -0.0278383 0 -0.0008147 1.40854e-05 0 -1.28039e-06 0 7.64979e-09
34 3 0.001 -0.0272047 0 -0.000855704 5.89222e-07 0 -1.1212e-06 0 7.66169e-09
35 3 0.001 -0.0265712 0 -0.000897166 -2.31783e-05 0 -8.97467e-07 0 7.64404e-09
36 3 0.001 -0.0259376 0 -0.000939061 -1.186e-05 0 -4.66036e-07 0 7.61649e-09
38 3 0.001 -0.0246707 0 -0.00102406 1.12518e-05 0 2.63282e-07 0 7.63356e-09
39 3 0.001 -0.0240372 0 -0.00106712 -5.60681e-06 0 1.25366e-06 0 7.63803e-09
37 3 0.001 -0.0253041 0 -0.000981367 1.08949e-05 0 -8.01737e-07 0 7.61591e-09
41 3 0.001 -0.0227703 0 -0.00115427 -5.91751e-06 0 1.54692e-06 0 7.64052e-09
40 3 0.001 -0.0234038 0 -0.00111053 7.27294e-06 0 -8.76883e-07 0 7.63941e-09
42 3 0.001 -0.022137 0 -0.00119831 1.65765e-05 0 8.85021e-07 0 7.6489e-09
43 3 0.001 -0.0215036 0 -0.00124266 9.7214e-06 0 -1.57235e-07 0 7.66976e-09
45 3 0.001 -0.0202369 0 -0.00133216 -3.18704e-06 0 -2.04173e-06 0 7.65793e-09
46 3 0.001 -0.0196036 0 -0.00137729 1.26973e-05 0 -2.69613e-06 0 7.66578e-09
44 3 0.001 -0.0208702 0 -0.00128728 -1.0923e-05 0 -8.81267e-07 0 7.66891e-09
47 3 0.001 -0.0189703 0 -0.00142267 2.95286e-06 0 -2.63483e-07 0 7.6784e-09
48 3 0.001 -0.018337 0 -0.00146826 -1.91124e-05 0 2.96962e-06 0 7.66547e-09
50 3 0.001 -0.0170705 0 -0.00156007 3.167e-06 0 1.34862e-06 0 7.64373e-09
49 3 0.001 -0.0177037 0 -0.00151407 -5.45222e-06 0 2.36048e-06 0 7.64573e-09
51 3 0.001 -0.0164372 0 -0.00160626 1.48172e-05 0 -5.12965e-07 0 7.65796e-09
52 3 0.001 -0.015804 0 -0.00165264 5.15865e-06 0 -3.95937e-07 0 7.67388e-09
53 3 0.001 -0.0151708 0 -0.00169918 -1.56117e-05 0 -2.66527e-07 0 7.66565e-09
55 3 0.001 -0.0139044 0 -0.00179274 -5.14264e-06 0 -1.29467e-06 0 7.64061e-09
54 3 0.001 -0.0145376 0 -0.00174588 -5.61132e-06 0 -1.51769e-06 0 7.64895e-09
56 3 0.001 -0.0132712 0 -0.00183974 1.30439e-05 0 -1.29711e-06 0 7.64704e-09
57 3 0.001 -0.012638 0 -0.00188688 -7.75361e-06 0 1.05353e-06 0 7.65125e-09
58 3 0.001 -0.0120049 0 -0.00193415 -7.00976e-06 0 2.48816e-06 0 7.63937e-09
59 3 0.001 -0.0113717 0 -0.00198154 2.1652e-05 0 -2.62404e-07 0 7.65085e-09
60 3 0.001 -0.0107386 0 -0.00202904 -1.64347e-05 0 2.00953e-06 0 7.65488e-09
62 3 0.001 -0.00947233 0 -0.00212437 -7.13015e-06 0 -1.69787e-07 0 7.63425e-09
61 3 0.001 -0.0101055 0 -0.00207666 -1.16488e-06 0 2.78044e-07 0 7.64081e-09
63 3 0.001 -0.00883922 0 -0.00217219 -3.64947e-07 0 -1.40137e-06 0 7.62842e-09
64 3 0.001 -0.00820611 0 -0.00222009 1.50496e-05 0 -3.06113e-06 0 7.64032e-09
65 3 0.001 -0.007573 0 -0.00226809 3.82157e-07 0 -1.27562e-06 0 7.6528e-09
66 3 0.001 -0.0069399 0 -0.00231617 7.77657e-06 0 2.66725e-07 0 7.65933e-09
67 3 0.001 -0.00630681 0 -0.00236433 7.45802e-06 0 2.13142e-06 0 7.67127e-09
1 1 0.001 -0.0475 0 0 -0.00411628 0 0.0126597 0 1.60362e-34
3 3 0.001 -0.0468667 0 0 0.0137311 0 -0.0134072 0 7.78052e-09
4 3 0.001 -0.0462311 0 -5.03633e-06 7.13241e-06 0 -1.31115e-06 0 1.17546e-08
5 3 0.001 -0.0455962 0 -1.24521e-05 1.08046e-05 0 -3.02032e-06 0 7.80827e-09
6 3 0.001 -0.0449613 0 -2.21253e-05 -6.90358e-06 0 -2.02548e-06 0 7.66453e-09
7 3 0.001 -0.0443265 0 -3.39353e-05 -1.91522e-05 0 -4.42653e-07 0 7.64686e-09
8 3 0.001 -0.0436917 0 -4.77675e-05 -6.63966e-06 0 5.66135e-07 0 7.62907e-09
9 3 0.001 -0.043057 0 -6.3513e-05 5.10669e-06 0 8.57205e-07 0 7.63023e-09
10 3 0.001 -0.0424223 0 -8.1069e-05 1.16928e-05 0 7.5982e-09 0 7.64569e-09
11 3 0.001 -0.0417877 0 -0.000100338 -1.81951e-06 0 2.36613e-06 0 7.65539e-09
12 3 0.001 -0.0411531 0 -0.000121229 -2.06002e-05 0 2.03776e-06 0 7.6392e-09
13 3 0.001 -0.0405186 0 -0.000143654 1.05012e-05 0 -1.70374e-07 0 7.63267e-09
14 3 0.001 -0.0398841 0 -0.000167533 -3.6748e-06 0 -1.25607e-06 0 7.6395e-09
15 3 0.001 -0.0392497 0 -0.000192787 -1.24328e-05 0 -2.40096e-06 0 7.62808e-09
16 3 0.001 -0.0386154 0 -0.000219343 2.94075e-05 0 -3.15128e-06 0 7.64285e-09
17 3 0.001 -0.037981 0 -0.000247132 1.37849e-05 0 -2.98942e-07 0 7.67826e-09
18 3 0.001 -0.0373468 0 -0.000276088 -3.47023e-05 0 2.23437e-06 0 7.66249e-09
19 3 0.001 -0.0367126 0 -0.000306146 2.10584e-06 0 3.31185e-07 0 7.63731e-09
20 3 0.001 -0.0360784 0 -0.000337247 5.84093e-06 0 2.48216e-08 0 7.64432e-09
21 3 0.001 -0.0354443 0 -0.000369336 -2.40012e-05 0 3.43298e-06 0 7.63044e-09
22 3 0.001 -0.0348102 0 -0.000402358 1.50109e-05 0 5.5575e-07 0 7.62372e-09
23 3 0.001 -0.0341762 0 -0.000436265 7.57043e-06 0 2.50089e-08 0 7.64209e-09
24 3 0.001 -0.0335423 0 -0.000471008 5.44109e-06 0 -1.87388e-06 0 7.65295e-09
25 3 0.001 -0.0329083 0 -0.000506544 4.45085e-06 0 -3.02876e-06 0 7.66142e-09
26 3 0.001 -0.0322744 0 -0.000542831 4.39466e-06 0 -1.82345e-06 0 7.66904e-09
27 3 0.001 -0.0316406 0 -0.000579828 -1.49303e-05 0 1.55283e-06 0 7.66102e-09
28 3 0.001 -0.0310068 0 -0.000617495 -2.67585e-05 0 3.51985e-06 0 7.62805e-09
29 3 0.001 -0.030373 0 -0.000655797 -2.70715e-06 0 2.84822e-06 0 7.60469e-09
30 3 0.001 -0.0297393 0 -0.0006947 -9.18255e-06 0 1.74972e-06 0 7.59531e-09
31 3 0.001 -0.0291056 0 -0.00073417 1.41514e-05 0 -8.80294e-07 0 7.5994e-09
32 3 0.001 -0.028472 0 -0.00077418 1.73443e-05 0 -1.27965e-06 0 7.6246e-09
