ITEM: TIMESTEP
8400000
ITEM: NUMBER OF ATOMS
151
ITEM: BOX BOUNDS ff ff ff
-5.5000000000000000e-02 5.5000000000000000e-02
-6.0000000000000001e-03 6.0000000000000001e-03
-2.5000000000000001e-02 2.5000000000000001e-02
ITEM: ATOMS id type radius x y z fx fy fz c_bendingE c_stretchingE
132 3 0.001 0.0366733 0 -0.00716593 1.22114e-08 0 4.31561e-08 0 1.74019e-08
133 3 0.001 0.0373396 0 -0.00722762 -2.21245e-09 0 -4.35235e-08 0 1.74019e-08
134 3 0.001 0.0380059 0 -0.00728932 -8.15997e-09 0 -4.82587e-08 0 1.74019e-08
135 3 0.001 0.0386722 0 -0.00735101 3.21328e-10 0 2.47669e-08 0 1.74019e-08
136 3 0.001 0.0393384 0 -0.00741271 1.10364e-08 0 1.1902e-07 0 1.74019e-08
137 3 0.001 0.0400047 0 -0.00747441 -1.17392e-08 0 -1.18311e-07 0 1.74019e-08
138 3 0.001 0.040671 0 -0.00753611 4.27502e-09 0 4.79355e-08 0 1.74019e-08
139 3 0.001 0.0413373 0 -0.0075978 2.89599e-09 0 -2.31521e-08 0 1.74019e-08
140 3 0.001 0.0420035 0 -0.0076595 -1.0655e-09 0 -2.37198e-08 0 1.74019e-08
141 3 0.001 0.0426698 0 -0.0077212 -1.41159e-09 0 3.33422e-08 0 1.74019e-08
142 3 0.001 0.0433361 0 -0.0077829 -1.62072e-09 0 -7.45291e-09 0 1.74019e-08
143 3 0.001 0.0440024 0 -0.0078446 4.28281e-09 0 3.37831e-08 0 1.74019e-08
144 3 0.001 0.0446686 0 -0.0079063 1.66582e-09 0 -4.83912e-09 0 1.74019e-08
145 3 0.001 0.0453349 0 -0.007968 -1.35235e-08 0 -1.38086e-07 0 1.74019e-08
148 3 0.001 0.0473337 0 -0.00815309 -2.17995e-08 0 -2.21385e-07 0 1.74019e-08
146 3 0.001 0.0460012 0 -0.00802969 1.16529e-08 0 1.58676e-07 0 1.74019e-08
147 3 0.001 0.0466675 0 -0.00809139 4.25355e-09 0 4.61997e-08 0 1.74019e-08
149 3 0.001 0.048 0 -0.00821479 1.5525e-08 0 1.71168e-07 0 1.74019e-08
150 3 0.001 0.0486663 0 -0.00827649 2.21307e-09 0 -3.95756e-09 0 2.20437e-08
2 2 0.001 0.05 0 -0.0084 -0.0140984 0 0.00130569 0 1.33428e-08
151 3 0.001 0.0493331 0 -0.00833825 -1.23368e-09 0 -6.66348e-08 0 2.66855e-08
107 3 0.001 0.0200165 0 -0.00562384 -1.6039e-08 0 -1.90783e-07 0 1.74019e-08
108 3 0.001 0.0206827 0 -0.0056855 -1.87366e-09 0 -1.36877e-08 0 1.74019e-08
109 3 0.001 0.021349 0 -0.00574717 1.365e-08 0 1.55305e-07 0 1.74019e-08
112 3 0.001 0.0233478 0 -0.00593218 2.32213e-09 0 -3.03246e-09 0 1.74019e-08
110 3 0.001 0.0220153 0 -0.00580884 -1.56388e-08 0 -1.60548e-07 0 1.74019e-08
111 3 0.001 0.0226816 0 -0.00587051 1.15728e-10 0 3.61655e-08 0 1.74019e-08
113 3 0.001 0.0240141 0 -0.00599386 1.66644e-08 0 1.55191e-07 0 1.74019e-08
114 3 0.001 0.0246804 0 -0.00605554 -1.32309e-08 0 -1.3531e-07 0 1.74019e-08
115 3 0.001 0.0253467 0 -0.00611722 -7.69117e-09 0 -1.00285e-07 0 1.74019e-08
116 3 0.001 0.0260129 0 -0.0061789 1.16669e-08 0 1.08335e-07 0 1.74019e-08
117 3 0.001 0.0266792 0 -0.00624058 3.01758e-09 0 5.82907e-08 0 1.74019e-08
118 3 0.001 0.0273455 0 -0.00630226 -5.28048e-09 0 -1.85413e-08 0 1.74019e-08
120 3 0.001 0.0286781 0 -0.00642563 9.47163e-10 0 -3.13045e-08 0 1.74019e-08
121 3 0.001 0.0293443 0 -0.00648732 1.69739e-08 0 1.97078e-07 0 1.74019e-08
119 3 0.001 0.0280118 0 -0.00636395 -5.14607e-09 0 -7.37417e-08 0 1.74019e-08
122 3 0.001 0.0300106 0 -0.00654901 -2.74679e-08 0 -2.18603e-07 0 1.74019e-08
123 3 0.001 0.0306769 0 -0.00661069 8.41898e-09 0 1.11932e-07 0 1.74019e-08
124 3 0.001 0.0313432 0 -0.00667238 7.62442e-09 0 -2.19859e-08 0 1.74019e-08
125 3 0.001 0.0320094 0 -0.00673407 1.8516e-10 0 -3.83816e-08 0 1.74019e-08
126 3 0.001 0.0326757 0 -0.00679577 6.26124e-09 0 1.10739e-07 0 1.74019e-08
127 3 0.001 0.033342 0 -0.00685746 -1.06371e-08 0 -1.31036e-07 0 1.74019e-08
128 3 0.001 0.0340083 0 -0.00691915 7.01417e-09 0 5.49431e-08 0 1.74019e-08
129 3 0.001 0.0346745 0 -0.00698084 -7.8455e-09 0 -8.00445e-09 0 1.74019e-08
130 3 0.001 0.0353408 0 -0.00704254 -3.93049e-09 0 3.93149e-08 0 1.74019e-08
131 3 0.001 0.0360071 0 -0.00710423 7.21491e-10 0 -3.57277e-08 0 1.74019e-08
81 3 0.001 0.00269308 0 -0.00402242 -1.33986e-10 0 -4.13622e-08 0 1.74019e-08
82 3 0.001 0.00335937 0 -0.0040839 -1.5901e-09 0 -4.92958e-08 0 1.74019e-08
83 3 0.001 0.00402567 0 -0.00414539 8.88553e-09 0 7.98957e-08 0 1.74019e-08
84 3 0.001 0.00469196 0 -0.00420689 1.96732e-09 0 2.75542e-08 0 1.74019e-08
86 3 0.001 0.00602454 0 -0.00432994 -1.08987e-08 0 -8.65673e-08 0 1.74019e-08
87 3 0.001 0.00669083 0 -0.00439148 2.07755e-08 0 2.58003e-07 0 1.74019e-08
85 3 0.001 0.00535825 0 -0.00426841 -8.47305e-09 0 -7.63784e-08 0 1.74019e-08
88 3 0.001 0.00735712 0 -0.00445303 -1.35894e-08 0 -1.6392e-07 0 1.74019e-08
89 3 0.001 0.0080234 0 -0.00451459 1.14901e-09 0 -4.66549e-08 0 1.74019e-08
91 3 0.001 0.00935597 0 -0.00463775 9.66452e-09 0 1.22251e-07 0 1.74019e-08
90 3 0.001 0.00868969 0 -0.00457616 5.09693e-09 0 4.12826e-08 0 1.74019e-08
92 3 0.001 0.0100223 0 -0.00469933 -1.83373e-08 0 -1.761e-07 0 1.74019e-08
93 3 0.001 0.0106885 0 -0.00476093 3.12247e-09 0 3.31613e-08 0 1.74019e-08
94 3 0.001 0.0113548 0 -0.00482253 1.82746e-08 0 1.79207e-07 0 1.74019e-08
95 3 0.001 0.0120211 0 -0.00488414 -2.39285e-08 0 -2.27906e-07 0 1.74019e-08
96 3 0.001 0.0126874 0 -0.00494576 2.05867e-09 0 7.01389e-08 0 1.74019e-08
97 3 0.001 0.0133537 0 -0.00500738 1.58979e-08 0 1.41889e-07 0 1.74019e-08
98 3 0.001 0.01402 0 -0.00506901 -2.13443e-08 0 -2.83406e-07 0 1.74019e-08
99 3 0.001 0.0146862 0 -0.00513064 2.13039e-08 0 2.41052e-07 0 1.74019e-08
100 3 0.001 0.0153525 0 -0.00519228 -5.92656e-09 0 -6.62779e-08 0 1.74019e-08
101 3 0.001 0.0160188 0 -0.00525392 4.07637e-09 0 2.28868e-09 0 1.74019e-08
102 3 0.001 0.0166851 0 -0.00531556 -8.93245e-09 0 -1.05888e-07 0 1.74019e-08
104 3 0.001 0.0180176 0 -0.00543886 -4.4803e-09 0 2.5584e-08 0 1.74019e-08
105 3 0.001 0.0186839 0 -0.00550052 -1.91598e-08 0 -2.07773e-07 0 1.74019e-08
103 3 0.001 0.0173513 0 -0.00537721 8.61332e-09 0 1.33445e-07 0 1.74019e-08
106 3 0.001 0.0193502 0 -0.00556218 3.08563e-08 0 2.86622e-07 0 1.74019e-08
55 3 0.001 -0.0146316 0 -0.0024355 8.15634e-09 0 6.92668e-08 0 1.74018e-08
56 3 0.001 -0.0139652 0 -0.0024958 7.62412e-09 0 1.12632e-07 0 1.74018e-08
57 3 0.001 -0.0132988 0 -0.0025562 -3.26966e-08 0 -3.62223e-07 0 1.74018e-08
58 3 0.001 -0.0126325 0 -0.00261669 2.99337e-08 0 2.75717e-07 0 1.74018e-08
59 3 0.001 -0.0119661 0 -0.00267726 -4.18472e-09 0 -8.92959e-08 0 1.74018e-08
60 3 0.001 -0.0112997 0 -0.0027379 -1.35805e-09 0 5.54625e-08 0 1.74018e-08
62 3 0.001 -0.00996698 0 -0.00285941 -2.4903e-08 0 -2.97648e-07 0 1.74018e-08
61 3 0.001 -0.0106333 0 -0.00279862 9.70961e-10 0 6.50517e-08 0 1.74018e-08
63 3 0.001 -0.00930063 0 -0.00292025 3.66992e-08 0 3.84026e-07 0 1.74018e-08
64 3 0.001 -0.00863428 0 -0.00298116 -2.57606e-08 0 -3.13576e-07 0 1.74019e-08
66 3 0.001 -0.0073016 0 -0.00310312 -3.8922e-09 0 -3.73876e-08 0 1.74019e-08
65 3 0.001 -0.00796794 0 -0.00304211 2.02482e-08 0 2.02577e-07 0 1.74019e-08
69 3 0.001 -0.00530262 0 -0.00328641 -1.61459e-08 0 -1.8873e-07 0 1.74019e-08
67 3 0.001 -0.00663527 0 -0.00316418 -1.74646e-08 0 -1.54491e-07 0 1.74019e-08
68 3 0.001 -0.00596894 0 -0.00322527 2.0004e-08 0 2.3396e-07 0 1.74019e-08
71 3 0.001 -0.00396997 0 -0.0034088 -1.22354e-08 0 -1.15575e-07 0 1.74019e-08
70 3 0.001 -0.00463629 0 -0.00334759 1.42882e-08 0 1.48708e-07 0 1.74019e-08
72 3 0.001 -0.00330366 0 -0.00347005 3.43625e-10 0 2.36176e-08 0 1.74019e-08
73 3 0.001 -0.00263735 0 -0.00353133 8.89769e-09 0 6.22268e-08 0 1.74019e-08
74 3 0.001 -0.00197103 0 -0.00359263 -1.15724e-08 0 -1.38158e-07 0 1.74019e-08
75 3 0.001 -0.00130473 0 -0.00365396 1.69237e-08 0 1.89587e-07 0 1.74019e-08
76 3 0.001 -0.000638421 0 -0.00371532 -5.74413e-09 0 -8.91347e-08 0 1.74019e-08
77 3 0.001 2.78827e-05 0 -0.0037767 -8.45441e-09 0 -1.0519e-07 0 1.74019e-08
78 3 0.001 0.000694184 0 -0.0038381 2.1033e-08 0 2.48416e-07 0 1.74019e-08
79 3 0.001 0.00136048 0 -0.00389952 -2.89995e-08 0 -2.47995e-07 0 1.74019e-08
80 3 0.001 0.00202678 0 -0.00396096 1.13219e-08 0 1.35089e-07 0 1.74019e-08
27 3 0.001 -0.0332984 0 -0.000834286 -1.01256e-08 0 -1.48657e-07 0 1.73977e-08
28 3 0.001 -0.0326313 0 -0.000886019 3.45044e-09 0 6.93363e-08 0 1.73982e-08
30 3 0.001 -0.0312972 0 -0.000991469 -8.70339e-09 0 -1.18607e-07 0 1.73991e-08
29 3 0.001 -0.0319643 0 -0.000938429 1.13185e-09 0 2.82332e-08 0 1.73987e-08
32 3 0.001 -0.0299633 0 -0.00109927 1.90599e-08 0 1.97482e-07 0 1.73998e-08
31 3 0.001 -0.0306303 0 -0.0010451 4.29956e-09 0 2.75246e-08 0 1.73995e-08
35 3 0.001 -0.0279628 0 -0.00126472 2.51992e-08 0 3.15905e-07 0 1.74005e-08
33 3 0.001 -0.0292965 0 -0.00115396 -1.42054e-08 0 -1.51726e-07 0 1.74001e-08
34 3 0.001 -0.0286296 0 -0.00120912 -1.78538e-08 0 -1.87623e-07 0 1.74003e-08
37 3 0.001 -0.0266293 0 -0.00137714 -1.74275e-08 0 -1.77611e-07 0 1.74008e-08
36 3 0.001 -0.027296 0 -0.00132074 -7.75893e-09 0 -6.93627e-08 0 1.74007e-08
38 3 0.001 -0.0259626 0 -0.00143391 1.83951e-08 0 1.50167e-07 0 1.7401e-08
39 3 0.001 -0.0252959 0 -0.001491 8.0079e-09 0 1.43416e-08 0 1.74011e-08
40 3 0.001 -0.0246292 0 -0.00154841 -5.24156e-09 0 -3.81299e-08 0 1.74012e-08
41 3 0.001 -0.0239626 0 -0.00160611 -1.35933e-08 0 -1.19476e-07 0 1.74013e-08
44 3 0.001 -0.0219628 0 -0.00178077 -2.34849e-08 0 -2.34257e-07 0 1.74015e-08
42 3 0.001 -0.023296 0 -0.00166409 1.56404e-08 0 2.03229e-07 0 1.74014e-08
43 3 0.001 -0.0226294 0 -0.00172231 -2.44116e-09 0 -2.09154e-08 0 1.74014e-08
45 3 0.001 -0.0212963 0 -0.00183945 1.85952e-08 0 2.26312e-07 0 1.74015e-08
46 3 0.001 -0.0206298 0 -0.00189833 1.38262e-08 0 8.7568e-08 0 1.74016e-08
48 3 0.001 -0.0192967 0 -0.00201666 8.09946e-09 0 1.58813e-07 0 1.74017e-08
47 3 0.001 -0.0199632 0 -0.00195741 -2.50203e-08 0 -3.2671e-07 0 1.74016e-08
49 3 0.001 -0.0186303 0 -0.00207608 6.83453e-09 0 1.20203e-07 0 1.74017e-08
50 3 0.001 -0.0179638 0 -0.00213565 -1.24133e-08 0 -2.0074e-07 0 1.74017e-08
51 3 0.001 -0.0172973 0 -0.00219537 2.67697e-08 0 2.3971e-07 0 1.74017e-08
52 3 0.001 -0.0166309 0 -0.00225522 -2.03333e-08 0 -2.00038e-07 0 1.74018e-08
53 3 0.001 -0.0159645 0 -0.0023152 -3.8867e-09 0 1.98001e-08 0 1.74018e-08
54 3 0.001 -0.015298 0 -0.0023753 1.24408e-09 0 8.95647e-09 0 1.74018e-08
1 1 0.001 -0.05 0 0 -0.00339808 0 0.0168891 0 1.14427e-32
3 3 0.001 -0.0493333 0 0 0.0174965 0 -0.0181945 0 1.33085e-08
4 3 0.001 -0.0486637 0 -7.84539e-06 2.23602e-09 0 -2.59202e-08 0 2.19604e-08
5 3 0.001 -0.0479947 0 -1.93413e-05 -6.34176e-09 0 -1.44478e-07 0 1.73102e-08
6 3 0.001 -0.0473257 0 -3.42464e-05 1.42625e-09 0 2.24862e-07 0 1.73222e-08
7 3 0.001 -0.0466568 0 -5.23292e-05 4.56524e-09 0 1.94534e-08 0 1.73326e-08
8 3 0.001 -0.045988 0 -7.33741e-05 -5.6159e-10 0 -2.46306e-07 0 1.73417e-08
9 3 0.001 -0.0453193 0 -9.71799e-05 6.86204e-09 0 2.21404e-07 0 1.73496e-08
10 3 0.001 -0.0446507 0 -0.000123559 -1.47482e-08 0 -1.09576e-07 0 1.73564e-08
11 3 0.001 -0.0439822 0 -0.000152337 -3.97519e-09 0 -5.86745e-08 0 1.73623e-08
12 3 0.001 -0.0433138 0 -0.00018335 1.90071e-08 0 2.91816e-07 0 1.73675e-08
13 3 0.001 -0.0426455 0 -0.000216447 -1.82213e-08 0 -3.84925e-07 0 1.7372e-08
14 3 0.001 -0.0419773 0 -0.000251486 1.34613e-08 0 2.32481e-07 0 1.73759e-08
15 3 0.001 -0.0413092 0 -0.000288335 4.76862e-09 0 -3.06745e-09 0 1.73793e-08
16 3 0.001 -0.0406412 0 -0.000326871 -6.67607e-09 0 -1.0747e-07 0 1.73823e-08
17 3 0.001 -0.0399733 0 -0.00036698 -3.20601e-09 0 2.22098e-08 0 1.73849e-08
18 3 0.001 -0.0393055 0 -0.000408554 7.01911e-09 0 1.88811e-07 0 1.73871e-08
19 3 0.001 -0.0386377 0 -0.000451495 -2.07513e-08 0 -3.13219e-07 0 1.7389e-08
20 3 0.001 -0.03797 0 -0.000495709 1.6395e-08 0 1.95912e-07 0 1.73907e-08
21 3 0.001 -0.0373025 0 -0.000541109 5.55535e-09 0 9.33265e-08 0 1.73922e-08
22 3 0.001 -0.036635 0 -0.000587616 -1.78404e-08 0 -2.76462e-07 0 1.73934e-08
23 3 0.001 -0.0359675 0 -0.000635154 1.50051e-08 0 1.79994e-07 0 1.73945e-08
24 3 0.001 -0.0353002 0 -0.000683653 -2.75297e-10 0 1.78206e-08 0 1.73955e-08
25 3 0.001 -0.0346329 0 -0.000733048 -1.20674e-08 0 -1.46079e-07 0 1.73963e-08
26 3 0.001 -0.0339656 0 -0.000783278 1.54874e-08 0 1.91766e-07 0 1.73971e-08
