ITEM: TIMESTEP
3400000
ITEM: NUMBER OF ATOMS
151
ITEM: BOX BOUNDS ff ff ff
-5.5000000000000000e-02 5.5000000000000000e-02
-6.0000000000000001e-03 6.0000000000000001e-03
-2.5000000000000001e-02 2.5000000000000001e-02
ITEM: ATOMS id type radius x y z fx fy fz c_bendingE c_stretchingE
124 3 0.001 0.0313376 0 -0.00260136 -1.91107e-11 0 -8.96624e-10 0 4.97769e-10
125 3 0.001 0.0320041 0 -0.00262971 -3.54765e-11 0 -7.60924e-10 0 4.97769e-10
126 3 0.001 0.0326705 0 -0.00265808 -4.06415e-11 0 -6.06255e-10 0 4.97769e-10
127 3 0.001 0.033337 0 -0.00268647 1.29354e-10 0 3.18063e-09 0 4.97769e-10
128 3 0.001 0.0340035 0 -0.00271488 -1.8973e-12 0 2.86918e-11 0 4.97769e-10
129 3 0.001 0.03467 0 -0.0027433 -1.68838e-10 0 -3.63621e-09 0 4.97769e-10
130 3 0.001 0.0353365 0 -0.00277174 1.12577e-10 0 2.66667e-09 0 4.97769e-10
131 3 0.001 0.0360029 0 -0.0028002 -1.37678e-10 0 -3.91751e-09 0 4.97769e-10
132 3 0.001 0.0366694 0 -0.00282866 2.56777e-10 0 5.04682e-09 0 4.97769e-10
133 3 0.001 0.0373359 0 -0.00285715 -3.65809e-11 0 -7.10324e-10 0 4.97769e-10
134 3 0.001 0.0380024 0 -0.00288564 -1.21099e-10 0 -2.89935e-09 0 4.9777e-10
135 3 0.001 0.0386688 0 -0.00291415 8.08215e-11 0 1.92067e-09 0 4.9777e-10
136 3 0.001 0.0393353 0 -0.00294267 -7.64799e-11 0 -1.10862e-09 0 4.9777e-10
137 3 0.001 0.0400018 0 -0.0029712 1.66602e-10 0 3.73352e-09 0 4.9777e-10
138 3 0.001 0.0406682 0 -0.00299973 -1.73096e-10 0 -6.3035e-09 0 4.9777e-10
139 3 0.001 0.0413347 0 -0.00302828 5.09984e-11 0 4.18511e-09 0 4.9777e-10
140 3 0.001 0.0420012 0 -0.00305684 3.02287e-11 0 9.31248e-10 0 4.9777e-10
141 3 0.001 0.0426677 0 -0.0030854 -1.74552e-10 0 -3.732e-09 0 4.9777e-10
142 3 0.001 0.0433341 0 -0.00311398 8.36384e-11 0 3.49572e-09 0 4.9777e-10
143 3 0.001 0.0440006 0 -0.00314256 -9.88562e-12 0 -3.31366e-09 0 4.9777e-10
144 3 0.001 0.0446671 0 -0.00317114 1.21349e-10 0 2.74762e-09 0 4.9777e-10
145 3 0.001 0.0453335 0 -0.00319973 -4.20244e-11 0 -7.92963e-10 0 4.9777e-10
146 3 0.001 0.046 0 -0.00322832 -1.47748e-11 0 -1.00343e-09 0 4.9777e-10
147 3 0.001 0.0466665 0 -0.00325692 1.26068e-11 0 1.38693e-09 0 4.9777e-10
148 3 0.001 0.0473329 0 -0.00328552 -5.60846e-11 0 -1.05632e-09 0 4.9777e-10
149 3 0.001 0.0479994 0 -0.00331413 1.3348e-10 0 3.41505e-09 0 4.9777e-10
150 3 0.001 0.0486659 0 -0.00334273 -2.14643e-10 0 -5.76252e-09 0 1.7092e-09
2 2 0.001 0.05 0 -0.0034 -0.00239232 0 0.000105493 0 1.46031e-09
151 3 0.001 0.0493329 0 -0.00337137 7.07924e-11 0 3.35624e-09 0 2.92063e-09
61 3 0.001 -0.0106545 0 -0.000909703 -2.25185e-10 0 -7.00305e-09 0 4.97737e-10
62 3 0.001 -0.00998782 0 -0.000933829 3.02205e-10 0 1.07875e-08 0 4.97739e-10
63 3 0.001 -0.00932118 0 -0.000958103 -2.24252e-10 0 -8.16971e-09 0 4.9774e-10
64 3 0.001 -0.00865455 0 -0.000982519 4.52333e-11 0 2.22771e-09 0 4.97742e-10
65 3 0.001 -0.00798792 0 -0.00100707 9.85358e-11 0 2.57089e-09 0 4.97744e-10
66 3 0.001 -0.00732129 0 -0.00103176 -7.467e-11 0 -3.56342e-09 0 4.97745e-10
69 3 0.001 -0.00532145 0 -0.00110661 -7.22685e-11 0 -1.07566e-09 0 4.97749e-10
67 3 0.001 -0.00665467 0 -0.00105659 2.16215e-11 0 1.5685e-09 0 4.97746e-10
68 3 0.001 -0.00598806 0 -0.00108153 -3.04511e-12 0 4.15811e-10 0 4.97747e-10
70 3 0.001 -0.00465484 0 -0.0011318 9.6686e-11 0 9.38836e-10 0 4.9775e-10
71 3 0.001 -0.00398824 0 -0.00115711 -9.15661e-11 0 -1.16614e-09 0 4.97751e-10
72 3 0.001 -0.00332164 0 -0.00118253 1.26129e-10 0 2.58468e-09 0 4.97752e-10
73 3 0.001 -0.00265505 0 -0.00120806 -5.50901e-11 0 -3.15644e-09 0 4.97753e-10
74 3 0.001 -0.00198846 0 -0.0012337 -3.72636e-11 0 6.61565e-10 0 4.97754e-10
75 3 0.001 -0.00132187 0 -0.00125944 1.88169e-10 0 3.15531e-09 0 4.97755e-10
76 3 0.001 -0.000655289 0 -0.00128529 -2.37983e-10 0 -5.36204e-09 0 4.97755e-10
77 3 0.001 1.12889e-05 0 -0.00131123 8.5092e-11 0 2.88812e-09 0 4.97756e-10
78 3 0.001 0.000677863 0 -0.00133726 1.0469e-10 0 3.43128e-09 0 4.97757e-10
79 3 0.001 0.00134443 0 -0.00136339 -2.46371e-10 0 -7.43673e-09 0 4.97757e-10
80 3 0.001 0.002011 0 -0.00138961 3.35041e-10 0 6.12422e-09 0 4.97758e-10
81 3 0.001 0.00267756 0 -0.00141591 -2.6508e-10 0 -3.04355e-09 0 4.97759e-10
82 3 0.001 0.00334412 0 -0.0014423 1.76692e-10 0 2.65073e-09 0 4.97759e-10
83 3 0.001 0.00401068 0 -0.00146877 -1.32694e-10 0 -3.70285e-09 0 4.9776e-10
84 3 0.001 0.00467724 0 -0.00149532 -1.52218e-10 0 -9.27306e-10 0 4.9776e-10
85 3 0.001 0.00534379 0 -0.00152195 3.97053e-10 0 7.31505e-09 0 4.97761e-10
86 3 0.001 0.00601033 0 -0.00154865 -2.44956e-10 0 -4.45051e-09 0 4.97761e-10
87 3 0.001 0.00667688 0 -0.00157542 -4.38843e-12 0 2.10215e-10 0 4.97762e-10
88 3 0.001 0.00734342 0 -0.00160227 -1.65408e-10 0 -4.22818e-09 0 4.97762e-10
89 3 0.001 0.00800996 0 -0.00162918 2.5947e-10 0 6.79985e-09 0 4.97763e-10
90 3 0.001 0.0086765 0 -0.00165616 -5.47064e-11 0 -1.21421e-09 0 4.97763e-10
91 3 0.001 0.00934303 0 -0.0016832 -2.51998e-10 0 -7.02092e-09 0 4.97763e-10
92 3 0.001 0.0100096 0 -0.00171031 4.9761e-10 0 1.10997e-08 0 4.97764e-10
93 3 0.001 0.0106761 0 -0.00173748 -4.32936e-10 0 -8.72927e-09 0 4.97764e-10
94 3 0.001 0.0113426 0 -0.0017647 1.35999e-10 0 2.55146e-09 0 4.97764e-10
95 3 0.001 0.0120091 0 -0.00179198 1.68758e-10 0 2.26754e-09 0 4.97765e-10
96 3 0.001 0.0126757 0 -0.00181932 -1.07667e-10 0 -2.94352e-09 0 4.97765e-10
97 3 0.001 0.0133422 0 -0.00184671 1.35336e-10 0 3.09758e-09 0 4.97765e-10
98 3 0.001 0.0140087 0 -0.00187415 -2.43748e-10 0 -4.46456e-09 0 4.97765e-10
99 3 0.001 0.0146752 0 -0.00190165 8.27764e-11 0 1.94885e-09 0 4.97766e-10
100 3 0.001 0.0153417 0 -0.00192919 9.68924e-11 0 2.71621e-09 0 4.97766e-10
101 3 0.001 0.0160082 0 -0.00195678 -8.50736e-11 0 -2.92059e-09 0 4.97766e-10
102 3 0.001 0.0166748 0 -0.00198441 2.57545e-11 0 7.06414e-10 0 4.97766e-10
103 3 0.001 0.0173413 0 -0.00201209 -1.37596e-10 0 -9.61936e-10 0 4.97766e-10
104 3 0.001 0.0180078 0 -0.00203981 8.63493e-11 0 4.58247e-10 0 4.97766e-10
105 3 0.001 0.0186743 0 -0.00206757 4.78344e-11 0 2.66834e-09 0 4.97767e-10
106 3 0.001 0.0193408 0 -0.00209538 -2.44149e-11 0 -5.66748e-10 0 4.97767e-10
107 3 0.001 0.0200073 0 -0.00212322 -1.67399e-10 0 -6.66145e-09 0 4.97767e-10
108 3 0.001 0.0206738 0 -0.0021511 2.8978e-10 0 9.56038e-09 0 4.97767e-10
109 3 0.001 0.0213403 0 -0.00217902 -2.58202e-10 0 -7.2273e-09 0 4.97767e-10
110 3 0.001 0.0220068 0 -0.00220697 1.48762e-10 0 1.98206e-09 0 4.97767e-10
111 3 0.001 0.0226733 0 -0.00223495 1.52745e-11 0 1.76489e-09 0 4.97768e-10
112 3 0.001 0.0233398 0 -0.00226297 -1.98082e-11 0 1.55687e-09 0 4.97768e-10
113 3 0.001 0.0240063 0 -0.00229102 -2.73895e-10 0 -7.55636e-09 0 4.97768e-10
114 3 0.001 0.0246727 0 -0.0023191 3.55045e-10 0 8.36721e-09 0 4.97768e-10
115 3 0.001 0.0253392 0 -0.00234721 -1.51215e-10 0 -2.76458e-09 0 4.97768e-10
116 3 0.001 0.0260057 0 -0.00237535 -1.47014e-11 0 -2.29126e-09 0 4.97768e-10
117 3 0.001 0.0266722 0 -0.00240351 4.89201e-12 0 1.94274e-09 0 4.97768e-10
118 3 0.001 0.0273387 0 -0.00243171 -4.88167e-11 0 -1.79456e-09 0 4.97768e-10
119 3 0.001 0.0280052 0 -0.00245992 3.11901e-10 0 5.1784e-09 0 4.97768e-10
120 3 0.001 0.0286717 0 -0.00248817 -4.36816e-10 0 -8.43186e-09 0 4.97769e-10
121 3 0.001 0.0293381 0 -0.00251643 3.99723e-10 0 8.96142e-09 0 4.97769e-10
122 3 0.001 0.0300046 0 -0.00254472 -2.60719e-10 0 -6.62307e-09 0 4.97769e-10
123 3 0.001 0.0306711 0 -0.00257303 1.24896e-10 0 3.25227e-09 0 4.97769e-10
1 1 0.001 -0.05 0 0 -0.00341358 0 0.00350313 0 1.14427e-32
3 3 0.001 -0.0493333 0 0 0.0058059 0 -0.00360849 0 1.46317e-09
4 3 0.001 -0.0486657 0 -1.62235e-06 -6.7986e-11 0 -5.99124e-10 0 1.71165e-09
5 3 0.001 -0.0479986 0 -4.03158e-06 1.38248e-10 0 8.63165e-10 0 4.96979e-10
6 3 0.001 -0.0473315 0 -7.20672e-06 -2.31818e-11 0 -5.18551e-10 0 4.97023e-10
7 3 0.001 -0.0466644 0 -1.1126e-05 -1.25483e-11 0 -5.36127e-10 0 4.97065e-10
8 3 0.001 -0.0459974 0 -1.57682e-05 2.60031e-11 0 1.3419e-09 0 4.97104e-10
9 3 0.001 -0.0453303 0 -2.11128e-05 -2.78205e-11 0 -1.1736e-09 0 4.97141e-10
10 3 0.001 -0.0446633 0 -2.71398e-05 1.30496e-12 0 5.27602e-10 0 4.97176e-10
11 3 0.001 -0.0439962 0 -3.38299e-05 -3.66057e-11 0 1.46666e-09 0 4.9721e-10
12 3 0.001 -0.0433292 0 -4.1164e-05 -5.02231e-11 0 -3.17883e-09 0 4.97241e-10
13 3 0.001 -0.0426621 0 -4.9124e-05 -5.18173e-11 0 2.5757e-10 0 4.9727e-10
14 3 0.001 -0.0419951 0 -5.7692e-05 1.65123e-10 0 5.7519e-09 0 4.97298e-10
15 3 0.001 -0.0413281 0 -6.68508e-05 -5.0879e-11 0 -8.93551e-09 0 4.97325e-10
16 3 0.001 -0.0406611 0 -7.65834e-05 1.11661e-10 0 7.78913e-09 0 4.97349e-10
17 3 0.001 -0.0399941 0 -8.68736e-05 -3.32049e-12 0 -2.81198e-09 0 4.97373e-10
18 3 0.001 -0.0393271 0 -9.77055e-05 -1.58465e-10 0 -5.23174e-09 0 4.97395e-10
19 3 0.001 -0.0386601 0 -0.000109064 1.7622e-10 0 9.5449e-09 0 4.97416e-10
20 3 0.001 -0.0379931 0 -0.000120933 -1.21595e-10 0 -6.10366e-09 0 4.97436e-10
21 3 0.001 -0.0373261 0 -0.000133299 4.03477e-11 0 6.41742e-10 0 4.97454e-10
22 3 0.001 -0.0366592 0 -0.000146148 8.5472e-11 0 2.81508e-09 0 4.97472e-10
23 3 0.001 -0.0359922 0 -0.000159466 -1.75275e-10 0 -5.03763e-09 0 4.97488e-10
24 3 0.001 -0.0353253 0 -0.000173239 8.07079e-11 0 2.85415e-09 0 4.97504e-10
25 3 0.001 -0.0346584 0 -0.000187455 5.52572e-11 0 3.71311e-09 0 4.97519e-10
26 3 0.001 -0.0339914 0 -0.000202101 -2.04321e-10 0 -7.26182e-09 0 4.97533e-10
27 3 0.001 -0.0333245 0 -0.000217165 1.96483e-10 0 5.33175e-09 0 4.97546e-10
28 3 0.001 -0.0326576 0 -0.000232634 -4.7549e-11 0 -2.37688e-10 0 4.97558e-10
29 3 0.001 -0.0319907 0 -0.000248498 -1.10542e-10 0 -3.8246e-09 0 4.9757e-10
30 3 0.001 -0.0313239 0 -0.000264745 1.95375e-10 0 4.05467e-09 0 4.97581e-10
31 3 0.001 -0.030657 0 -0.000281364 -1.54259e-10 0 -3.90959e-09 0 4.97592e-10
32 3 0.001 -0.0299901 0 -0.000298344 3.01878e-11 0 2.87754e-09 0 4.97602e-10
33 3 0.001 -0.0293233 0 -0.000315676 1.15453e-10 0 9.09256e-10 0 4.97611e-10
34 3 0.001 -0.0286564 0 -0.000333349 -1.12288e-10 0 -3.2659e-09 0 4.9762e-10
35 3 0.001 -0.0279896 0 -0.000351353 -4.78329e-11 0 8.82543e-10 0 4.97628e-10
36 3 0.001 -0.0273227 0 -0.00036968 1.87032e-10 0 4.85932e-09 0 4.97636e-10
37 3 0.001 -0.0266559 0 -0.000388319 -2.88427e-10 0 -7.9757e-09 0 4.97643e-10
38 3 0.001 -0.0259891 0 -0.000407262 1.68828e-10 0 4.91381e-09 0 4.9765e-10
39 3 0.001 -0.0253223 0 -0.000426501 3.50904e-11 0 -1.13838e-09 0 4.97657e-10
40 3 0.001 -0.0246555 0 -0.000446027 -4.5264e-11 0 1.37797e-09 0 4.97663e-10
41 3 0.001 -0.0239887 0 -0.000465831 -3.07828e-11 0 -2.45734e-09 0 4.97669e-10
42 3 0.001 -0.0233219 0 -0.000485906 2.54233e-11 0 6.2965e-10 0 4.97675e-10
43 3 0.001 -0.0226552 0 -0.000506244 2.95449e-11 0 1.79392e-09 0 4.9768e-10
44 3 0.001 -0.0219884 0 -0.000526838 -7.44622e-11 0 -3.1087e-09 0 4.97685e-10
45 3 0.001 -0.0213216 0 -0.00054768 1.51811e-10 0 5.42069e-09 0 4.97689e-10
46 3 0.001 -0.0206549 0 -0.000568763 -1.94675e-10 0 -6.83269e-09 0 4.97694e-10
47 3 0.001 -0.0199881 0 -0.00059008 1.84204e-11 0 3.35432e-09 0 4.97698e-10
48 3 0.001 -0.0193214 0 -0.000611625 1.22789e-10 0 1.33016e-09 0 4.97702e-10
49 3 0.001 -0.0186547 0 -0.000633392 -5.60932e-12 0 -2.28758e-09 0 4.97706e-10
50 3 0.001 -0.017988 0 -0.000655373 -7.84417e-11 0 5.36519e-10 0 4.97709e-10
51 3 0.001 -0.0173213 0 -0.000677562 1.06939e-10 0 2.2892e-09 0 4.97713e-10
52 3 0.001 -0.0166545 0 -0.000699954 -1.35122e-10 0 -4.73167e-09 0 4.97716e-10
53 3 0.001 -0.0159878 0 -0.000722544 7.93919e-11 0 3.05123e-09 0 4.97719e-10
54 3 0.001 -0.0153212 0 -0.000745324 -4.71413e-12 0 3.20067e-10 0 4.97721e-10
55 3 0.001 -0.0146545 0 -0.00076829 7.68038e-11 0 1.82549e-09 0 4.97724e-10
56 3 0.001 -0.0139878 0 -0.000791437 -1.75822e-10 0 -5.77646e-09 0 4.97727e-10
57 3 0.001 -0.0133211 0 -0.000814759 2.61378e-10 0 5.13847e-09 0 4.97729e-10
58 3 0.001 -0.0126544 0 -0.000838252 -1.08606e-10 0 -5.04603e-09 0 4.97731e-10
59 3 0.001 -0.0119878 0 -0.00086191 4.60933e-11 0 5.99454e-09 0 4.97733e-10
60 3 0.001 -0.0113211 0 -0.000885728 -2.58733e-11 0 -1.20669e-09 0 4.97735e-10
