ITEM: TIMESTEP
3700000
ITEM: NUMBER OF ATOMS
151
ITEM: BOX BOUNDS ff ff ff
-5.5000000000000000e-02 5.5000000000000000e-02
-6.0000000000000001e-03 6.0000000000000001e-03
-2.5000000000000001e-02 2.5000000000000001e-02
ITEM: ATOMS id type radius x y z fx fy fz c_bendingE c_stretchingE
110 3 0.001 0.0220074 0 -0.0024197 3.54199e-10 0 1.95204e-09 0 6.9537e-10
111 3 0.001 0.0226739 0 -0.00244982 -1.28128e-10 0 -1.2953e-09 0 6.9537e-10
112 3 0.001 0.0233404 0 -0.00247996 -6.25588e-11 0 5.66407e-10 0 6.9537e-10
113 3 0.001 0.0240069 0 -0.00251013 1.08462e-10 0 5.65522e-10 0 6.9537e-10
114 3 0.001 0.0246733 0 -0.00254032 -2.72406e-10 0 -3.32061e-09 0 6.9537e-10
115 3 0.001 0.0253398 0 -0.00257055 4.44448e-10 0 5.68598e-09 0 6.95371e-10
116 3 0.001 0.0260063 0 -0.0026008 -2.07952e-10 0 -4.31546e-09 0 6.95371e-10
117 3 0.001 0.0266728 0 -0.00263107 -1.58471e-10 0 1.59565e-09 0 6.95371e-10
118 3 0.001 0.0273392 0 -0.00266137 1.73615e-10 0 -8.75652e-10 0 6.95371e-10
119 3 0.001 0.0280057 0 -0.00269169 -3.45489e-11 0 -8.51806e-10 0 6.95371e-10
120 3 0.001 0.0286722 0 -0.00272203 1.5422e-11 0 3.27559e-09 0 6.95371e-10
121 3 0.001 0.0293386 0 -0.00275239 3.87417e-11 0 -1.92627e-09 0 6.95371e-10
122 3 0.001 0.0300051 0 -0.00278277 -9.75625e-11 0 2.44113e-10 0 6.95371e-10
123 3 0.001 0.0306716 0 -0.00281317 -4.10752e-11 0 -1.71701e-09 0 6.95371e-10
124 3 0.001 0.031338 0 -0.00284359 2.20775e-10 0 7.17294e-10 0 6.95371e-10
125 3 0.001 0.0320045 0 -0.00287402 5.70816e-11 0 6.0904e-09 0 6.95371e-10
126 3 0.001 0.032671 0 -0.00290448 -5.8965e-10 0 -1.27477e-08 0 6.95372e-10
127 3 0.001 0.0333374 0 -0.00293495 5.45063e-10 0 1.00212e-08 0 6.95372e-10
128 3 0.001 0.0340039 0 -0.00296543 -1.42605e-10 0 -9.77094e-10 0 6.95372e-10
129 3 0.001 0.0346703 0 -0.00299593 9.09153e-11 0 -1.26782e-09 0 6.95372e-10
130 3 0.001 0.0353368 0 -0.00302644 -1.28393e-10 0 -6.30906e-10 0 6.95372e-10
131 3 0.001 0.0360033 0 -0.00305697 -1.57657e-10 0 -1.45067e-09 0 6.95372e-10
132 3 0.001 0.0366697 0 -0.00308751 3.89478e-10 0 2.83303e-09 0 6.95372e-10
133 3 0.001 0.0373362 0 -0.00311806 -3.78521e-10 0 -4.90905e-09 0 6.95372e-10
134 3 0.001 0.0380026 0 -0.00314862 3.40516e-10 0 9.17511e-09 0 6.95372e-10
135 3 0.001 0.0386691 0 -0.00317919 -1.33395e-10 0 -6.7334e-09 0 6.95372e-10
136 3 0.001 0.0393356 0 -0.00320978 -1.96383e-10 0 -8.24449e-10 0 6.95372e-10
137 3 0.001 0.040002 0 -0.00324037 2.91521e-10 0 4.63427e-09 0 6.95372e-10
138 3 0.001 0.0406685 0 -0.00327097 -9.23955e-11 0 -3.19684e-09 0 6.95372e-10
139 3 0.001 0.0413349 0 -0.00330158 -1.26607e-10 0 1.15443e-09 0 6.95372e-10
140 3 0.001 0.0420014 0 -0.00333219 1.01322e-10 0 -2.18943e-09 0 6.95372e-10
141 3 0.001 0.0426678 0 -0.00336281 1.29535e-10 0 3.73239e-09 0 6.95373e-10
142 3 0.001 0.0433343 0 -0.00339344 -4.32321e-10 0 -5.03889e-09 0 6.95373e-10
143 3 0.001 0.0440007 0 -0.00342408 3.96489e-10 0 4.69189e-09 0 6.95373e-10
144 3 0.001 0.0446672 0 -0.00345472 2.53507e-11 0 1.99526e-09 0 6.95373e-10
145 3 0.001 0.0453336 0 -0.00348536 -4.25655e-10 0 -9.7587e-09 0 6.95373e-10
146 3 0.001 0.0460001 0 -0.00351601 5.69168e-10 0 8.87912e-09 0 6.95373e-10
147 3 0.001 0.0466666 0 -0.00354666 -2.99021e-10 0 -6.52133e-10 0 6.95373e-10
148 3 0.001 0.047333 0 -0.00357731 -1.32494e-10 0 -4.52714e-09 0 6.95373e-10
149 3 0.001 0.0479995 0 -0.00360797 3.62026e-10 0 3.19238e-09 0 6.95373e-10
150 3 0.001 0.0486659 0 -0.00363863 -3.52229e-10 0 -3.11447e-09 0 2.03498e-09
2 2 0.001 0.05 0 -0.0037 -0.00282722 0 0.000132479 0 1.68729e-09
151 3 0.001 0.049333 0 -0.00366931 2.03455e-10 0 4.30953e-09 0 3.37459e-09
54 3 0.001 -0.0153196 0 -0.000832887 -2.33626e-10 0 -5.08894e-09 0 6.95313e-10
55 3 0.001 -0.0146529 0 -0.000858152 3.41271e-10 0 3.70433e-09 0 6.95317e-10
56 3 0.001 -0.0139863 0 -0.0008836 -4.3736e-10 0 -6.54033e-09 0 6.9532e-10
57 3 0.001 -0.0133196 0 -0.000909224 3.45376e-10 0 7.88253e-09 0 6.95323e-10
58 3 0.001 -0.0126529 0 -0.00093502 -2.05417e-11 0 -2.60606e-09 0 6.95326e-10
59 3 0.001 -0.0119863 0 -0.000960981 -2.57857e-10 0 -3.73732e-09 0 6.95329e-10
60 3 0.001 -0.0113196 0 -0.000987104 4.25781e-10 0 6.18925e-09 0 6.95331e-10
61 3 0.001 -0.010653 0 -0.00101338 -2.34477e-10 0 -3.95892e-09 0 6.95334e-10
62 3 0.001 -0.00998636 0 -0.00103981 -2.14924e-10 0 -5.13463e-10 0 6.95336e-10
63 3 0.001 -0.00931973 0 -0.00106639 3.98473e-10 0 4.33196e-09 0 6.95338e-10
64 3 0.001 -0.00865311 0 -0.00109311 -2.2791e-10 0 -4.64946e-09 0 6.9534e-10
65 3 0.001 -0.00798649 0 -0.00111996 -5.79266e-11 0 1.0914e-11 0 6.95342e-10
66 3 0.001 -0.00731988 0 -0.00114695 3.91599e-10 0 7.82979e-09 0 6.95344e-10
69 3 0.001 -0.00532008 0 -0.00122868 5.75528e-10 0 1.06074e-08 0 6.95348e-10
67 3 0.001 -0.00665327 0 -0.00117407 -7.13623e-10 0 -1.19166e-08 0 6.95345e-10
68 3 0.001 -0.00598667 0 -0.00120131 2.76834e-10 0 2.28659e-09 0 6.95347e-10
70 3 0.001 -0.00465348 0 -0.00125616 -6.45574e-10 0 -9.03095e-09 0 6.9535e-10
71 3 0.001 -0.0039869 0 -0.00128376 8.50428e-11 0 -5.61208e-10 0 6.95351e-10
72 3 0.001 -0.00332031 0 -0.00131146 3.09394e-10 0 5.45431e-09 0 6.95352e-10
73 3 0.001 -0.00265374 0 -0.00133927 -2.33517e-10 0 -2.71409e-09 0 6.95353e-10
74 3 0.001 -0.00198716 0 -0.00136719 -5.29904e-11 0 -3.83075e-09 0 6.95354e-10
75 3 0.001 -0.00132059 0 -0.0013952 1.4014e-11 0 3.64096e-09 0 6.95355e-10
76 3 0.001 -0.000654027 0 -0.00142332 2.83578e-10 0 4.98755e-09 0 6.95356e-10
77 3 0.001 1.25342e-05 0 -0.00145152 -1.62384e-10 0 -9.13284e-09 0 6.95357e-10
78 3 0.001 0.000679092 0 -0.00147982 -1.17703e-10 0 4.11664e-09 0 6.95358e-10
79 3 0.001 0.00134565 0 -0.00150821 2.82461e-11 0 7.07392e-10 0 6.95359e-10
80 3 0.001 0.0020122 0 -0.00153668 1.38509e-10 0 -8.14506e-10 0 6.9536e-10
81 3 0.001 0.00267874 0 -0.00156524 -2.51861e-10 0 -1.95147e-09 0 6.9536e-10
82 3 0.001 0.00334529 0 -0.00159387 3.02712e-10 0 3.53009e-09 0 6.95361e-10
83 3 0.001 0.00401183 0 -0.00162258 -1.64981e-11 0 1.97849e-10 0 6.95362e-10
84 3 0.001 0.00467836 0 -0.00165137 -4.50084e-10 0 -6.22541e-09 0 6.95362e-10
85 3 0.001 0.0053449 0 -0.00168023 5.49531e-10 0 7.2098e-09 0 6.95363e-10
86 3 0.001 0.00601143 0 -0.00170916 -1.43068e-10 0 -1.80092e-09 0 6.95363e-10
87 3 0.001 0.00667795 0 -0.00173816 -2.01754e-10 0 -1.16859e-09 0 6.95364e-10
88 3 0.001 0.00734448 0 -0.00176723 -7.60091e-12 0 -3.78345e-09 0 6.95364e-10
89 3 0.001 0.008011 0 -0.00179635 2.53619e-10 0 7.71241e-09 0 6.95365e-10
90 3 0.001 0.00867752 0 -0.00182555 -9.94365e-11 0 -4.26035e-09 0 6.95365e-10
91 3 0.001 0.00934404 0 -0.0018548 -1.13112e-10 0 -3.16777e-09 0 6.95365e-10
92 3 0.001 0.0100105 0 -0.00188411 6.36957e-11 0 7.81359e-09 0 6.95366e-10
93 3 0.001 0.0106771 0 -0.00191347 6.54978e-11 0 -3.61235e-09 0 6.95366e-10
94 3 0.001 0.0113436 0 -0.00194289 -5.06003e-11 0 -3.85233e-09 0 6.95367e-10
95 3 0.001 0.0120101 0 -0.00197236 -2.42483e-11 0 3.79602e-09 0 6.95367e-10
96 3 0.001 0.0126766 0 -0.00200188 1.02136e-10 0 -9.68108e-11 0 6.95367e-10
97 3 0.001 0.0133431 0 -0.00203146 6.34766e-11 0 3.01258e-09 0 6.95367e-10
98 3 0.001 0.0140096 0 -0.00206108 -2.99695e-10 0 -5.71857e-09 0 6.95368e-10
99 3 0.001 0.0146761 0 -0.00209074 1.33625e-10 0 -6.81859e-10 0 6.95368e-10
100 3 0.001 0.0153426 0 -0.00212045 4.61399e-11 0 4.7315e-09 0 6.95368e-10
101 3 0.001 0.0160091 0 -0.00215021 5.96987e-11 0 2.79555e-10 0 6.95368e-10
102 3 0.001 0.0166756 0 -0.00218 -5.27816e-11 0 -4.78332e-09 0 6.95369e-10
103 3 0.001 0.0173421 0 -0.00220984 -5.69332e-11 0 3.36453e-09 0 6.95369e-10
104 3 0.001 0.0180085 0 -0.00223971 1.17754e-10 0 1.69479e-09 0 6.95369e-10
105 3 0.001 0.018675 0 -0.00226962 -3.09456e-10 0 -7.27964e-09 0 6.95369e-10
106 3 0.001 0.0193415 0 -0.00229957 3.0423e-10 0 8.66997e-09 0 6.95369e-10
107 3 0.001 0.020008 0 -0.00232956 2.05154e-11 0 -4.50043e-09 0 6.95369e-10
108 3 0.001 0.0206745 0 -0.00235957 -8.64158e-11 0 1.08854e-09 0 6.9537e-10
109 3 0.001 0.021341 0 -0.00238962 -2.29994e-10 0 -1.43805e-09 0 6.9537e-10
1 1 0.001 -0.05 0 0 -0.003413 0 0.00403401 0 1.14427e-32
3 3 0.001 -0.0493333 0 0 0.00624022 0 -0.00416635 0 1.69031e-09
4 3 0.001 -0.0486656 0 -1.86842e-06 -1.26114e-10 0 2.30894e-09 0 2.03737e-09
5 3 0.001 -0.0479984 0 -4.64079e-06 2.50782e-10 0 1.77709e-09 0 6.94146e-10
6 3 0.001 -0.0473313 0 -8.2908e-06 -1.49341e-10 0 -4.8719e-09 0 6.9422e-10
7 3 0.001 -0.0466641 0 -1.27914e-05 -9.71368e-11 0 4.38818e-09 0 6.9429e-10
8 3 0.001 -0.045997 0 -1.81162e-05 2.09562e-10 0 -2.36616e-09 0 6.94356e-10
9 3 0.001 -0.0453299 0 -2.42399e-05 -1.55644e-10 0 5.36881e-10 0 6.94417e-10
10 3 0.001 -0.0446628 0 -3.11378e-05 -3.0283e-11 0 -2.53406e-09 0 6.94475e-10
11 3 0.001 -0.0439956 0 -3.87859e-05 1.48469e-10 0 6.07235e-09 0 6.9453e-10
12 3 0.001 -0.0433285 0 -4.71611e-05 -1.98159e-10 0 -4.18937e-09 0 6.94581e-10
13 3 0.001 -0.0426614 0 -5.62409e-05 1.40693e-10 0 -3.5648e-09 0 6.94629e-10
14 3 0.001 -0.0419944 0 -6.60036e-05 1.459e-10 0 1.1756e-08 0 6.94674e-10
15 3 0.001 -0.0413273 0 -7.64281e-05 -4.48757e-10 0 -1.43896e-08 0 6.94716e-10
16 3 0.001 -0.0406602 0 -8.74939e-05 4.03627e-10 0 9.28875e-09 0 6.94756e-10
17 3 0.001 -0.0399932 0 -9.91812e-05 3.85042e-11 0 2.03877e-09 0 6.94793e-10
18 3 0.001 -0.0393261 0 -0.000111471 -3.52461e-10 0 -1.30515e-08 0 6.94828e-10
19 3 0.001 -0.0386591 0 -0.000124344 3.36858e-10 0 1.22782e-08 0 6.94861e-10
20 3 0.001 -0.0379921 0 -0.000137783 -1.52651e-10 0 -4.88301e-10 0 6.94892e-10
21 3 0.001 -0.037325 0 -0.00015177 -2.16654e-11 0 -6.14786e-09 0 6.94921e-10
22 3 0.001 -0.036658 0 -0.000166289 1.96326e-10 0 2.27165e-09 0 6.94948e-10
23 3 0.001 -0.0359911 0 -0.000181322 -2.69364e-10 0 -3.12499e-10 0 6.94974e-10
24 3 0.001 -0.0353241 0 -0.000196855 1.70067e-10 0 4.56968e-09 0 6.94998e-10
25 3 0.001 -0.0346571 0 -0.00021287 -4.51373e-11 0 -4.27028e-09 0 6.95021e-10
26 3 0.001 -0.0339902 0 -0.000229355 -1.38392e-10 0 -2.10868e-09 0 6.95042e-10
27 3 0.001 -0.0333232 0 -0.000246293 2.4189e-10 0 3.89967e-09 0 6.95062e-10
28 3 0.001 -0.0326563 0 -0.000263672 -1.54572e-10 0 -3.06681e-10 0 6.9508e-10
29 3 0.001 -0.0319894 0 -0.000281477 -2.2258e-11 0 4.52873e-10 0 6.95098e-10
30 3 0.001 -0.0313225 0 -0.000299695 7.24488e-11 0 -7.68119e-09 0 6.95115e-10
31 3 0.001 -0.0306556 0 -0.000318314 1.5205e-10 0 1.33385e-08 0 6.9513e-10
32 3 0.001 -0.0299887 0 -0.000337321 -3.94972e-10 0 -1.0216e-08 0 6.95145e-10
33 3 0.001 -0.0293218 0 -0.000356704 3.66491e-10 0 5.78018e-09 0 6.95158e-10
34 3 0.001 -0.0286549 0 -0.000376452 -1.95245e-10 0 -3.76292e-09 0 6.95171e-10
35 3 0.001 -0.0279881 0 -0.000396553 -3.5574e-11 0 -4.2357e-09 0 6.95183e-10
36 3 0.001 -0.0273212 0 -0.000416996 4.42482e-10 0 1.56741e-08 0 6.95195e-10
37 3 0.001 -0.0266544 0 -0.000437771 -7.23531e-10 0 -1.82272e-08 0 6.95205e-10
38 3 0.001 -0.0259876 0 -0.000458868 5.75102e-10 0 1.08278e-08 0 6.95215e-10
39 3 0.001 -0.0253208 0 -0.000480276 -1.10883e-10 0 -1.78488e-09 0 6.95225e-10
40 3 0.001 -0.024654 0 -0.000501986 -3.10898e-10 0 -4.93858e-09 0 6.95234e-10
41 3 0.001 -0.0239872 0 -0.000523988 4.55888e-10 0 8.11552e-09 0 6.95242e-10
42 3 0.001 -0.0233204 0 -0.000546275 -3.67495e-10 0 -7.56535e-09 0 6.9525e-10
43 3 0.001 -0.0226536 0 -0.000568835 1.69649e-10 0 5.07021e-09 0 6.95257e-10
44 3 0.001 -0.0219868 0 -0.000591663 7.02791e-11 0 -1.07505e-09 0 6.95264e-10
45 3 0.001 -0.0213201 0 -0.000614748 -2.92586e-10 0 -2.73152e-09 0 6.9527e-10
46 3 0.001 -0.0206533 0 -0.000638083 2.57684e-10 0 4.13559e-09 0 6.95276e-10
47 3 0.001 -0.0199866 0 -0.000661661 6.09582e-11 0 -2.07744e-09 0 6.95282e-10
48 3 0.001 -0.0193198 0 -0.000685473 -3.20929e-10 0 -3.37501e-09 0 6.95287e-10
49 3 0.001 -0.0186531 0 -0.000709513 2.48694e-10 0 5.09911e-09 0 6.95292e-10
50 3 0.001 -0.0179864 0 -0.000733774 -1.2851e-12 0 1.67215e-09 0 6.95297e-10
51 3 0.001 -0.0173197 0 -0.000758248 -2.95014e-10 0 -8.18603e-09 0 6.95302e-10
52 3 0.001 -0.016653 0 -0.000782929 4.15114e-10 0 5.00416e-09 0 6.95306e-10
53 3 0.001 -0.0159863 0 -0.000807811 -8.73388e-11 0 2.95362e-09 0 6.9531e-10
