ITEM: TIMESTEP
4100000
ITEM: NUMBER OF ATOMS
151
ITEM: BOX BOUNDS ff ff ff
-5.5000000000000000e-02 5.5000000000000000e-02
-6.0000000000000001e-03 6.0000000000000001e-03
-2.5000000000000001e-02 2.5000000000000001e-02
ITEM: ATOMS id type radius x y z fx fy fz c_bendingE c_stretchingE
146 3 0.001 0.0460002 0 -0.00389982 -4.28516e-11 0 4.38732e-09 0 1.04207e-09
147 3 0.001 0.0466666 0 -0.00393317 -3.61458e-10 0 -3.92406e-09 0 1.04207e-09
148 3 0.001 0.0473331 0 -0.00396652 8.44097e-11 0 2.25189e-09 0 1.04207e-09
149 3 0.001 0.0479995 0 -0.00399988 4.66005e-10 0 3.46831e-09 0 1.04207e-09
150 3 0.001 0.048666 0 -0.00403323 -2.65687e-10 0 -9.01036e-09 0 2.56818e-09
2 2 0.001 0.05 0 -0.0041 -0.00346034 0 0.000175132 0 2.04715e-09
151 3 0.001 0.049333 0 -0.00406661 -7.98978e-11 0 6.28673e-09 0 4.09429e-09
99 3 0.001 0.0146772 0 -0.00234512 3.97725e-11 0 5.21807e-09 0 1.04206e-09
100 3 0.001 0.0153436 0 -0.00237768 -6.06131e-10 0 -8.41929e-09 0 1.04206e-09
101 3 0.001 0.0160101 0 -0.00241028 3.07113e-10 0 3.59465e-09 0 1.04207e-09
102 3 0.001 0.0166766 0 -0.00244291 4.58106e-10 0 6.3569e-09 0 1.04207e-09
103 3 0.001 0.0173431 0 -0.00247557 -7.44855e-10 0 -1.68157e-08 0 1.04207e-09
104 3 0.001 0.0180095 0 -0.00250827 5.91349e-10 0 1.74031e-08 0 1.04207e-09
105 3 0.001 0.018676 0 -0.00254101 -4.32568e-10 0 -4.55997e-09 0 1.04207e-09
106 3 0.001 0.0193424 0 -0.00257377 7.7699e-11 0 -5.06893e-09 0 1.04207e-09
107 3 0.001 0.0200089 0 -0.00260656 3.94548e-10 0 3.72996e-09 0 1.04207e-09
108 3 0.001 0.0206754 0 -0.00263939 -4.02754e-10 0 -3.49644e-09 0 1.04207e-09
109 3 0.001 0.0213418 0 -0.00267224 1.04987e-10 0 5.41044e-09 0 1.04207e-09
110 3 0.001 0.0220083 0 -0.00270511 1.75794e-10 0 -6.29824e-10 0 1.04207e-09
111 3 0.001 0.0226747 0 -0.00273802 -2.76394e-11 0 -3.95624e-09 0 1.04207e-09
112 3 0.001 0.0233412 0 -0.00277094 -2.71902e-10 0 -7.08781e-10 0 1.04207e-09
113 3 0.001 0.0240077 0 -0.0028039 1.29468e-10 0 7.67994e-09 0 1.04207e-09
114 3 0.001 0.0246741 0 -0.00283687 -2.18474e-10 0 -8.53013e-09 0 1.04207e-09
115 3 0.001 0.0253406 0 -0.00286987 4.59309e-10 0 3.08607e-09 0 1.04207e-09
116 3 0.001 0.026007 0 -0.00290289 2.58091e-11 0 3.01364e-09 0 1.04207e-09
117 3 0.001 0.0266735 0 -0.00293592 -5.33491e-10 0 -4.79237e-09 0 1.04207e-09
118 3 0.001 0.0273399 0 -0.00296898 1.29784e-10 0 2.60178e-09 0 1.04207e-09
119 3 0.001 0.0280064 0 -0.00300206 3.15847e-10 0 -7.42183e-10 0 1.04207e-09
120 3 0.001 0.0286728 0 -0.00303515 -7.66144e-11 0 -9.70939e-10 0 1.04207e-09
121 3 0.001 0.0293392 0 -0.00306827 5.39404e-11 0 8.20183e-09 0 1.04207e-09
122 3 0.001 0.0300057 0 -0.0031014 -5.14719e-10 0 -1.09274e-08 0 1.04207e-09
123 3 0.001 0.0306721 0 -0.00313454 1.76502e-10 0 -3.83376e-10 0 1.04207e-09
124 3 0.001 0.0313386 0 -0.0031677 6.14712e-10 0 1.02499e-08 0 1.04207e-09
125 3 0.001 0.032005 0 -0.00320087 -4.85763e-10 0 -8.27446e-09 0 1.04207e-09
126 3 0.001 0.0326715 0 -0.00323406 -1.08158e-10 0 2.42437e-09 0 1.04207e-09
127 3 0.001 0.0333379 0 -0.00326726 2.61483e-10 0 9.55254e-10 0 1.04207e-09
128 3 0.001 0.0340044 0 -0.00330048 -1.8448e-11 0 -5.73468e-09 0 1.04207e-09
129 3 0.001 0.0346708 0 -0.0033337 2.04404e-10 0 1.06577e-08 0 1.04207e-09
130 3 0.001 0.0353372 0 -0.00336694 -6.48711e-10 0 -7.44131e-09 0 1.04207e-09
131 3 0.001 0.0360037 0 -0.00340018 1.63624e-10 0 -6.87566e-10 0 1.04207e-09
132 3 0.001 0.0366701 0 -0.00343344 6.31184e-10 0 5.95259e-09 0 1.04207e-09
133 3 0.001 0.0373365 0 -0.00346671 -1.31429e-10 0 -3.05335e-09 0 1.04207e-09
134 3 0.001 0.038003 0 -0.00349999 -6.64726e-10 0 -5.91612e-09 0 1.04207e-09
135 3 0.001 0.0386694 0 -0.00353327 3.15873e-10 0 7.53384e-09 0 1.04207e-09
136 3 0.001 0.0393359 0 -0.00356656 3.65846e-10 0 -1.94489e-10 0 1.04207e-09
137 3 0.001 0.0400023 0 -0.00359986 -2.4048e-10 0 -3.59006e-09 0 1.04207e-09
138 3 0.001 0.0406687 0 -0.00363317 -3.26324e-10 0 -2.46998e-10 0 1.04207e-09
139 3 0.001 0.0413352 0 -0.00366649 8.00841e-11 0 1.6577e-09 0 1.04207e-09
140 3 0.001 0.0420016 0 -0.00369981 4.38417e-10 0 5.59619e-09 0 1.04207e-09
141 3 0.001 0.042668 0 -0.00373313 -2.45095e-10 0 -8.81324e-09 0 1.04207e-09
142 3 0.001 0.0433345 0 -0.00376646 -1.8762e-10 0 -7.64663e-10 0 1.04207e-09
143 3 0.001 0.0440009 0 -0.0037998 2.49316e-10 0 1.02327e-08 0 1.04207e-09
144 3 0.001 0.0446673 0 -0.00383314 -1.18824e-10 0 -8.33037e-09 0 1.04207e-09
145 3 0.001 0.0453338 0 -0.00386648 1.95989e-10 0 6.2775e-11 0 1.04207e-09
48 3 0.001 -0.0193177 0 -0.000787305 -7.16907e-11 0 -1.96679e-09 0 1.04196e-09
49 3 0.001 -0.018651 0 -0.000814403 -2.95381e-10 0 2.06276e-09 0 1.04197e-09
50 3 0.001 -0.0179843 0 -0.000841725 -1.08571e-11 0 -2.03506e-09 0 1.04197e-09
51 3 0.001 -0.0173176 0 -0.000869265 6.43836e-10 0 7.11859e-09 0 1.04198e-09
52 3 0.001 -0.0166509 0 -0.000897015 -4.77204e-10 0 -9.70524e-09 0 1.04199e-09
53 3 0.001 -0.0159842 0 -0.000924968 -2.58288e-10 0 1.18866e-09 0 1.04199e-09
54 3 0.001 -0.0153176 0 -0.000953117 2.51084e-10 0 8.38433e-09 0 1.042e-09
55 3 0.001 -0.0146509 0 -0.000981455 -7.38455e-11 0 -8.42076e-09 0 1.042e-09
56 3 0.001 -0.0139842 0 -0.00100998 4.08713e-10 0 5.16662e-09 0 1.04201e-09
57 3 0.001 -0.0133176 0 -0.00103867 -5.31199e-10 0 -5.45212e-09 0 1.04201e-09
58 3 0.001 -0.0126509 0 -0.00106754 9.15431e-11 0 3.5411e-09 0 1.04201e-09
59 3 0.001 -0.0119843 0 -0.00109657 4.9828e-10 0 5.0059e-09 0 1.04202e-09
60 3 0.001 -0.0113177 0 -0.00112576 -5.4899e-10 0 -1.17636e-08 0 1.04202e-09
61 3 0.001 -0.0106511 0 -0.00115511 2.79231e-10 0 9.92876e-09 0 1.04202e-09
62 3 0.001 -0.00998444 0 -0.0011846 -4.07798e-10 0 -4.17592e-09 0 1.04203e-09
63 3 0.001 -0.00931783 0 -0.00121424 3.77474e-11 0 -2.80478e-11 0 1.04203e-09
64 3 0.001 -0.00865123 0 -0.00124401 5.43944e-10 0 1.92016e-09 0 1.04203e-09
65 3 0.001 -0.00798463 0 -0.00127392 -1.40723e-10 0 -1.17241e-09 0 1.04203e-09
66 3 0.001 -0.00731804 0 -0.00130396 -3.85949e-10 0 -7.59396e-10 0 1.04204e-09
69 3 0.001 -0.0053183 0 -0.0013948 -2.90242e-10 0 -5.95166e-09 0 1.04204e-09
67 3 0.001 -0.00665145 0 -0.00133412 3.93722e-11 0 -3.1119e-09 0 1.04204e-09
68 3 0.001 -0.00598487 0 -0.00136441 6.24084e-10 0 1.00438e-08 0 1.04204e-09
70 3 0.001 -0.00465173 0 -0.00142532 -4.67055e-10 0 -5.9266e-09 0 1.04204e-09
71 3 0.001 -0.00398516 0 -0.00145593 1.13408e-10 0 6.45404e-09 0 1.04205e-09
72 3 0.001 -0.0033186 0 -0.00148666 5.80385e-10 0 4.72507e-09 0 1.04205e-09
73 3 0.001 -0.00265204 0 -0.00151748 -1.58394e-10 0 -7.52519e-09 0 1.04205e-09
74 3 0.001 -0.00198549 0 -0.00154841 -5.29419e-10 0 -1.71292e-09 0 1.04205e-09
75 3 0.001 -0.00131895 0 -0.00157942 2.45773e-10 0 6.07504e-09 0 1.04205e-09
76 3 0.001 -0.000652403 0 -0.00161053 2.50737e-10 0 -2.90553e-09 0 1.04205e-09
77 3 0.001 1.41354e-05 0 -0.00164173 -2.43993e-12 0 1.31583e-10 0 1.04205e-09
78 3 0.001 0.00068067 0 -0.00167301 -9.69911e-11 0 2.24074e-09 0 1.04205e-09
79 3 0.001 0.0013472 0 -0.00170437 -4.29277e-10 0 -3.23226e-09 0 1.04205e-09
80 3 0.001 0.00201373 0 -0.00173582 5.38176e-13 0 -1.60835e-09 0 1.04206e-09
81 3 0.001 0.00268025 0 -0.00176734 8.84126e-10 0 9.4754e-09 0 1.04206e-09
82 3 0.001 0.00334677 0 -0.00179893 -5.25959e-10 0 -9.04363e-09 0 1.04206e-09
83 3 0.001 0.00401329 0 -0.00183059 -3.43042e-10 0 -1.38267e-09 0 1.04206e-09
84 3 0.001 0.0046798 0 -0.00186232 5.14359e-10 0 8.29246e-09 0 1.04206e-09
85 3 0.001 0.00534631 0 -0.00189412 -3.00395e-10 0 -9.08221e-09 0 1.04206e-09
86 3 0.001 0.00601282 0 -0.00192599 6.94535e-10 0 1.36944e-08 0 1.04206e-09
87 3 0.001 0.00667932 0 -0.00195791 -1.0929e-09 0 -1.74023e-08 0 1.04206e-09
88 3 0.001 0.00734582 0 -0.0019899 3.22581e-10 0 1.00338e-08 0 1.04206e-09
89 3 0.001 0.00801232 0 -0.00202194 4.66103e-10 0 1.33688e-09 0 1.04206e-09
90 3 0.001 0.00867882 0 -0.00205404 -1.05204e-10 0 -5.2686e-09 0 1.04206e-09
91 3 0.001 0.00934531 0 -0.00208619 -2.95735e-10 0 6.46381e-10 0 1.04206e-09
92 3 0.001 0.0100118 0 -0.00211839 5.51724e-11 0 2.63255e-09 0 1.04206e-09
93 3 0.001 0.0106783 0 -0.00215065 2.95105e-10 0 2.63597e-09 0 1.04206e-09
94 3 0.001 0.0113448 0 -0.00218295 -1.79382e-10 0 -6.77316e-09 0 1.04206e-09
95 3 0.001 0.0120113 0 -0.0022153 6.5005e-11 0 3.0247e-09 0 1.04206e-09
96 3 0.001 0.0126777 0 -0.00224769 -3.24035e-10 0 4.68685e-10 0 1.04206e-09
97 3 0.001 0.0133442 0 -0.00228013 7.47413e-11 0 -1.08169e-09 0 1.04206e-09
98 3 0.001 0.0140107 0 -0.0023126 3.35766e-10 0 -4.49056e-11 0 1.04206e-09
1 1 0.001 -0.05 0 0 -0.00341216 0 0.00479903 0 1.14427e-32
3 3 0.001 -0.0493333 0 0 0.00687251 0 -0.00497402 0 2.05031e-09
4 3 0.001 -0.0486655 0 -2.22311e-06 3.00237e-10 0 4.99792e-09 0 2.57026e-09
5 3 0.001 -0.0479982 0 -5.51819e-06 -3.96646e-11 0 -1.31983e-09 0 1.03997e-09
6 3 0.001 -0.047331 0 -9.85058e-06 -1.70169e-10 0 -4.38763e-09 0 1.04011e-09
7 3 0.001 -0.0466637 0 -1.51849e-05 -5.40906e-11 0 1.15988e-09 0 1.04024e-09
8 3 0.001 -0.0459965 0 -2.1487e-05 2.77298e-10 0 9.41427e-09 0 1.04037e-09
9 3 0.001 -0.0453293 0 -2.87238e-05 2.04859e-10 0 -8.91731e-09 0 1.04048e-09
10 3 0.001 -0.044662 0 -3.68635e-05 -3.98026e-10 0 -3.7182e-09 0 1.04059e-09
11 3 0.001 -0.0439948 0 -4.58753e-05 -2.17692e-10 0 9.85459e-09 0 1.04069e-09
12 3 0.001 -0.0433276 0 -5.57293e-05 2.39899e-10 0 -8.07252e-09 0 1.04078e-09
13 3 0.001 -0.0426604 0 -6.6397e-05 4.04366e-10 0 8.49525e-09 0 1.04086e-09
14 3 0.001 -0.0419933 0 -7.78505e-05 -3.4931e-10 0 -1.05436e-08 0 1.04095e-09
15 3 0.001 -0.0413261 0 -9.00629e-05 -2.36689e-11 0 7.33756e-09 0 1.04102e-09
16 3 0.001 -0.040659 0 -0.000103009 -5.9827e-11 0 -1.45946e-09 0 1.04109e-09
17 3 0.001 -0.0399919 0 -0.000116662 3.08133e-10 0 2.39304e-09 0 1.04116e-09
18 3 0.001 -0.0393247 0 -0.000131 -1.48194e-10 0 -6.25911e-09 0 1.04122e-09
19 3 0.001 -0.0386576 0 -0.000145998 -4.11599e-10 0 2.71244e-09 0 1.04127e-09
20 3 0.001 -0.0379906 0 -0.000161634 2.91248e-10 0 7.14107e-09 0 1.04133e-09
21 3 0.001 -0.0373235 0 -0.000177887 4.17384e-11 0 -1.34008e-08 0 1.04138e-09
22 3 0.001 -0.0366564 0 -0.000194735 1.17872e-10 0 7.74377e-09 0 1.04142e-09
23 3 0.001 -0.0359894 0 -0.000212157 -7.16276e-11 0 2.79958e-09 0 1.04147e-09
24 3 0.001 -0.0353224 0 -0.000230135 -2.46855e-10 0 -4.99337e-09 0 1.04151e-09
25 3 0.001 -0.0346554 0 -0.00024865 1.39018e-10 0 1.20586e-09 0 1.04154e-09
26 3 0.001 -0.0339884 0 -0.000267682 2.69808e-10 0 6.89278e-12 0 1.04158e-09
27 3 0.001 -0.0333214 0 -0.000287215 -1.26631e-10 0 1.85567e-09 0 1.04161e-09
28 3 0.001 -0.0326544 0 -0.000307231 -3.80351e-10 0 -2.84567e-09 0 1.04164e-09
29 3 0.001 -0.0319875 0 -0.000327714 1.82959e-10 0 -1.30801e-10 0 1.04167e-09
30 3 0.001 -0.0313205 0 -0.000348648 4.12062e-10 0 4.12765e-09 0 1.0417e-09
31 3 0.001 -0.0306536 0 -0.000370017 -1.83742e-10 0 -2.95449e-09 0 1.04172e-09
32 3 0.001 -0.0299867 0 -0.000391807 -1.9226e-10 0 9.44464e-10 0 1.04174e-09
33 3 0.001 -0.0293198 0 -0.000414004 -8.54458e-11 0 -5.12693e-09 0 1.04177e-09
34 3 0.001 -0.0286529 0 -0.000436592 5.39678e-10 0 7.28372e-09 0 1.04179e-09
35 3 0.001 -0.027986 0 -0.00045956 -2.14921e-10 0 -1.97819e-09 0 1.04181e-09
36 3 0.001 -0.0273192 0 -0.000482894 -5.05615e-10 0 -3.5255e-09 0 1.04182e-09
37 3 0.001 -0.0266523 0 -0.000506581 1.18704e-10 0 2.62812e-09 0 1.04184e-09
38 3 0.001 -0.0259855 0 -0.00053061 3.84606e-10 0 2.2484e-09 0 1.04185e-09
39 3 0.001 -0.0253187 0 -0.000554969 7.34453e-11 0 -2.20837e-09 0 1.04187e-09
40 3 0.001 -0.0246518 0 -0.000579646 -2.64151e-10 0 -2.18677e-10 0 1.04188e-09
41 3 0.001 -0.023985 0 -0.000604631 -1.65689e-10 0 3.24224e-10 0 1.04189e-09
42 3 0.001 -0.0233182 0 -0.000629914 1.28791e-10 0 -3.60294e-09 0 1.04191e-09
43 3 0.001 -0.0226515 0 -0.000655483 4.23107e-10 0 8.32527e-09 0 1.04192e-09
44 3 0.001 -0.0219847 0 -0.00068133 -6.54314e-10 0 -1.00409e-08 0 1.04193e-09
45 3 0.001 -0.0213179 0 -0.000707445 1.79602e-10 0 8.19956e-09 0 1.04194e-09
46 3 0.001 -0.0206512 0 -0.000733818 -1.60701e-11 0 -3.04987e-09 0 1.04194e-09
47 3 0.001 -0.0199845 0 -0.000760441 3.49255e-10 0 3.23495e-10 0 1.04195e-09
