ITEM: TIMESTEP
440000
ITEM: NUMBER OF ATOMS
151
ITEM: BOX BOUNDS ff ff ff
-5.2499999999999998e-02 5.2499999999999998e-02
-6.0000000000000001e-03 6.0000000000000001e-03
-1.4999999999999999e-02 1.4999999999999999e-02
ITEM: ATOMS id type radius x y z fx fy fz c_bendingE c_stretchingE
2 2 0.001 0.0475 0 -0.00418 -0.0039832 0 0.000211485 0 2.70744e-09
151 3 0.001 0.0468662 0 -0.00414613 6.26657e-06 0 -2.59066e-06 0 5.4106e-09
102 3 0.001 0.0158438 0 -0.00249672 1.40046e-06 0 3.12249e-06 0 1.32455e-09
103 3 0.001 0.0164769 0 -0.00252997 -3.68758e-05 0 8.28296e-06 0 1.3127e-09
104 3 0.001 0.0171101 0 -0.00256325 -1.96123e-05 0 2.98258e-06 0 1.29399e-09
105 3 0.001 0.0177432 0 -0.00259656 1.22875e-05 0 -4.89861e-06 0 1.29163e-09
106 3 0.001 0.0183763 0 -0.0026299 -1.65278e-05 0 -3.72531e-06 0 1.2904e-09
107 3 0.001 0.0190094 0 -0.00266327 -5.06239e-05 0 2.08599e-06 0 1.2687e-09
108 3 0.001 0.0196425 0 -0.00269667 6.51129e-05 0 -2.61627e-06 0 1.27343e-09
109 3 0.001 0.0202756 0 -0.0027301 5.45223e-05 0 -2.11061e-06 0 1.31249e-09
110 3 0.001 0.0209087 0 -0.00276355 2.61739e-05 0 4.56052e-07 0 1.33911e-09
111 3 0.001 0.0215418 0 -0.00279702 1.50319e-05 0 -7.59664e-07 0 1.35282e-09
112 3 0.001 0.0221749 0 -0.00283051 -9.37912e-06 0 -5.80728e-07 0 1.35473e-09
114 3 0.001 0.0234412 0 -0.00289756 -6.2879e-05 0 6.43242e-06 0 1.31462e-09
113 3 0.001 0.022808 0 -0.00286403 -2.41962e-05 0 3.34601e-06 0 1.3435e-09
115 3 0.001 0.0240743 0 -0.00293111 -5.05249e-05 0 3.32491e-06 0 1.2774e-09
116 3 0.001 0.0247073 0 -0.00296468 4.26402e-05 0 -4.96671e-06 0 1.27487e-09
117 3 0.001 0.0253404 0 -0.00299827 5.03971e-06 0 -4.23452e-06 0 1.29048e-09
118 3 0.001 0.0259735 0 -0.00303188 7.3749e-06 0 -1.00292e-06 0 1.29462e-09
119 3 0.001 0.0266066 0 -0.0030655 6.4173e-05 0 -3.11324e-06 0 1.31823e-09
120 3 0.001 0.0272397 0 -0.00309914 -3.36309e-05 0 1.47057e-06 0 1.32827e-09
121 3 0.001 0.0278728 0 -0.0031328 -7.86817e-05 0 5.63776e-06 0 1.29139e-09
122 3 0.001 0.0285059 0 -0.00316646 5.65609e-06 0 2.73061e-06 0 1.26744e-09
123 3 0.001 0.029139 0 -0.00320014 4.78677e-05 0 1.91257e-07 0 1.28477e-09
124 3 0.001 0.0297721 0 -0.00323383 -7.19368e-05 0 3.97577e-06 0 1.27694e-09
125 3 0.001 0.0304052 0 -0.00326753 -1.15351e-05 0 -1.60944e-06 0 1.24989e-09
126 3 0.001 0.0310383 0 -0.00330124 6.66086e-05 0 -7.19029e-06 0 1.26785e-09
129 3 0.001 0.0329375 0 -0.00340244 3.93115e-05 0 4.31452e-07 0 1.28451e-09
128 3 0.001 0.0323044 0 -0.00336869 -1.77711e-05 0 2.8828e-06 0 1.27755e-09
127 3 0.001 0.0316713 0 -0.00333496 -9.46363e-06 0 -8.73216e-07 0 1.28642e-09
130 3 0.001 0.0335706 0 -0.00343618 -1.08381e-05 0 1.25639e-06 0 1.29372e-09
131 3 0.001 0.0342037 0 -0.00346994 -1.94879e-05 0 -9.70447e-07 0 1.28385e-09
132 3 0.001 0.0348368 0 -0.00350371 1.16667e-05 0 -1.78204e-06 0 1.28135e-09
133 3 0.001 0.0354698 0 -0.00353748 -2.90641e-05 0 4.95513e-06 0 1.27568e-09
134 3 0.001 0.0361029 0 -0.00357125 5.27305e-05 0 7.43603e-07 0 1.28329e-09
135 3 0.001 0.036736 0 -0.00360503 6.72649e-05 0 -6.03345e-06 0 1.3227e-09
136 3 0.001 0.0373691 0 -0.00363882 -4.78998e-05 0 -3.5982e-06 0 1.32922e-09
137 3 0.001 0.0380022 0 -0.00367262 6.48666e-06 0 -2.59313e-06 0 1.31563e-09
138 3 0.001 0.0386353 0 -0.00370642 3.24277e-05 0 1.6648e-06 0 1.3285e-09
139 3 0.001 0.0392684 0 -0.00374022 3.69285e-05 0 2.48316e-06 0 1.35146e-09
140 3 0.001 0.0399015 0 -0.00377403 1.57017e-05 0 -9.39595e-07 0 1.36901e-09
141 3 0.001 0.0405346 0 -0.00380784 -9.05316e-06 0 9.95435e-07 0 1.37124e-09
142 3 0.001 0.0411677 0 -0.00384166 -6.32284e-05 0 5.12106e-06 0 1.34705e-09
143 3 0.001 0.0418008 0 -0.00387547 -8.87807e-06 0 9.29331e-07 0 1.32298e-09
144 3 0.001 0.0424339 0 -0.00390929 1.63618e-05 0 -1.60612e-06 0 1.32546e-09
145 3 0.001 0.043067 0 -0.00394311 2.422e-06 0 -2.57603e-06 0 1.33174e-09
146 3 0.001 0.0437001 0 -0.00397694 2.60181e-05 0 -5.35479e-06 0 1.34132e-09
147 3 0.001 0.0443332 0 -0.00401077 -4.13724e-05 0 -1.33402e-06 0 1.33637e-09
148 3 0.001 0.0449663 0 -0.0040446 3.15341e-06 0 -6.91335e-07 0 1.32373e-09
149 3 0.001 0.0455993 0 -0.00407843 -7.55688e-06 0 6.82e-06 0 1.38593e-09
150 3 0.001 0.0462325 0 -0.00411227 -1.74151e-05 0 6.97509e-06 0 3.42671e-09
50 3 0.001 -0.017083 0 -0.000863212 3.60701e-05 0 -7.34683e-06 0 1.2966e-09
51 3 0.001 -0.0164496 0 -0.000891391 -6.24228e-06 0 -1.21429e-06 0 1.30647e-09
52 3 0.001 -0.0158163 0 -0.000919783 -9.74962e-06 0 4.25101e-06 0 1.30119e-09
53 3 0.001 -0.0151829 0 -0.00094838 5.74063e-05 0 1.24244e-06 0 1.31682e-09
55 3 0.001 -0.0139162 0 -0.00100616 -4.52719e-05 0 2.6096e-07 0 1.32619e-09
54 3 0.001 -0.0145496 0 -0.000977174 8.19179e-06 0 1.40697e-07 0 1.33843e-09
56 3 0.001 -0.0132829 0 -0.00103533 -1.83402e-05 0 1.49172e-06 0 1.3052e-09
57 3 0.001 -0.0126496 0 -0.00106467 -6.12298e-05 0 4.23292e-06 0 1.27925e-09
58 3 0.001 -0.0120163 0 -0.00109419 1.54805e-05 0 -2.86947e-06 0 1.26436e-09
59 3 0.001 -0.011383 0 -0.00112387 4.95462e-05 0 -3.26108e-06 0 1.28557e-09
60 3 0.001 -0.0107497 0 -0.00115372 2.25846e-05 0 -3.04461e-06 0 1.3092e-09
62 3 0.001 -0.00948318 0 -0.00121386 -5.36559e-05 0 5.23765e-06 0 1.33407e-09
61 3 0.001 -0.0101165 0 -0.00118372 5.30421e-05 0 -3.51188e-06 0 1.3343e-09
63 3 0.001 -0.00884991 0 -0.00124415 -4.90329e-05 0 4.8106e-06 0 1.30011e-09
64 3 0.001 -0.00821666 0 -0.00127458 -2.4552e-05 0 1.73395e-06 0 1.27602e-09
65 3 0.001 -0.00758341 0 -0.00130514 7.36751e-06 0 -2.09747e-06 0 1.27045e-09
66 3 0.001 -0.00695017 0 -0.00133582 6.833e-05 0 -4.12656e-06 0 1.29524e-09
67 3 0.001 -0.00631693 0 -0.00136663 -4.8928e-05 0 3.72481e-06 0 1.30155e-09
68 3 0.001 -0.0056837 0 -0.00139756 -4.2744e-05 0 2.14291e-06 0 1.27162e-09
69 3 0.001 -0.00505048 0 -0.0014286 -1.73397e-05 0 -1.82745e-06 0 1.25223e-09
71 3 0.001 -0.00378407 0 -0.00149101 2.5662e-05 0 -1.30611e-07 0 1.26935e-09
72 3 0.001 -0.00315086 0 -0.00152237 -2.62408e-05 0 5.27751e-06 0 1.26908e-09
70 3 0.001 -0.00441728 0 -0.00145976 2.21718e-05 0 -3.54056e-06 0 1.25387e-09
73 3 0.001 -0.00251766 0 -0.00155383 8.4376e-05 0 -1.93098e-07 0 1.28798e-09
74 3 0.001 -0.00188446 0 -0.00158538 8.85086e-05 0 -1.67258e-06 0 1.34491e-09
75 3 0.001 -0.00125124 0 -0.00161703 -2.03668e-05 0 -1.40859e-06 0 1.36757e-09
76 3 0.001 -0.000618033 0 -0.00164876 -2.67169e-05 0 -3.09879e-06 0 1.35191e-09
77 3 0.001 1.5167e-05 0 -0.00168057 -2.38483e-05 0 4.43324e-07 0 1.33515e-09
78 3 0.001 0.000648359 0 -0.00171248 -1.15724e-06 0 9.99871e-07 0 1.32684e-09
79 3 0.001 0.00128155 0 -0.00174446 2.83499e-05 0 -3.56051e-06 0 1.3359e-09
80 3 0.001 0.00191474 0 -0.00177651 -5.46786e-05 0 6.46624e-07 0 1.32728e-09
81 3 0.001 0.00254791 0 -0.00180865 -4.4702e-05 0 2.58244e-06 0 1.29457e-09
83 3 0.001 0.00381424 0 -0.00187312 -6.18082e-05 0 9.60635e-06 0 1.25809e-09
84 3 0.001 0.00444738 0 -0.00190545 1.83573e-05 0 -1.59807e-06 0 1.24396e-09
82 3 0.001 0.00318108 0 -0.00184085 -2.49314e-06 0 5.89406e-06 0 1.27904e-09
85 3 0.001 0.00508053 0 -0.00193785 4.33968e-06 0 -4.20389e-06 0 1.25132e-09
86 3 0.001 0.00571368 0 -0.00197032 -1.04179e-05 0 -2.2708e-06 0 1.24948e-09
87 3 0.001 0.00634681 0 -0.00200284 7.18513e-05 0 -5.62563e-06 0 1.26949e-09
88 3 0.001 0.00697996 0 -0.00203542 -2.35902e-06 0 -1.27416e-06 0 1.29205e-09
89 3 0.001 0.00761311 0 -0.00206807 3.67976e-05 0 -2.62584e-06 0 1.30339e-09
90 3 0.001 0.00824626 0 -0.00210076 -5.03045e-05 0 2.73244e-06 0 1.299e-09
91 3 0.001 0.00887939 0 -0.00213351 1.41783e-05 0 -9.10046e-08 0 1.28712e-09
92 3 0.001 0.00951253 0 -0.00216631 8.05943e-05 0 -1.16873e-06 0 1.31829e-09
93 3 0.001 0.0101457 0 -0.00219916 6.36134e-06 0 3.85972e-06 0 1.3469e-09
94 3 0.001 0.0107788 0 -0.00223206 -2.78267e-07 0 1.08108e-06 0 1.34884e-09
95 3 0.001 0.011412 0 -0.00226499 -0.000105776 0 2.49524e-06 0 1.31391e-09
96 3 0.001 0.0120451 0 -0.00229798 -3.39135e-05 0 -1.64102e-06 0 1.26817e-09
97 3 0.001 0.0126782 0 -0.002331 3.0698e-05 0 -2.61879e-06 0 1.2672e-09
98 3 0.001 0.0133113 0 -0.00236407 1.72356e-05 0 6.22669e-07 0 1.28274e-09
100 3 0.001 0.0145776 0 -0.00243032 2.73479e-06 0 -3.53325e-06 0 1.31818e-09
99 3 0.001 0.0139445 0 -0.00239717 4.40734e-05 0 -1.03071e-06 0 1.30277e-09
101 3 0.001 0.0152107 0 -0.0024635 7.39874e-06 0 -3.62585e-06 0 1.32164e-09
1 1 0.001 -0.0475 0 0 -0.00412916 0 0.00577877 0 1.60362e-34
3 3 0.001 -0.0468667 0 0 0.00810191 0 -0.00599759 0 2.70706e-09
4 3 0.001 -0.046232 0 -2.29556e-06 -6.87446e-06 0 8.23188e-07 0 3.42054e-09
5 3 0.001 -0.045598 0 -5.69609e-06 -3.66652e-06 0 -8.97383e-07 0 1.36126e-09
6 3 0.001 -0.044964 0 -1.01647e-05 2.05629e-05 0 2.65323e-06 0 1.30241e-09
7 3 0.001 -0.0443301 0 -1.56635e-05 4.03207e-05 0 7.01384e-06 0 1.32262e-09
8 3 0.001 -0.0436961 0 -2.21565e-05 -1.9501e-05 0 3.87732e-06 0 1.32962e-09
9 3 0.001 -0.0430621 0 -2.96102e-05 3.7932e-05 0 -5.64584e-06 0 1.33592e-09
10 3 0.001 -0.0424282 0 -3.7993e-05 -2.35307e-05 0 -7.32869e-06 0 1.34089e-09
11 3 0.001 -0.0417943 0 -4.72737e-05 -1.02605e-05 0 -2.27903e-06 0 1.32986e-09
12 3 0.001 -0.0411604 0 -5.74205e-05 2.87737e-05 0 4.11646e-06 0 1.33614e-09
13 3 0.001 -0.0405264 0 -6.84023e-05 -7.59362e-07 0 3.20738e-06 0 1.34552e-09
14 3 0.001 -0.0398926 0 -8.01898e-05 8.6727e-06 0 -1.75551e-06 0 1.34826e-09
15 3 0.001 -0.0392587 0 -9.27558e-05 -6.81215e-06 0 -6.47253e-07 0 1.34901e-09
16 3 0.001 -0.0386248 0 -0.000106073 -5.64641e-05 0 1.89719e-06 0 1.32814e-09
17 3 0.001 -0.037991 0 -0.000120116 -2.41232e-05 0 2.87416e-06 0 1.30162e-09
18 3 0.001 -0.0373572 0 -0.000134859 2.49861e-05 0 -8.85247e-07 0 1.30197e-09
19 3 0.001 -0.0367234 0 -0.000150279 -1.91085e-05 0 -3.16171e-06 0 1.304e-09
20 3 0.001 -0.0360896 0 -0.000166352 3.95563e-05 0 -4.93625e-06 0 1.31088e-09
21 3 0.001 -0.0354558 0 -0.000183057 -4.87628e-05 0 4.26468e-07 0 1.30798e-09
22 3 0.001 -0.0348221 0 -0.000200371 -4.07486e-05 0 5.1316e-06 0 1.27877e-09
23 3 0.001 -0.0341883 0 -0.00021827 3.27574e-05 0 1.25097e-06 0 1.27617e-09
24 3 0.001 -0.0335546 0 -0.000236735 -4.70662e-06 0 -1.69175e-06 0 1.28532e-09
25 3 0.001 -0.0329209 0 -0.000255746 -2.9934e-05 0 -2.79143e-06 0 1.27418e-09
26 3 0.001 -0.0322872 0 -0.000275284 1.7555e-05 0 -8.86447e-07 0 1.27025e-09
27 3 0.001 -0.0316536 0 -0.000295329 -2.78373e-05 0 7.21976e-06 0 1.26692e-09
28 3 0.001 -0.0310199 0 -0.000315863 -4.95956e-05 0 8.10719e-06 0 1.24194e-09
29 3 0.001 -0.0303863 0 -0.000336869 8.94773e-05 0 -3.98634e-06 0 1.25484e-09
30 3 0.001 -0.0297527 0 -0.000358333 8.08937e-06 0 -6.86542e-06 0 1.28639e-09
31 3 0.001 -0.0291191 0 -0.000380238 -5.7482e-05 0 -5.26279e-07 0 1.27055e-09
32 3 0.001 -0.0284855 0 -0.000402571 6.34661e-05 0 2.30227e-06 0 1.27251e-09
33 3 0.001 -0.0278519 0 -0.000425315 3.83698e-05 0 1.29996e-06 0 1.30563e-09
34 3 0.001 -0.0272184 0 -0.000448457 1.54239e-05 0 -1.57771e-06 0 1.32333e-09
35 3 0.001 -0.0265848 0 -0.000471984 -5.84485e-06 0 -1.79725e-07 0 1.32654e-09
36 3 0.001 -0.0259512 0 -0.000495882 1.17931e-05 0 1.87146e-07 0 1.32853e-09
37 3 0.001 -0.0253177 0 -0.000520141 -5.63109e-05 0 3.4277e-06 0 1.31388e-09
38 3 0.001 -0.0246842 0 -0.000544747 -3.20216e-05 0 1.20463e-06 0 1.28491e-09
39 3 0.001 -0.0240507 0 -0.00056969 6.02663e-05 0 -8.1091e-06 0 1.29427e-09
40 3 0.001 -0.0234172 0 -0.00059496 -1.45875e-05 0 -6.49215e-06 0 1.30936e-09
41 3 0.001 -0.0227838 0 -0.000620546 3.20847e-05 0 -1.16305e-06 0 1.31525e-09
42 3 0.001 -0.0221503 0 -0.000646434 8.19553e-05 0 1.02214e-06 0 1.35318e-09
43 3 0.001 -0.0215168 0 -0.000672613 2.12906e-05 0 2.61657e-06 0 1.3877e-09
44 3 0.001 -0.0208834 0 -0.000699073 -2.83501e-05 0 4.19259e-06 0 1.38524e-09
45 3 0.001 -0.0202499 0 -0.000725803 -7.50423e-05 0 1.98951e-06 0 1.35057e-09
46 3 0.001 -0.0196165 0 -0.000752795 -4.95086e-05 0 1.03867e-06 0 1.30927e-09
47 3 0.001 -0.0189831 0 -0.00078004 -1.6066e-05 0 3.531e-06 0 1.28774e-09
48 3 0.001 -0.0183497 0 -0.000807529 -2.83783e-05 0 1.20274e-06 0 1.27326e-09
49 3 0.001 -0.0177163 0 -0.000835255 3.16456e-05 0 -5.05418e-06 0 1.27438e-09
