ITEM: TIMESTEP
140000
ITEM: NUMBER OF ATOMS
151
ITEM: BOX BOUNDS ff ff ff
-5.2499999999999998e-02 5.2499999999999998e-02
-6.0000000000000001e-03 6.0000000000000001e-03
-1.4999999999999999e-02 1.4999999999999999e-02
ITEM: ATOMS id type radius x y z fx fy fz c_bendingE c_stretchingE
129 3 0.001 0.0329338 0 -0.00102933 -2.49353e-05 0 7.44422e-06 0 9.69227e-13
130 3 0.001 0.033567 0 -0.00104223 0.000119437 0 -1.99491e-07 0 5.95965e-13
131 3 0.001 0.0342002 0 -0.00105516 0.000342641 0 -7.43979e-06 0 4.82011e-12
132 3 0.001 0.0348334 0 -0.00106811 7.53446e-05 0 -8.51197e-06 0 1.2004e-11
133 3 0.001 0.0354667 0 -0.00108108 2.43852e-05 0 -8.29883e-06 0 1.52381e-11
134 3 0.001 0.0361 0 -0.00109407 -0.000126791 0 3.55882e-06 0 1.21487e-11
135 3 0.001 0.0367332 0 -0.00110708 -0.000145334 0 1.38793e-05 0 5.27987e-12
136 3 0.001 0.0373665 0 -0.0011201 0.00031027 0 4.41864e-06 0 1.0672e-11
137 3 0.001 0.0379997 0 -0.00113314 -5.721e-05 0 -8.5469e-06 0 1.68523e-11
138 3 0.001 0.038633 0 -0.00114619 0.000154494 0 -7.11426e-06 0 2.11064e-11
139 3 0.001 0.0392663 0 -0.00115925 0.000130597 0 9.80679e-06 0 3.43891e-11
140 3 0.001 0.0398996 0 -0.00117232 -0.000289543 0 1.16913e-05 0 2.78512e-11
141 3 0.001 0.0405329 0 -0.0011854 1.95042e-05 0 -6.46418e-06 0 1.50987e-11
142 3 0.001 0.0411662 0 -0.00119849 -0.000120753 0 -3.2224e-06 0 1.20381e-11
143 3 0.001 0.0417994 0 -0.00121159 -6.72318e-05 0 -5.15477e-07 0 6.71406e-12
144 3 0.001 0.0424326 0 -0.00122471 7.5936e-05 0 -2.91271e-06 0 6.94692e-12
145 3 0.001 0.0430659 0 -0.00123783 -4.20072e-05 0 2.28865e-06 0 7.6938e-12
146 3 0.001 0.0436991 0 -0.00125097 -4.13766e-06 0 1.41597e-06 0 6.54078e-12
147 3 0.001 0.0443324 0 -0.00126411 -1.44543e-05 0 5.49595e-06 0 6.11676e-12
148 3 0.001 0.0449656 0 -0.00127727 3.70171e-05 0 3.55642e-06 0 6.65238e-12
149 3 0.001 0.0455989 0 -0.00129043 3.82444e-05 0 -8.93479e-06 0 1.55369e-11
150 3 0.001 0.0462322 0 -0.0013036 -8.21923e-05 0 -1.09937e-05 0 8.0569e-10
2 2 0.001 0.0475 0 -0.00133 -0.00028205 0 3.63015e-05 0 8.02762e-10
151 3 0.001 0.0468661 0 -0.00131679 2.40807e-05 0 -1.58725e-05 0 1.59667e-09
1 1 0.001 -0.0475 0 0 -0.00413743 0 0.00089714 0 1.60362e-34
3 3 0.001 -0.0468667 0 0 0.00451455 0 -0.000900386 0 8.40371e-10
4 3 0.001 -0.0462326 0 -3.56047e-07 -2.76434e-05 0 -8.61292e-06 0 8.52653e-10
5 3 0.001 -0.0455992 0 -8.89186e-07 -2.28436e-05 0 -7.20973e-06 0 1.66812e-11
6 3 0.001 -0.0449658 0 -1.59746e-06 5.66303e-05 0 8.38228e-06 0 1.04569e-11
7 3 0.001 -0.0443324 0 -2.47721e-06 -7.9446e-05 0 1.39181e-05 0 9.86309e-12
8 3 0.001 -0.043699 0 -3.52638e-06 -6.56415e-05 0 5.63178e-07 0 6.14473e-12
9 3 0.001 -0.0430656 0 -4.74571e-06 -7.28416e-05 0 -1.0079e-05 0 3.46626e-12
10 3 0.001 -0.0424323 0 -6.13603e-06 5.19769e-05 0 -4.90398e-06 0 3.07489e-12
11 3 0.001 -0.0417989 0 -7.69622e-06 2.26078e-05 0 -3.25597e-06 0 4.32142e-12
12 3 0.001 -0.0411655 0 -9.42416e-06 -2.62788e-05 0 3.38429e-06 0 4.25605e-12
13 3 0.001 -0.0405322 0 -1.13171e-05 0.000138793 0 3.98485e-07 0 7.00393e-12
14 3 0.001 -0.0398988 0 -1.3373e-05 0.000290097 0 -2.39374e-06 0 2.21445e-11
15 3 0.001 -0.0392653 0 -1.55901e-05 4.21006e-05 0 2.5886e-06 0 3.63478e-11
16 3 0.001 -0.0386319 0 -1.79662e-05 0.000218007 0 -1.7041e-08 0 5.29162e-11
17 3 0.001 -0.0379984 0 -2.04998e-05 -0.000133862 0 3.27992e-07 0 5.79566e-11
18 3 0.001 -0.037365 0 -2.31892e-05 -0.000458039 0 1.00865e-07 0 2.83453e-11
19 3 0.001 -0.0367316 0 -2.6033e-05 9.05611e-05 0 -2.27794e-06 0 1.06182e-11
20 3 0.001 -0.0360982 0 -2.90297e-05 -1.43918e-06 0 -2.25021e-06 0 1.323e-11
21 3 0.001 -0.0354648 0 -3.21772e-05 2.61344e-05 0 5.86029e-06 0 1.40721e-11
22 3 0.001 -0.0348314 0 -3.5473e-05 5.02062e-05 0 1.509e-05 0 1.68256e-11
23 3 0.001 -0.034198 0 -3.89159e-05 -8.3052e-05 0 -5.08663e-07 0 1.57145e-11
24 3 0.001 -0.0335646 0 -4.25075e-05 1.81957e-05 0 -1.2804e-05 0 1.3345e-11
25 3 0.001 -0.0329312 0 -4.62495e-05 -0.000401826 0 -7.65726e-06 0 6.97929e-12
26 3 0.001 -0.0322979 0 -5.01407e-05 -0.000147843 0 4.26412e-06 0 7.92469e-13
27 3 0.001 -0.0316646 0 -5.41782e-05 0.000253787 0 -1.60756e-06 0 1.33858e-12
28 3 0.001 -0.0310313 0 -5.83604e-05 0.000262209 0 -1.42714e-05 0 6.43476e-12
29 3 0.001 -0.0303979 0 -6.26851e-05 -6.64231e-05 0 -5.21221e-06 0 9.88371e-12
30 3 0.001 -0.0297645 0 -6.71471e-05 -0.000219515 0 8.22757e-06 0 4.34671e-12
31 3 0.001 -0.0291312 0 -7.17405e-05 0.000358046 0 1.04009e-05 0 8.69071e-12
32 3 0.001 -0.0284978 0 -7.64616e-05 -0.000196652 0 1.0786e-05 0 1.09838e-11
33 3 0.001 -0.0278644 0 -8.13077e-05 -8.76427e-05 0 6.3912e-06 0 3.76855e-12
34 3 0.001 -0.0272311 0 -8.62789e-05 0.000152565 0 -3.90462e-06 0 5.29598e-12
35 3 0.001 -0.0265977 0 -9.13768e-05 -0.000167182 0 -1.50701e-07 0 5.10585e-12
36 3 0.001 -0.0259644 0 -9.66015e-05 0.000210104 0 -4.63753e-08 0 6.30754e-12
37 3 0.001 -0.025331 0 -0.000101954 7.61249e-06 0 -4.28095e-06 0 1.09701e-11
38 3 0.001 -0.0246977 0 -0.000107434 -0.000207171 0 -4.34592e-06 0 6.67397e-12
39 3 0.001 -0.0240643 0 -0.000113042 0.000230338 0 -6.48783e-06 0 7.40191e-12
40 3 0.001 -0.023431 0 -0.000118776 1.05788e-05 0 1.58689e-06 0 1.30012e-11
41 3 0.001 -0.0227976 0 -0.000124635 -0.000111052 0 1.17908e-05 0 1.01679e-11
42 3 0.001 -0.0221642 0 -0.000130616 1.41841e-05 0 7.86655e-06 0 7.33621e-12
43 3 0.001 -0.0215309 0 -0.000136719 8.45058e-05 0 -5.9631e-06 0 1.01065e-11
44 3 0.001 -0.0208975 0 -0.000142947 9.30647e-05 0 -6.5483e-06 0 1.58808e-11
45 3 0.001 -0.0202641 0 -0.0001493 0.000106585 0 -6.3538e-06 0 2.39471e-11
46 3 0.001 -0.0196307 0 -0.000155779 -0.000149876 0 2.64969e-06 0 2.2301e-11
47 3 0.001 -0.0189974 0 -0.000162381 -2.75638e-05 0 7.6731e-06 0 1.49686e-11
48 3 0.001 -0.018364 0 -0.000169105 1.28714e-05 0 8.64447e-06 0 1.44384e-11
49 3 0.001 -0.0177306 0 -0.000175953 9.91924e-05 0 2.5801e-06 0 1.87581e-11
50 3 0.001 -0.0170972 0 -0.000182926 2.5887e-05 0 -6.42263e-06 0 2.37866e-11
51 3 0.001 -0.0164639 0 -0.000190028 -9.0469e-05 0 -5.13374e-06 0 2.1174e-11
52 3 0.001 -0.0158305 0 -0.000197259 0.000357266 0 -5.08607e-06 0 3.62154e-11
53 3 0.001 -0.0151971 0 -0.000204622 -2.29349e-05 0 5.42528e-06 0 5.34923e-11
54 3 0.001 -0.0145636 0 -0.000212115 -0.000159451 0 1.20106e-06 0 4.25756e-11
55 3 0.001 -0.0139303 0 -0.000219741 -6.94135e-05 0 -8.56498e-06 0 2.97577e-11
56 3 0.001 -0.0132969 0 -0.0002275 -0.000284301 0 -7.46188e-07 0 1.64152e-11
57 3 0.001 -0.0126635 0 -0.000235392 -0.000238334 0 3.42203e-07 0 3.32459e-12
58 3 0.001 -0.0120303 0 -0.000243415 0.000170037 0 -6.39829e-06 0 1.93648e-12
59 3 0.001 -0.0113969 0 -0.000251569 0.00013731 0 -7.8602e-06 0 6.91081e-12
60 3 0.001 -0.0107636 0 -0.00025985 -0.000206858 0 -1.51462e-07 0 5.89259e-12
61 3 0.001 -0.0101303 0 -0.000268254 -0.000132994 0 8.64043e-06 0 8.48136e-13
62 3 0.001 -0.00949702 0 -0.000276777 0.000160244 0 2.05842e-06 0 1.19878e-12
63 3 0.001 -0.00886372 0 -0.000285416 0.000191793 0 -7.55936e-06 0 6.60131e-12
64 3 0.001 -0.00823039 0 -0.000294169 0.00018236 0 -4.24239e-06 0 1.76332e-11
65 3 0.001 -0.00759703 0 -0.000303032 3.43763e-05 0 8.47479e-06 0 2.60407e-11
66 3 0.001 -0.00696366 0 -0.000312003 -4.91411e-05 0 8.6874e-06 0 2.53773e-11
67 3 0.001 -0.00633031 0 -0.000321078 -0.000271305 0 -8.86465e-07 0 1.43142e-11
68 3 0.001 -0.005697 0 -0.000330258 4.04362e-05 0 -9.19733e-06 0 6.43409e-12
69 3 0.001 -0.00506368 0 -0.000339542 6.24519e-05 0 1.81394e-06 0 9.06567e-12
70 3 0.001 -0.00443036 0 -0.000348927 1.34469e-05 0 -5.38835e-07 0 1.11739e-11
71 3 0.001 -0.00379703 0 -0.000358411 0.000281123 0 -7.95745e-06 0 2.35341e-11
72 3 0.001 -0.00316367 0 -0.000367992 5.75482e-05 0 4.66557e-06 0 3.87309e-11
73 3 0.001 -0.00253029 0 -0.000377666 2.04067e-05 0 1.03147e-05 0 4.31851e-11
74 3 0.001 -0.00189691 0 -0.000387432 -0.000248978 0 1.0306e-05 0 3.18814e-11
75 3 0.001 -0.00126357 0 -0.00039729 -0.000216815 0 -8.84048e-06 0 1.26461e-11
76 3 0.001 -0.000630274 0 -0.000407239 -0.00015452 0 -1.14456e-05 0 3.49469e-12
77 3 0.001 2.99879e-06 0 -0.000417281 6.08969e-05 0 3.54394e-06 0 1.78889e-12
78 3 0.001 0.00063628 0 -0.000427412 5.99801e-07 0 7.7479e-06 0 2.51874e-12
79 3 0.001 0.00126956 0 -0.000437629 8.74492e-05 0 4.6641e-06 0 4.10104e-12
80 3 0.001 0.00190285 0 -0.00044793 0.000246658 0 -8.09508e-06 0 1.35254e-11
81 3 0.001 0.00253618 0 -0.000458317 0.000243503 0 -8.89203e-06 0 3.40481e-11
82 3 0.001 0.00316956 0 -0.000468789 0.000111895 0 -9.92391e-08 0 5.41808e-11
83 3 0.001 0.00380294 0 -0.000479343 -0.000272424 0 5.44058e-06 0 4.52747e-11
84 3 0.001 0.00443629 0 -0.000489977 -6.56123e-05 0 6.89357e-06 0 2.58787e-11
85 3 0.001 0.00506961 0 -0.00050069 -0.000239307 0 2.72382e-06 0 1.48211e-11
86 3 0.001 0.0057029 0 -0.000511482 -2.04872e-05 0 -4.7004e-06 0 6.32813e-12
87 3 0.001 0.00633619 0 -0.000522354 9.84124e-05 0 -6.40446e-06 0 8.42759e-12
88 3 0.001 0.00696949 0 -0.000533303 9.33709e-05 0 -7.80714e-06 0 1.41685e-11
89 3 0.001 0.0076028 0 -0.000544329 0.00025802 0 -4.27975e-06 0 2.98486e-11
90 3 0.001 0.00823615 0 -0.000555427 -4.75131e-05 0 1.22995e-07 0 3.96382e-11
91 3 0.001 0.0088695 0 -0.000566594 -0.000196171 0 9.99156e-06 0 2.76785e-11
92 3 0.001 0.00950281 0 -0.000577826 -0.000115077 0 1.14763e-05 0 1.44867e-11
93 3 0.001 0.0101361 0 -0.00058912 3.7373e-05 0 3.59048e-06 0 1.16961e-11
94 3 0.001 0.0107694 0 -0.000600477 -6.2775e-05 0 3.59717e-07 0 1.09716e-11
95 3 0.001 0.0114027 0 -0.000611897 -7.95061e-06 0 -1.07645e-05 0 8.88057e-12
96 3 0.001 0.012036 0 -0.000623381 0.000152884 0 -7.53981e-06 0 1.37277e-11
97 3 0.001 0.0126693 0 -0.000634927 2.44912e-05 0 -8.14351e-06 0 1.97802e-11
98 3 0.001 0.0133026 0 -0.000646532 -0.000352793 0 5.23116e-06 0 1.13048e-11
99 3 0.001 0.0139358 0 -0.000658191 0.000166426 0 2.2313e-05 0 5.01163e-12
100 3 0.001 0.0145691 0 -0.0006699 0.000581291 0 -2.96709e-07 0 3.72213e-11
101 3 0.001 0.0152025 0 -0.000681662 -0.000141376 0 -3.52008e-06 0 5.6633e-11
102 3 0.001 0.0158358 0 -0.000693477 -0.000384343 0 8.56698e-06 0 2.91695e-11
103 3 0.001 0.0164691 0 -0.000705346 9.64206e-05 0 -1.18411e-05 0 1.46639e-11
104 3 0.001 0.0171024 0 -0.000717271 -0.000142203 0 -1.00142e-05 0 1.33617e-11
105 3 0.001 0.0177357 0 -0.000729252 -1.10032e-06 0 2.46941e-06 0 8.69093e-12
106 3 0.001 0.018369 0 -0.000741286 -8.10053e-06 0 6.43754e-06 0 8.44294e-12
107 3 0.001 0.0190022 0 -0.000753371 -8.22311e-06 0 5.6851e-06 0 8.01181e-12
108 3 0.001 0.0196355 0 -0.000765506 9.22611e-05 0 -3.98195e-06 0 1.04902e-11
109 3 0.001 0.0202688 0 -0.000777692 -1.57334e-06 0 -1.00303e-05 0 1.31376e-11
110 3 0.001 0.0209021 0 -0.000789927 0.000122149 0 -5.66793e-06 0 1.77255e-11
111 3 0.001 0.0215354 0 -0.000802209 -0.000162875 0 4.20815e-06 0 1.64573e-11
112 3 0.001 0.0221686 0 -0.000814535 -0.000128477 0 6.17321e-06 0 7.4443e-12
113 3 0.001 0.0228019 0 -0.000826901 5.69235e-05 0 4.1596e-06 0 5.54012e-12
114 3 0.001 0.0234351 0 -0.000839307 -4.11556e-05 0 1.40944e-06 0 5.84671e-12
115 3 0.001 0.0240684 0 -0.00085175 -7.27067e-05 0 -4.03071e-07 0 3.69616e-12
116 3 0.001 0.0247016 0 -0.00086423 6.284e-05 0 -5.95902e-06 0 3.50471e-12
117 3 0.001 0.0253349 0 -0.000876747 -7.28875e-05 0 3.27465e-06 0 3.36756e-12
118 3 0.001 0.0259681 0 -0.000889296 1.07473e-05 0 9.54263e-06 0 2.31834e-12
119 3 0.001 0.0266014 0 -0.000901877 7.34624e-05 0 -3.49779e-06 0 3.73518e-12
120 3 0.001 0.0272346 0 -0.000914489 -0.000154035 0 -9.99512e-06 0 2.85643e-12
121 3 0.001 0.0278678 0 -0.000927133 0.000205779 0 4.05522e-06 0 4.0211e-12
122 3 0.001 0.0285011 0 -0.000939805 0.000137375 0 1.35951e-05 0 1.1482e-11
123 3 0.001 0.0291344 0 -0.000952504 -0.000225903 0 4.94199e-06 0 9.62237e-12
124 3 0.001 0.0297676 0 -0.000965231 0.00032681 0 -1.37344e-05 0 1.3673e-11
125 3 0.001 0.0304009 0 -0.000977991 -8.41421e-05 0 -1.91065e-06 0 2.03013e-11
126 3 0.001 0.0310342 0 -0.000990781 -0.000264107 0 1.21653e-06 0 9.89761e-12
127 3 0.001 0.0316674 0 -0.0010036 -0.000126323 0 -6.70431e-06 0 1.6203e-12
128 3 0.001 0.0323006 0 -0.00101645 -0.000157181 0 5.07808e-06 0 5.3231e-13
