ITEM: TIMESTEP
1000000
ITEM: NUMBER OF ATOMS
151
ITEM: BOX BOUNDS ff ff ff
-5.2499999999999998e-02 5.2499999999999998e-02
-6.0000000000000001e-03 6.0000000000000001e-03
-1.4999999999999999e-02 1.4999999999999999e-02
ITEM: ATOMS id type radius x y z fx fy fz c_bendingE c_stretchingE
148 3 0.001 0.0449671 0 -0.00922392 -2.96682e-06 0 3.85574e-07 0 3.28826e-08
149 3 0.001 0.0456 0 -0.0092929 -4.45609e-06 0 1.39275e-06 0 3.31449e-08
150 3 0.001 0.0462329 0 -0.00936189 3.37043e-06 0 6.15506e-07 0 4.04865e-08
2 2 0.001 0.0475 0 -0.0095 -0.0198445 0 0.00216274 0 2.3773e-08
151 3 0.001 0.0468665 0 -0.00943094 -3.80134e-06 0 1.516e-07 0 4.75534e-08
124 3 0.001 0.029778 0 -0.00756848 -8.28395e-07 0 -1.38391e-06 0 3.28871e-08
126 3 0.001 0.0310438 0 -0.00770642 1.29447e-06 0 4.38843e-07 0 3.28781e-08
125 3 0.001 0.0304109 0 -0.00763745 -2.9084e-06 0 1.17971e-06 0 3.2881e-08
129 3 0.001 0.0329424 0 -0.00791333 -2.59584e-06 0 -6.626e-07 0 3.28784e-08
128 3 0.001 0.0323096 0 -0.00784436 -2.47545e-07 0 -2.58777e-07 0 3.28829e-08
127 3 0.001 0.0316767 0 -0.00777539 9.18019e-07 0 -2.79909e-07 0 3.28817e-08
130 3 0.001 0.0335753 0 -0.0079823 2.01493e-06 0 1.17595e-06 0 3.28773e-08
131 3 0.001 0.0342082 0 -0.00805128 4.79966e-07 0 6.45259e-07 0 3.28811e-08
133 3 0.001 0.035474 0 -0.00818923 2.28261e-06 0 -1.19041e-06 0 3.28841e-08
132 3 0.001 0.0348411 0 -0.00812025 -5.17357e-07 0 -2.06425e-07 0 3.2881e-08
134 3 0.001 0.0361068 0 -0.0082582 -2.36589e-06 0 4.39966e-07 0 3.28841e-08
135 3 0.001 0.0367397 0 -0.00832718 -2.72528e-06 0 8.02699e-07 0 3.28756e-08
136 3 0.001 0.0373726 0 -0.00839615 -1.93845e-06 0 -2.39317e-07 0 3.28678e-08
137 3 0.001 0.0380055 0 -0.00846513 -2.83457e-07 0 -5.4885e-07 0 3.28644e-08
138 3 0.001 0.0386384 0 -0.00853411 -1.40015e-06 0 -1.52898e-07 0 3.28617e-08
139 3 0.001 0.0392712 0 -0.00860309 3.67628e-06 0 -6.08212e-07 0 3.28656e-08
140 3 0.001 0.0399041 0 -0.00867207 4.36804e-06 0 6.26152e-07 0 3.28788e-08
142 3 0.001 0.0411699 0 -0.00881003 5.01341e-07 0 8.48237e-07 0 3.28881e-08
143 3 0.001 0.0418027 0 -0.00887901 -3.02973e-06 0 -4.03231e-07 0 3.28839e-08
141 3 0.001 0.040537 0 -0.00874105 4.66692e-07 0 -2.50277e-07 0 3.28866e-08
145 3 0.001 0.0430685 0 -0.00901697 -1.00508e-06 0 3.45843e-07 0 3.28838e-08
144 3 0.001 0.0424356 0 -0.00894799 1.94416e-06 0 -2.94763e-07 0 3.28823e-08
146 3 0.001 0.0437014 0 -0.00908595 -3.342e-06 0 -2.27511e-07 0 3.28767e-08
147 3 0.001 0.0443343 0 -0.00915494 4.82216e-06 0 -1.38089e-06 0 3.28794e-08
100 3 0.001 0.0145889 0 -0.00591355 2.51453e-06 0 4.77793e-07 0 3.28846e-08
102 3 0.001 0.0158547 0 -0.00605142 9.62551e-07 0 8.12474e-07 0 3.28856e-08
103 3 0.001 0.0164876 0 -0.00612036 -4.33361e-06 0 8.98486e-07 0 3.28798e-08
101 3 0.001 0.0152218 0 -0.00598248 -1.36063e-06 0 7.53254e-08 0 3.28864e-08
105 3 0.001 0.0177533 0 -0.00625825 -1.00938e-06 0 -1.79021e-07 0 3.28678e-08
104 3 0.001 0.0171204 0 -0.00618931 -1.0438e-06 0 -6.88814e-07 0 3.2871e-08
106 3 0.001 0.0183862 0 -0.0063272 3.03626e-06 0 -5.25157e-07 0 3.28712e-08
107 3 0.001 0.0190191 0 -0.00639615 -2.28993e-06 0 9.50251e-07 0 3.28724e-08
108 3 0.001 0.019652 0 -0.0064651 2.01238e-06 0 -1.44072e-06 0 3.2872e-08
109 3 0.001 0.0202848 0 -0.00653405 3.80378e-06 0 -3.38437e-07 0 3.28819e-08
110 3 0.001 0.0209177 0 -0.006603 -8.08183e-06 0 7.57511e-07 0 3.28748e-08
111 3 0.001 0.0215506 0 -0.00667196 -1.49436e-06 0 1.55819e-06 0 3.28587e-08
112 3 0.001 0.0221835 0 -0.00674091 7.87657e-07 0 3.48882e-07 0 3.28572e-08
114 3 0.001 0.0234492 0 -0.00687883 -8.39803e-09 0 -3.43122e-07 0 3.28617e-08
113 3 0.001 0.0228164 0 -0.00680987 9.12879e-07 0 -4.44565e-07 0 3.286e-08
117 3 0.001 0.0253479 0 -0.00708571 1.52647e-06 0 -7.24082e-08 0 3.2872e-08
116 3 0.001 0.024715 0 -0.00701675 3.85164e-06 0 -4.24814e-07 0 3.28631e-08
115 3 0.001 0.0240821 0 -0.00694779 -1.51644e-06 0 6.17733e-08 0 3.28592e-08
118 3 0.001 0.0259808 0 -0.00715467 1.68976e-06 0 -1.81228e-06 0 3.28776e-08
119 3 0.001 0.0266136 0 -0.00722364 -9.24388e-07 0 5.25977e-07 0 3.28791e-08
120 3 0.001 0.0272465 0 -0.00729261 -1.89415e-06 0 1.85601e-07 0 3.28744e-08
121 3 0.001 0.0278794 0 -0.00736157 5.54425e-07 0 9.71855e-07 0 3.2872e-08
122 3 0.001 0.0285123 0 -0.00743054 -1.76336e-07 0 9.47582e-07 0 3.28722e-08
123 3 0.001 0.0291452 0 -0.00749951 4.87192e-06 0 -1.19999e-06 0 3.288e-08
76 3 0.001 -0.000600453 0 -0.00426052 -1.93409e-06 0 8.88061e-07 0 3.28857e-08
79 3 0.001 0.00129824 0 -0.00446689 1.60049e-06 0 -1.15474e-06 0 3.28831e-08
77 3 0.001 3.24475e-05 0 -0.00432929 -1.93752e-06 0 -9.28338e-07 0 3.28794e-08
78 3 0.001 0.000665347 0 -0.00439808 1.20338e-06 0 1.26236e-07 0 3.28783e-08
80 3 0.001 0.00193114 0 -0.0045357 9.39378e-08 0 -2.12648e-07 0 3.28861e-08
81 3 0.001 0.00256404 0 -0.00460453 -2.15063e-06 0 6.57407e-07 0 3.28827e-08
84 3 0.001 0.00446272 0 -0.00481107 -1.40526e-06 0 4.60771e-07 0 3.28959e-08
83 3 0.001 0.00382982 0 -0.00474221 3.08043e-06 0 1.59456e-07 0 3.28933e-08
82 3 0.001 0.00319693 0 -0.00467337 2.79092e-06 0 -1.61917e-07 0 3.28837e-08
85 3 0.001 0.00509561 0 -0.00487993 -3.09866e-06 0 -1.2788e-07 0 3.28885e-08
86 3 0.001 0.0057285 0 -0.0049488 5.07565e-08 0 3.12523e-07 0 3.28835e-08
87 3 0.001 0.00636139 0 -0.00501768 2.2823e-07 0 -3.07693e-07 0 3.28839e-08
88 3 0.001 0.00699428 0 -0.00508657 -1.1428e-06 0 -1.34433e-07 0 3.28825e-08
89 3 0.001 0.00762717 0 -0.00515546 -6.51003e-07 0 -6.67192e-07 0 3.28797e-08
90 3 0.001 0.00826005 0 -0.00522435 -7.4361e-07 0 2.12212e-07 0 3.28775e-08
91 3 0.001 0.00889294 0 -0.00529325 -2.37097e-06 0 8.85188e-07 0 3.28722e-08
93 3 0.001 0.0101587 0 -0.00543107 5.29233e-06 0 -7.73021e-07 0 3.28632e-08
92 3 0.001 0.00952583 0 -0.00536216 -4.10485e-06 0 1.11788e-06 0 3.28613e-08
94 3 0.001 0.0107916 0 -0.00549999 4.47332e-06 0 -7.1756e-07 0 3.28794e-08
95 3 0.001 0.0114245 0 -0.00556891 2.0278e-06 0 -6.15384e-07 0 3.28903e-08
96 3 0.001 0.0120574 0 -0.00563783 -2.79971e-06 0 5.78901e-07 0 3.28891e-08
97 3 0.001 0.0126903 0 -0.00570675 -5.29072e-06 0 9.70446e-07 0 3.28755e-08
98 3 0.001 0.0133231 0 -0.00577568 -7.54538e-07 0 1.98646e-07 0 3.28654e-08
99 3 0.001 0.013956 0 -0.00584461 4.81103e-06 0 -1.92789e-06 0 3.28724e-08
51 3 0.001 -0.0164241 0 -0.00255153 2.06967e-07 0 1.36965e-07 0 3.28644e-08
52 3 0.001 -0.0157911 0 -0.00261917 2.99489e-06 0 -4.09134e-07 0 3.28697e-08
53 3 0.001 -0.0151581 0 -0.00268691 7.26621e-06 0 -3.65865e-07 0 3.28867e-08
55 3 0.001 -0.0138921 0 -0.00282265 -6.61078e-06 0 3.87919e-07 0 3.28824e-08
54 3 0.001 -0.0145251 0 -0.00275474 -1.58583e-06 0 4.99113e-07 0 3.2896e-08
57 3 0.001 -0.0126261 0 -0.00295872 2.53263e-06 0 -1.63884e-06 0 3.28737e-08
56 3 0.001 -0.0132591 0 -0.00289065 -6.56375e-07 0 3.67898e-07 0 3.28704e-08
60 3 0.001 -0.0107272 0 -0.00316331 -3.2483e-06 0 2.31019e-07 0 3.2889e-08
58 3 0.001 -0.0119931 0 -0.00302686 2.91755e-06 0 4.68146e-07 0 3.28829e-08
59 3 0.001 -0.0113602 0 -0.00309505 2.03092e-06 0 -4.38063e-07 0 3.2891e-08
62 3 0.001 -0.00946131 0 -0.00329998 -3.16441e-06 0 4.73585e-08 0 3.28637e-08
61 3 0.001 -0.0100943 0 -0.00323162 -4.42333e-06 0 8.35983e-07 0 3.28763e-08
64 3 0.001 -0.00819544 0 -0.00343683 4.26719e-06 0 -5.41145e-07 0 3.28589e-08
65 3 0.001 -0.00756251 0 -0.00350531 2.88986e-06 0 7.82415e-08 0 3.28707e-08
63 3 0.001 -0.00882837 0 -0.00336838 -1.98556e-06 0 7.07727e-07 0 3.28552e-08
66 3 0.001 -0.00692958 0 -0.00357383 -2.31385e-07 0 3.9081e-07 0 3.2875e-08
67 3 0.001 -0.00629665 0 -0.00364239 -1.26883e-06 0 -5.87493e-08 0 3.28724e-08
68 3 0.001 -0.00566373 0 -0.00371097 2.39895e-06 0 -7.93171e-07 0 3.28745e-08
69 3 0.001 -0.00503081 0 -0.00377959 1.37469e-06 0 -1.13925e-06 0 3.2881e-08
71 3 0.001 -0.00376499 0 -0.00391689 2.13518e-07 0 7.59189e-07 0 3.28847e-08
72 3 0.001 -0.00313208 0 -0.00398558 -1.68665e-08 0 -6.26145e-07 0 3.2885e-08
70 3 0.001 -0.0043979 0 -0.00384823 2.82085e-07 0 -4.50309e-07 0 3.2884e-08
73 3 0.001 -0.00249917 0 -0.00405429 -4.28073e-07 0 1.23099e-06 0 3.28842e-08
74 3 0.001 -0.00186626 0 -0.00412301 -4.60813e-07 0 1.6775e-07 0 3.28825e-08
75 3 0.001 -0.00123336 0 -0.00419176 2.24036e-06 0 4.93875e-08 0 3.28854e-08
26 3 0.001 -0.0322574 0 -0.000935524 2.43525e-06 0 1.94659e-06 0 3.28709e-08
27 3 0.001 -0.0316235 0 -0.000994945 1.36633e-06 0 -9.64159e-07 0 3.28782e-08
25 3 0.001 -0.0328913 0 -0.00087689 1.51313e-06 0 1.42017e-08 0 3.28633e-08
29 3 0.001 -0.030356 0 -0.00111591 9.34556e-07 0 -8.45147e-07 0 3.28771e-08
28 3 0.001 -0.0309898 0 -0.00105509 -2.11903e-06 0 1.93541e-07 0 3.28781e-08
31 3 0.001 -0.0290888 0 -0.00123936 1.07087e-06 0 -4.07062e-07 0 3.28844e-08
30 3 0.001 -0.0297224 0 -0.00117735 8.06321e-07 0 4.34443e-07 0 3.28807e-08
33 3 0.001 -0.0278217 0 -0.00136494 -6.23211e-06 0 6.852e-07 0 3.28762e-08
34 3 0.001 -0.0271883 0 -0.00142842 1.12475e-06 0 7.84879e-07 0 3.2868e-08
32 3 0.001 -0.0284552 0 -0.0013019 -3.77212e-07 0 -1.52462e-06 0 3.28864e-08
35 3 0.001 -0.0265549 0 -0.00149232 2.04014e-06 0 7.60376e-07 0 3.28733e-08
36 3 0.001 -0.0259215 0 -0.0015566 3.91721e-07 0 1.01831e-06 0 3.28772e-08
38 3 0.001 -0.0246549 0 -0.00168621 -4.65402e-06 0 3.58029e-07 0 3.28623e-08
39 3 0.001 -0.0240216 0 -0.00175148 1.95882e-06 0 -2.77562e-07 0 3.2858e-08
37 3 0.001 -0.0252882 0 -0.00162124 -2.61002e-06 0 -1.11036e-06 0 3.28739e-08
41 3 0.001 -0.0227551 0 -0.00188284 -8.52993e-07 0 -2.14153e-07 0 3.2856e-08
40 3 0.001 -0.0233884 0 -0.00181703 -1.23187e-06 0 4.35833e-07 0 3.28594e-08
42 3 0.001 -0.0221219 0 -0.0019489 -7.94259e-07 0 -1.14082e-06 0 3.28537e-08
43 3 0.001 -0.0214888 0 -0.00201517 2.36226e-06 0 1.12955e-06 0 3.28563e-08
45 3 0.001 -0.0202225 0 -0.00214831 -1.63623e-06 0 1.36965e-06 0 3.2873e-08
46 3 0.001 -0.0195894 0 -0.00221515 2.90718e-06 0 -1.26548e-06 0 3.28752e-08
44 3 0.001 -0.0208556 0 -0.00208164 4.7325e-06 0 -8.30732e-07 0 3.2868e-08
47 3 0.001 -0.0189563 0 -0.00228215 -5.27466e-07 0 1.1191e-07 0 3.28793e-08
48 3 0.001 -0.0183232 0 -0.0023493 -5.68265e-06 0 6.54125e-07 0 3.28691e-08
50 3 0.001 -0.0170571 0 -0.002484 -7.15515e-07 0 3.83693e-07 0 3.28653e-08
49 3 0.001 -0.0176902 0 -0.00241659 2.01697e-06 0 -7.14898e-07 0 3.28631e-08
1 1 0.001 -0.0475 0 0 -0.0040932 0 0.024523 0 1.60362e-34
3 3 0.001 -0.0468667 0 0 0.0239404 0 -0.0266848 0 2.36931e-08
4 3 0.001 -0.0462295 0 -9.7818e-06 -3.93554e-06 0 -3.94406e-07 0 4.02927e-08
5 3 0.001 -0.045593 0 -2.40722e-05 5.49946e-06 0 -2.54349e-07 0 3.29333e-08
6 3 0.001 -0.0449566 0 -4.2536e-05 -5.94086e-07 0 3.56336e-07 0 3.26815e-08
7 3 0.001 -0.0443204 0 -6.4855e-05 -1.16618e-06 0 9.22855e-07 0 3.27066e-08
8 3 0.001 -0.0436843 0 -9.07351e-05 4.14847e-06 0 -7.62715e-07 0 3.27355e-08
9 3 0.001 -0.0430484 0 -0.000119904 -1.26996e-06 0 -4.31697e-08 0 3.27608e-08
10 3 0.001 -0.0424125 0 -0.000152112 2.59988e-06 0 -1.52526e-06 0 3.27806e-08
11 3 0.001 -0.0417769 0 -0.000187125 4.65644e-06 0 3.47431e-07 0 3.28076e-08
12 3 0.001 -0.0411414 0 -0.00022473 -5.76684e-07 0 -3.76378e-07 0 3.28271e-08
13 3 0.001 -0.040506 0 -0.000264729 -2.53472e-07 0 -2.6957e-07 0 3.28367e-08
14 3 0.001 -0.0398708 0 -0.000306938 -1.31419e-06 0 -1.90326e-07 0 3.28435e-08
15 3 0.001 -0.0392357 0 -0.000351188 -4.18252e-06 0 1.27927e-06 0 3.28423e-08
16 3 0.001 -0.0386008 0 -0.000397324 -3.74882e-06 0 6.5899e-07 0 3.28358e-08
17 3 0.001 -0.0379659 0 -0.0004452 -2.29731e-06 0 1.27302e-06 0 3.28314e-08
18 3 0.001 -0.0373312 0 -0.000494685 1.70361e-06 0 -1.32804e-06 0 3.28354e-08
19 3 0.001 -0.0366967 0 -0.000545655 3.73214e-06 0 -1.06182e-07 0 3.28487e-08
20 3 0.001 -0.0360622 0 -0.000597997 6.51296e-08 0 -2.97953e-07 0 3.28586e-08
21 3 0.001 -0.0354278 0 -0.000651607 -4.27247e-07 0 7.59759e-07 0 3.2861e-08
22 3 0.001 -0.0347936 0 -0.000706387 3.87907e-06 0 -9.76847e-07 0 3.28693e-08
23 3 0.001 -0.0341594 0 -0.000762248 -3.7066e-06 0 -9.00181e-07 0 3.28721e-08
24 3 0.001 -0.0335253 0 -0.000819108 -2.63938e-06 0 5.65711e-07 0 3.28636e-08
