ITEM: TIMESTEP
500000
ITEM: NUMBER OF ATOMS
151
ITEM: BOX BOUNDS ff ff ff
-5.5000000000000000e-02 5.5000000000000000e-02
-6.0000000000000001e-03 6.0000000000000001e-03
-2.5000000000000001e-02 2.5000000000000001e-02
ITEM: ATOMS id type radius x y z fx fy fz c_bendingE c_stretchingE
1 1 0.001 -0.05 0 0 -0.0034167 0 0.000282493 0 1.14427e-32
3 3 0.001 -0.0493333 0 0 0.00347255 0 -0.000284408 0 5.23378e-10
4 3 0.001 -0.0486661 0 -1.30747e-07 -6.62952e-07 0 -1.02807e-07 0 5.2351e-10
5 3 0.001 -0.0479994 0 -3.26329e-07 -2.69125e-05 0 -1.15491e-07 0 1.66941e-13
6 3 0.001 -0.0473327 0 -5.86398e-07 7.31296e-06 0 2.08808e-07 0 8.96933e-14
7 3 0.001 -0.046666 0 -9.10464e-07 -1.61426e-05 0 3.04335e-07 0 7.13926e-14
8 3 0.001 -0.0459994 0 -1.29808e-06 9.61982e-06 0 1.66967e-07 0 5.30824e-14
9 3 0.001 -0.0453327 0 -1.74889e-06 -6.99981e-07 0 -1.21374e-07 0 7.15927e-14
10 3 0.001 -0.044666 0 -2.26254e-06 -4.02583e-05 0 -3.06255e-07 0 4.10604e-14
11 3 0.001 -0.0439994 0 -2.83868e-06 1.11425e-05 0 -3.2014e-07 0 6.16034e-15
12 3 0.001 -0.0433327 0 -3.47688e-06 -1.31906e-05 0 3.20923e-07 0 8.45807e-15
13 3 0.001 -0.042666 0 -4.17661e-06 -1.78824e-05 0 3.28056e-07 0 5.23876e-14
14 3 0.001 -0.0419994 0 -4.93745e-06 -1.17499e-05 0 -1.15905e-07 0 1.26378e-13
15 3 0.001 -0.0413327 0 -5.75902e-06 2.05678e-06 0 -3.4419e-07 0 1.57265e-13
16 3 0.001 -0.0406661 0 -6.64094e-06 1.56943e-05 0 7.48585e-08 0 1.03799e-13
17 3 0.001 -0.0399994 0 -7.58271e-06 1.19942e-05 0 1.8809e-09 0 3.72655e-14
18 3 0.001 -0.0393327 0 -8.58389e-06 9.64353e-06 0 -7.4936e-08 0 9.06893e-15
19 3 0.001 -0.0386661 0 -9.64403e-06 2.84313e-05 0 -1.28815e-07 0 2.6275e-14
20 3 0.001 -0.0379994 0 -1.07627e-05 -1.82515e-05 0 1.49567e-07 0 2.70731e-14
21 3 0.001 -0.0373327 0 -1.19393e-05 -4.56631e-05 0 2.48355e-07 0 6.98541e-14
22 3 0.001 -0.0366661 0 -1.31734e-05 7.02604e-06 0 -1.60359e-07 0 1.14534e-13
23 3 0.001 -0.0359994 0 -1.44647e-05 -5.03693e-05 0 1.20761e-07 0 3.45307e-13
24 3 0.001 -0.0353328 0 -1.58126e-05 3.79889e-05 0 1.90194e-08 0 3.87041e-13
25 3 0.001 -0.0346661 0 -1.72167e-05 2.99653e-05 0 -4.05036e-08 0 9.78133e-14
26 3 0.001 -0.0339994 0 -1.86766e-05 -2.96299e-05 0 8.31946e-08 0 9.6514e-14
27 3 0.001 -0.0333328 0 -2.01919e-05 2.76478e-05 0 -2.7864e-07 0 9.92734e-14
28 3 0.001 -0.0326661 0 -2.17621e-05 -7.8433e-07 0 9.57922e-08 0 2.63883e-14
29 3 0.001 -0.0319995 0 -2.33868e-05 1.18129e-05 0 1.01772e-07 0 1.53573e-14
30 3 0.001 -0.0313328 0 -2.50655e-05 -3.21884e-05 0 9.50686e-08 0 6.49112e-14
31 3 0.001 -0.0306661 0 -2.67978e-05 3.38233e-05 0 -3.1211e-08 0 6.41747e-14
32 3 0.001 -0.0299995 0 -2.85833e-05 2.80479e-05 0 -2.92679e-07 0 2.51479e-14
33 3 0.001 -0.0293328 0 -3.04215e-05 -1.12026e-05 0 -7.80258e-08 0 3.10583e-14
34 3 0.001 -0.0286661 0 -3.23121e-05 1.61821e-05 0 -1.25336e-07 0 4.23593e-14
35 3 0.001 -0.0279995 0 -3.42545e-05 -7.79579e-06 0 1.10843e-07 0 5.44901e-14
36 3 0.001 -0.0273328 0 -3.62482e-05 -9.18556e-06 0 1.43252e-07 0 2.47832e-14
37 3 0.001 -0.0266661 0 -3.82928e-05 -6.38503e-06 0 -1.25772e-07 0 7.12194e-15
38 3 0.001 -0.0259995 0 -4.03878e-05 -3.23792e-05 0 3.28588e-07 0 3.30725e-14
39 3 0.001 -0.0253328 0 -4.25327e-05 1.55214e-05 0 2.12226e-08 0 3.76723e-14
40 3 0.001 -0.0246662 0 -4.47271e-05 2.5457e-05 0 -1.23118e-07 0 1.41782e-14
41 3 0.001 -0.0239995 0 -4.69705e-05 -2.88516e-05 0 -2.60931e-07 0 1.80909e-14
42 3 0.001 -0.0233328 0 -4.92626e-05 1.65085e-05 0 7.76174e-08 0 9.82759e-15
43 3 0.001 -0.0226662 0 -5.16029e-05 9.26076e-06 0 2.81345e-07 0 5.16531e-15
44 3 0.001 -0.0219995 0 -5.39908e-05 -2.89663e-05 0 2.52376e-07 0 1.93846e-14
45 3 0.001 -0.0213328 0 -5.6426e-05 1.82837e-05 0 -3.78614e-07 0 1.43227e-14
46 3 0.001 -0.0206662 0 -5.89081e-05 -1.10232e-05 0 1.05547e-08 0 5.16452e-15
47 3 0.001 -0.0199995 0 -6.14366e-05 -2.38856e-05 0 -3.04405e-08 0 5.77059e-14
48 3 0.001 -0.0193329 0 -6.40111e-05 5.78831e-06 0 2.36139e-08 0 8.90543e-14
49 3 0.001 -0.0186662 0 -6.66311e-05 1.42196e-05 0 1.44469e-07 0 4.59994e-14
50 3 0.001 -0.0179996 0 -6.92962e-05 -2.02739e-05 0 1.51612e-07 0 6.28338e-14
51 3 0.001 -0.0173329 0 -7.20059e-05 -1.37269e-05 0 5.91177e-08 0 1.5665e-13
52 3 0.001 -0.0166662 0 -7.47598e-05 1.89955e-05 0 -1.70804e-07 0 1.41822e-13
53 3 0.001 -0.0159996 0 -7.75576e-05 3.27276e-05 0 -1.21815e-07 0 3.88934e-14
54 3 0.001 -0.0153329 0 -8.03987e-05 4.41254e-05 0 -2.73851e-07 0 9.65231e-14
55 3 0.001 -0.0146663 0 -8.32829e-05 -4.84901e-06 0 1.66339e-07 0 1.73518e-13
56 3 0.001 -0.0139996 0 -8.62095e-05 1.40122e-05 0 -3.75641e-08 0 2.14625e-13
57 3 0.001 -0.0133329 0 -8.91783e-05 4.59657e-06 0 1.24938e-07 0 2.97857e-13
58 3 0.001 -0.0126663 0 -9.21888e-05 -6.01122e-05 0 1.71491e-07 0 1.60624e-13
59 3 0.001 -0.0119996 0 -9.52406e-05 -8.61007e-06 0 -5.84157e-09 0 2.72619e-15
60 3 0.001 -0.0113329 0 -9.83333e-05 -1.12869e-05 0 6.27815e-08 0 1.86679e-14
61 3 0.001 -0.0106663 0 -0.000101467 -4.30153e-05 0 1.29813e-08 0 1.83841e-13
62 3 0.001 -0.00999963 0 -0.00010464 -1.38729e-05 0 2.44523e-07 0 4.19016e-13
63 3 0.001 -0.00933298 0 -0.000107853 -1.53373e-05 0 8.23704e-08 0 6.13771e-13
64 3 0.001 -0.00866634 0 -0.000111105 1.74631e-05 0 -2.11141e-07 0 5.99941e-13
65 3 0.001 -0.00799969 0 -0.000114396 4.34652e-05 0 -2.72094e-07 0 2.77627e-13
66 3 0.001 -0.00733304 0 -0.000117726 3.57495e-05 0 -1.32065e-07 0 4.15236e-14
67 3 0.001 -0.00666638 0 -0.000121094 -4.57345e-05 0 3.95248e-07 0 7.22671e-14
68 3 0.001 -0.00599973 0 -0.000124499 -2.26138e-05 0 6.54252e-08 0 2.43734e-13
69 3 0.001 -0.00533308 0 -0.000127941 5.60766e-05 0 -2.85271e-07 0 1.74797e-13
70 3 0.001 -0.00466643 0 -0.000131421 1.30762e-05 0 -1.26822e-07 0 3.72938e-15
71 3 0.001 -0.00399977 0 -0.000134936 -3.21933e-05 0 2.44481e-07 0 3.12017e-14
72 3 0.001 -0.00333312 0 -0.000138487 -2.57839e-05 0 -1.46131e-07 0 1.46497e-13
73 3 0.001 -0.00266647 0 -0.000142074 1.66718e-06 0 1.49028e-07 0 2.26423e-13
74 3 0.001 -0.00199982 0 -0.000145696 2.42119e-05 0 -2.27074e-07 0 1.38907e-13
75 3 0.001 -0.00133317 0 -0.000149353 -1.23257e-05 0 4.03304e-08 0 9.32007e-14
76 3 0.001 -0.000666519 0 -0.000153043 4.21904e-05 0 -1.57888e-07 0 6.44578e-14
77 3 0.001 1.37605e-07 0 -0.000156767 -2.50909e-06 0 2.03403e-07 0 7.20025e-16
78 3 0.001 0.000666794 0 -0.000160525 -1.87959e-05 0 -7.96817e-08 0 1.3305e-14
79 3 0.001 0.00133345 0 -0.000164315 1.54808e-05 0 1.42501e-07 0 1.33972e-14
80 3 0.001 0.0020001 0 -0.000168138 -3.99767e-05 0 4.68932e-09 0 7.65691e-14
81 3 0.001 0.00266675 0 -0.000171992 2.64346e-06 0 -4.05751e-08 0 1.43471e-13
82 3 0.001 0.0033334 0 -0.000175878 9.99517e-07 0 2.24085e-08 0 1.30771e-13
83 3 0.001 0.00400005 0 -0.000179795 4.58667e-05 0 -3.07943e-07 0 6.61795e-14
84 3 0.001 0.0046667 0 -0.000183743 1.15801e-05 0 6.62079e-08 0 1.83833e-14
85 3 0.001 0.00533336 0 -0.00018772 -3.15819e-05 0 9.33392e-08 0 2.26194e-14
86 3 0.001 0.00600001 0 -0.000191728 -1.18065e-05 0 7.44004e-08 0 3.224e-14
87 3 0.001 0.00666666 0 -0.000195764 -8.29182e-06 0 -3.45985e-08 0 7.14937e-14
88 3 0.001 0.00733331 0 -0.00019983 2.32663e-05 0 1.00154e-07 0 4.97092e-14
89 3 0.001 0.00799997 0 -0.000203923 -3.16711e-07 0 1.14386e-08 0 7.73757e-15
90 3 0.001 0.00866662 0 -0.000208045 -3.84785e-05 0 2.55272e-07 0 1.04324e-13
91 3 0.001 0.00933326 0 -0.000212194 -4.00299e-05 0 2.98964e-07 0 4.37277e-13
92 3 0.001 0.0099999 0 -0.00021637 -3.75095e-06 0 9.40779e-08 0 7.03213e-13
93 3 0.001 0.0106665 0 -0.000220573 4.52903e-05 0 -4.15185e-07 0 4.60397e-13
94 3 0.001 0.0113332 0 -0.000224802 4.3934e-06 0 -1.57418e-07 0 1.71351e-13
95 3 0.001 0.0119998 0 -0.000229057 2.17189e-05 0 -2.20763e-07 0 9.53877e-14
96 3 0.001 0.0126665 0 -0.000233337 2.4904e-05 0 -9.19892e-08 0 1.90278e-14
97 3 0.001 0.0133331 0 -0.000237642 -1.06961e-05 0 1.51708e-07 0 2.5539e-15
98 3 0.001 0.0139998 0 -0.000241972 5.39741e-05 0 -3.16434e-07 0 1.00531e-13
99 3 0.001 0.0146664 0 -0.000246326 1.56906e-05 0 -3.37047e-08 0 2.7333e-13
100 3 0.001 0.0153331 0 -0.000250704 -4.89522e-05 0 2.26919e-07 0 1.83559e-13
101 3 0.001 0.0159998 0 -0.000255105 -1.4072e-05 0 5.17806e-08 0 9.06904e-15
102 3 0.001 0.0166664 0 -0.000259528 -2.35919e-05 0 1.98266e-10 0 2.34079e-14
103 3 0.001 0.0173331 0 -0.000263974 -1.46077e-05 0 2.72504e-08 0 8.55074e-14
104 3 0.001 0.0179997 0 -0.000268442 2.62613e-05 0 2.24804e-08 0 6.79125e-14
105 3 0.001 0.0186664 0 -0.000272932 -8.49813e-06 0 2.17773e-07 0 2.32839e-14
106 3 0.001 0.019333 0 -0.000277442 8.59692e-06 0 1.13324e-07 0 2.31895e-14
107 3 0.001 0.0199997 0 -0.000281973 2.05819e-06 0 -1.92436e-07 0 9.55885e-15
108 3 0.001 0.0206663 0 -0.000286524 -1.96801e-05 0 2.47989e-07 0 4.05839e-14
109 3 0.001 0.021333 0 -0.000291094 8.30283e-06 0 -2.1384e-07 0 5.54933e-14
110 3 0.001 0.0219996 0 -0.000295685 3.39376e-06 0 -1.64694e-07 0 3.18847e-14
111 3 0.001 0.0226662 0 -0.000300294 -2.35446e-05 0 9.58157e-08 0 8.58656e-14
112 3 0.001 0.0233329 0 -0.000304921 1.00824e-05 0 -1.15801e-07 0 1.14057e-13
113 3 0.001 0.0239995 0 -0.000309567 2.01962e-05 0 -2.59259e-07 0 4.62499e-14
114 3 0.001 0.0246662 0 -0.00031423 -2.96302e-05 0 2.44545e-07 0 7.53721e-14
115 3 0.001 0.0253328 0 -0.00031891 2.11143e-05 0 -4.97092e-08 0 8.63922e-14
116 3 0.001 0.0259995 0 -0.000323607 5.92972e-06 0 7.56619e-08 0 2.35572e-14
117 3 0.001 0.0266661 0 -0.00032832 -7.19279e-06 0 2.61614e-07 0 2.57282e-14
118 3 0.001 0.0273328 0 -0.000333049 2.7273e-05 0 -3.35157e-08 0 2.01501e-14
119 3 0.001 0.0279994 0 -0.000337792 1.67743e-05 0 -2.0207e-07 0 2.62256e-14
120 3 0.001 0.0286661 0 -0.000342551 6.38357e-06 0 -2.46178e-07 0 6.32475e-14
121 3 0.001 0.0293327 0 -0.000347324 7.88522e-06 0 -1.30556e-07 0 1.0133e-13
122 3 0.001 0.0299994 0 -0.000352111 -3.09544e-05 0 1.30914e-07 0 6.43603e-14
123 3 0.001 0.030666 0 -0.000356911 -1.44764e-05 0 2.23801e-07 0 4.55721e-15
124 3 0.001 0.0313327 0 -0.000361725 9.3345e-06 0 -1.70148e-07 0 2.61397e-15
125 3 0.001 0.0319993 0 -0.000366551 -3.63467e-05 0 3.27184e-07 0 5.19984e-14
126 3 0.001 0.032666 0 -0.00037139 1.73713e-05 0 -2.14707e-07 0 6.46894e-14
127 3 0.001 0.0333326 0 -0.00037624 -4.57937e-06 0 2.19605e-07 0 3.34024e-14
128 3 0.001 0.0339993 0 -0.000381101 1.5131e-05 0 -4.28507e-08 0 2.24867e-14
129 3 0.001 0.0346659 0 -0.000385973 -2.84134e-05 0 1.91378e-07 0 5.52346e-14
130 3 0.001 0.0353326 0 -0.000390856 6.84493e-06 0 -2.0154e-07 0 8.78412e-14
131 3 0.001 0.0359992 0 -0.000395748 4.31667e-06 0 -8.83048e-08 0 5.92745e-14
132 3 0.001 0.0366658 0 -0.00040065 -5.06476e-05 0 3.96391e-07 0 2.65851e-13
133 3 0.001 0.0373325 0 -0.000405561 4.93245e-05 0 -2.36042e-07 0 2.68672e-13
134 3 0.001 0.0379991 0 -0.00041048 2.18819e-05 0 -1.70549e-07 0 2.8056e-14
135 3 0.001 0.0386658 0 -0.000415408 1.80613e-06 0 -9.81664e-08 0 5.79781e-16
136 3 0.001 0.0393324 0 -0.000420344 2.19121e-06 0 -1.18064e-07 0 1.19743e-16
137 3 0.001 0.0399991 0 -0.000425286 -1.25948e-05 0 2.6069e-07 0 6.19302e-15
138 3 0.001 0.0406657 0 -0.000430236 -1.92237e-05 0 1.47107e-07 0 4.82916e-14
139 3 0.001 0.0413324 0 -0.000435191 5.38797e-06 0 -1.22123e-07 0 7.09174e-14
140 3 0.001 0.041999 0 -0.000440153 -6.69708e-06 0 1.72352e-07 0 7.45153e-14
141 3 0.001 0.0426656 0 -0.000445119 1.80083e-05 0 4.36953e-08 0 5.47724e-14
142 3 0.001 0.0433323 0 -0.000450091 8.1462e-06 0 6.27323e-08 0 1.07764e-14
143 3 0.001 0.0439989 0 -0.000455068 -8.01179e-07 0 -8.06372e-08 0 3.90471e-15
144 3 0.001 0.0446656 0 -0.000460048 3.87084e-05 0 -4.90349e-07 0 4.55671e-14
145 3 0.001 0.0453322 0 -0.000465033 -1.42948e-05 0 -1.51388e-07 0 5.6408e-14
146 3 0.001 0.0459989 0 -0.00047002 1.93502e-05 0 -4.81814e-08 0 7.13998e-14
147 3 0.001 0.0466655 0 -0.000475011 -1.09947e-05 0 2.55826e-07 0 8.69897e-14
148 3 0.001 0.0473322 0 -0.000480004 -9.05225e-06 0 -7.91642e-08 0 4.06154e-14
149 3 0.001 0.0479988 0 -0.000484999 2.63611e-05 0 -3.13253e-07 0 9.22238e-14
150 3 0.001 0.0486655 0 -0.000489995 6.62029e-07 0 9.08002e-08 0 5.18397e-10
2 2 0.001 0.05 0 -0.0005 -6.94602e-05 0 2.73466e-06 0 5.26092e-10
151 3 0.001 0.0493327 0 -0.000494997 2.58209e-05 0 -3.54937e-07 0 1.04441e-09
