ITEM: TIMESTEP
7800000
ITEM: NUMBER OF ATOMS
151
ITEM: BOX BOUNDS ff ff ff
-5.5000000000000000e-02 5.5000000000000000e-02
-6.0000000000000001e-03 6.0000000000000001e-03
-2.5000000000000001e-02 2.5000000000000001e-02
ITEM: ATOMS id type radius x y z fx fy fz c_bendingE c_stretchingE
140 3 0.001 0.0420033 0 -0.00710698 -7.60667e-09 0 -8.16794e-08 0 1.30074e-08
141 3 0.001 0.0426696 0 -0.00716472 9.02364e-09 0 4.04722e-08 0 1.30074e-08
142 3 0.001 0.0433359 0 -0.00722246 6.17417e-09 0 2.77532e-08 0 1.30075e-08
143 3 0.001 0.0440022 0 -0.00728021 -9.74332e-09 0 -7.04509e-08 0 1.30075e-08
144 3 0.001 0.0446685 0 -0.00733795 1.87266e-09 0 4.47674e-08 0 1.30074e-08
145 3 0.001 0.0453348 0 -0.00739569 6.20905e-09 0 3.29842e-08 0 1.30075e-08
148 3 0.001 0.0473337 0 -0.00756892 5.35146e-09 0 4.67752e-08 0 1.30074e-08
146 3 0.001 0.0460011 0 -0.00745344 -8.53668e-09 0 -7.44279e-08 0 1.30075e-08
147 3 0.001 0.0466674 0 -0.00751118 -4.90928e-09 0 1.74389e-08 0 1.30074e-08
149 3 0.001 0.0479999 0 -0.00762667 1.47741e-09 0 -7.23825e-08 0 1.30074e-08
150 3 0.001 0.0486662 0 -0.00768441 9.30464e-09 0 8.82205e-08 0 1.70944e-08
2 2 0.001 0.05 0 -0.0078 -0.0121954 0 0.00105706 0 1.05907e-08
151 3 0.001 0.0493331 0 -0.00774221 -1.05905e-08 0 -5.56692e-08 0 2.11814e-08
113 3 0.001 0.0240133 0 -0.00554828 -2.46524e-09 0 -2.49947e-09 0 1.30074e-08
114 3 0.001 0.0246796 0 -0.00560599 3.92047e-10 0 -2.83527e-08 0 1.30074e-08
115 3 0.001 0.0253459 0 -0.0056637 3.64174e-09 0 6.9381e-09 0 1.30074e-08
116 3 0.001 0.0260122 0 -0.00572142 -2.57876e-09 0 -3.88351e-09 0 1.30074e-08
117 3 0.001 0.0266785 0 -0.00577913 8.13216e-09 0 1.12988e-07 0 1.30074e-08
118 3 0.001 0.0273448 0 -0.00583685 -1.19667e-08 0 -1.92279e-07 0 1.30074e-08
120 3 0.001 0.0286774 0 -0.00595229 1.14202e-09 0 8.38554e-08 0 1.30074e-08
121 3 0.001 0.0293437 0 -0.00601002 -1.69447e-08 0 -1.61588e-07 0 1.30074e-08
119 3 0.001 0.0280111 0 -0.00589457 9.80359e-09 0 9.44073e-08 0 1.30074e-08
122 3 0.001 0.03001 0 -0.00606774 1.01564e-08 0 8.66442e-08 0 1.30074e-08
123 3 0.001 0.0306763 0 -0.00612547 3.58595e-09 0 1.37837e-08 0 1.30074e-08
124 3 0.001 0.0313426 0 -0.0061832 -6.15701e-10 0 5.83276e-10 0 1.30074e-08
125 3 0.001 0.0320089 0 -0.00624093 -5.79586e-09 0 -6.3609e-08 0 1.30074e-08
126 3 0.001 0.0326752 0 -0.00629866 9.39257e-09 0 8.1977e-08 0 1.30074e-08
127 3 0.001 0.0333415 0 -0.00635639 -3.59453e-09 0 -4.39378e-08 0 1.30074e-08
128 3 0.001 0.0340078 0 -0.00641412 -6.71458e-09 0 -5.05265e-08 0 1.30074e-08
129 3 0.001 0.0346741 0 -0.00647186 7.83545e-09 0 1.01337e-07 0 1.30074e-08
130 3 0.001 0.0353403 0 -0.00652959 -3.73709e-09 0 -5.83415e-08 0 1.30074e-08
131 3 0.001 0.0360066 0 -0.00658733 -2.64655e-09 0 -1.81554e-08 0 1.30074e-08
132 3 0.001 0.0366729 0 -0.00664506 5.10027e-09 0 9.45627e-08 0 1.30074e-08
133 3 0.001 0.0373392 0 -0.0067028 -8.54765e-09 0 -1.33313e-07 0 1.30074e-08
134 3 0.001 0.0380055 0 -0.00676054 1.50873e-08 0 1.18368e-07 0 1.30074e-08
135 3 0.001 0.0386718 0 -0.00681828 -1.01744e-08 0 -1.04014e-07 0 1.30075e-08
136 3 0.001 0.0393381 0 -0.00687602 7.30996e-09 0 1.07227e-07 0 1.30074e-08
137 3 0.001 0.0400044 0 -0.00693376 -4.13892e-09 0 -5.05837e-08 0 1.30074e-08
138 3 0.001 0.0406707 0 -0.0069915 -5.20295e-09 0 -5.05708e-08 0 1.30074e-08
139 3 0.001 0.041337 0 -0.00704924 4.19953e-09 0 9.3368e-08 0 1.30074e-08
86 3 0.001 0.00602312 0 -0.00399206 -1.00444e-08 0 -8.33196e-08 0 1.30074e-08
87 3 0.001 0.00668943 0 -0.00404958 -1.47584e-09 0 -4.38377e-08 0 1.30074e-08
88 3 0.001 0.00735575 0 -0.00410712 6.90325e-09 0 6.361e-08 0 1.30074e-08
89 3 0.001 0.00802206 0 -0.00416467 -3.49065e-09 0 -1.02334e-08 0 1.30074e-08
91 3 0.001 0.00935468 0 -0.0042798 4.03907e-09 0 -2.02059e-08 0 1.30074e-08
90 3 0.001 0.00868837 0 -0.00422223 3.48381e-10 0 3.22553e-09 0 1.30074e-08
92 3 0.001 0.010021 0 -0.00433739 9.27542e-10 0 -2.37764e-09 0 1.30074e-08
93 3 0.001 0.0106873 0 -0.00439498 -5.81844e-10 0 6.82078e-08 0 1.30074e-08
94 3 0.001 0.0113536 0 -0.00445259 -1.03211e-08 0 -1.14019e-07 0 1.30074e-08
95 3 0.001 0.0120199 0 -0.0045102 1.08673e-08 0 8.85167e-08 0 1.30074e-08
96 3 0.001 0.0126862 0 -0.00456782 -8.49401e-09 0 -5.95869e-08 0 1.30074e-08
97 3 0.001 0.0133525 0 -0.00462545 5.8574e-09 0 1.08041e-07 0 1.30074e-08
98 3 0.001 0.0140188 0 -0.00468309 -4.38498e-09 0 -1.12936e-07 0 1.30074e-08
99 3 0.001 0.0146851 0 -0.00474073 4.61046e-09 0 -1.78534e-08 0 1.30074e-08
100 3 0.001 0.0153514 0 -0.00479838 8.25253e-09 0 1.29952e-07 0 1.30074e-08
101 3 0.001 0.0160177 0 -0.00485604 -1.0878e-08 0 -7.20939e-08 0 1.30074e-08
102 3 0.001 0.016684 0 -0.0049137 -6.01498e-09 0 -9.75874e-08 0 1.30074e-08
104 3 0.001 0.0180166 0 -0.00502904 -8.63191e-09 0 -4.6954e-08 0 1.30074e-08
105 3 0.001 0.0186829 0 -0.00508672 -1.58676e-08 0 -1.44286e-07 0 1.30074e-08
103 3 0.001 0.0173503 0 -0.00497137 1.74367e-08 0 1.72589e-07 0 1.30074e-08
106 3 0.001 0.0193492 0 -0.0051444 2.21067e-08 0 1.96492e-07 0 1.30074e-08
107 3 0.001 0.0200155 0 -0.00520209 -4.20635e-09 0 -8.78067e-08 0 1.30074e-08
108 3 0.001 0.0206818 0 -0.00525978 -6.24259e-09 0 -2.09593e-08 0 1.30074e-08
109 3 0.001 0.0213481 0 -0.00531747 -2.89695e-10 0 1.45889e-08 0 1.30074e-08
112 3 0.001 0.023347 0 -0.00549058 -2.49112e-09 0 2.10767e-08 0 1.30074e-08
110 3 0.001 0.0220144 0 -0.00537517 7.39171e-09 0 3.76309e-08 0 1.30074e-08
111 3 0.001 0.0226807 0 -0.00543287 -2.35931e-09 0 -3.66961e-08 0 1.30074e-08
58 3 0.001 -0.0126347 0 -0.00239378 -4.5208e-09 0 -6.60709e-09 0 1.30074e-08
59 3 0.001 -0.0119683 0 -0.00245013 5.90177e-09 0 7.73725e-08 0 1.30074e-08
60 3 0.001 -0.0113019 0 -0.00250656 -5.29817e-09 0 -8.49094e-08 0 1.30074e-08
62 3 0.001 -0.00996911 0 -0.00261967 -8.57095e-09 0 -5.65626e-08 0 1.30074e-08
61 3 0.001 -0.0106355 0 -0.00256308 5.19512e-09 0 8.91393e-08 0 1.30074e-08
63 3 0.001 -0.00930272 0 -0.00267634 -1.70206e-09 0 -3.06443e-08 0 1.30074e-08
64 3 0.001 -0.00863634 0 -0.00273307 1.37866e-08 0 9.17361e-08 0 1.30074e-08
66 3 0.001 -0.00730359 0 -0.00284673 2.72928e-09 0 8.16157e-08 0 1.30074e-08
65 3 0.001 -0.00796996 0 -0.00278987 -7.60251e-09 0 -1.10932e-07 0 1.30074e-08
69 3 0.001 -0.00530451 0 -0.00301763 4.27905e-09 0 9.99755e-08 0 1.30074e-08
67 3 0.001 -0.00663723 0 -0.00290364 1.90797e-09 0 1.22171e-08 0 1.30074e-08
68 3 0.001 -0.00597086 0 -0.00296061 -5.54176e-09 0 -9.62281e-08 0 1.30074e-08
71 3 0.001 -0.00397181 0 -0.0031318 -3.70991e-09 0 -6.47722e-08 0 1.30074e-08
70 3 0.001 -0.00463815 0 -0.00307469 -6.87499e-09 0 -1.73692e-08 0 1.30074e-08
72 3 0.001 -0.00330546 0 -0.00318894 8.98594e-09 0 3.96358e-08 0 1.30074e-08
73 3 0.001 -0.00263912 0 -0.00324613 6.47907e-09 0 6.4884e-08 0 1.30074e-08
74 3 0.001 -0.00197278 0 -0.00330335 -1.52576e-08 0 -1.40677e-07 0 1.30074e-08
75 3 0.001 -0.00130644 0 -0.0033606 9.75545e-09 0 9.6775e-08 0 1.30074e-08
76 3 0.001 -0.000640106 0 -0.00341788 2.20639e-09 0 -2.85688e-09 0 1.30074e-08
77 3 0.001 2.62254e-05 0 -0.0034752 -4.82981e-09 0 -1.82306e-08 0 1.30074e-08
78 3 0.001 0.000692555 0 -0.00353254 -1.88795e-09 0 3.63043e-08 0 1.30074e-08
79 3 0.001 0.00135888 0 -0.0035899 -4.81066e-09 0 -8.07265e-08 0 1.30074e-08
80 3 0.001 0.00202521 0 -0.00364729 1.13213e-08 0 7.27839e-08 0 1.30074e-08
81 3 0.001 0.00269153 0 -0.00370471 -2.29374e-09 0 -1.18585e-08 0 1.30074e-08
82 3 0.001 0.00335785 0 -0.00376214 -5.17403e-09 0 -2.77626e-08 0 1.30074e-08
83 3 0.001 0.00402417 0 -0.0038196 2.32824e-09 0 -1.38547e-08 0 1.30074e-08
84 3 0.001 0.00469049 0 -0.00387707 3.20668e-09 0 7.55612e-09 0 1.30074e-08
85 3 0.001 0.0053568 0 -0.00393456 4.2632e-09 0 9.90027e-08 0 1.30074e-08
30 3 0.001 -0.0313005 0 -0.00089264 9.9107e-09 0 9.6976e-08 0 1.3005e-08
29 3 0.001 -0.0319676 0 -0.000844199 -2.21534e-09 0 -1.23059e-07 0 1.30047e-08
32 3 0.001 -0.0299666 0 -0.00099125 -1.47861e-08 0 -1.97445e-07 0 1.30056e-08
31 3 0.001 -0.0306335 0 -0.00094167 -2.6198e-09 0 2.54407e-08 0 1.30053e-08
35 3 0.001 -0.027966 0 -0.00114296 -1.03054e-08 0 -6.26393e-08 0 1.30062e-08
33 3 0.001 -0.0292997 0 -0.00104135 2.40348e-08 0 2.4783e-07 0 1.30058e-08
34 3 0.001 -0.0286328 0 -0.00109193 -1.02805e-08 0 -1.23786e-07 0 1.3006e-08
37 3 0.001 -0.0266324 0 -0.00124627 -4.70237e-09 0 -1.06514e-07 0 1.30065e-08
36 3 0.001 -0.0272991 0 -0.00119442 1.09731e-08 0 1.62277e-07 0 1.30063e-08
38 3 0.001 -0.0259656 0 -0.0012985 -2.10867e-10 0 -2.19886e-08 0 1.30066e-08
39 3 0.001 -0.0252989 0 -0.00135108 2.64431e-09 0 7.89798e-08 0 1.30067e-08
40 3 0.001 -0.0246322 0 -0.00140398 2.06029e-09 0 1.43647e-08 0 1.30068e-08
41 3 0.001 -0.0239655 0 -0.00145719 -5.81088e-09 0 -1.54251e-07 0 1.30069e-08
44 3 0.001 -0.0219656 0 -0.00161846 -7.2193e-09 0 -7.41482e-08 0 1.3007e-08
42 3 0.001 -0.0232989 0 -0.00151068 1.0501e-08 0 1.40578e-07 0 1.30069e-08
43 3 0.001 -0.0226323 0 -0.00156445 -5.37406e-09 0 6.8936e-10 0 1.3007e-08
45 3 0.001 -0.0212991 0 -0.00167272 2.38491e-09 0 1.82063e-08 0 1.30071e-08
46 3 0.001 -0.0206325 0 -0.00172719 1.35455e-09 0 3.34116e-08 0 1.30071e-08
48 3 0.001 -0.0192994 0 -0.00183674 3.25582e-09 0 -2.2767e-08 0 1.30072e-08
47 3 0.001 -0.0199659 0 -0.00178187 6.79183e-10 0 3.64998e-09 0 1.30072e-08
49 3 0.001 -0.0186329 0 -0.00189179 2.97414e-09 0 4.52389e-09 0 1.30072e-08
50 3 0.001 -0.0179664 0 -0.00194702 -7.83769e-09 0 -6.09989e-08 0 1.30073e-08
51 3 0.001 -0.0172999 0 -0.0020024 7.68794e-09 0 1.31717e-07 0 1.30073e-08
52 3 0.001 -0.0166334 0 -0.00205794 -5.49829e-09 0 -7.71433e-08 0 1.30073e-08
53 3 0.001 -0.0159669 0 -0.00211361 -2.87988e-09 0 -2.94921e-08 0 1.30073e-08
54 3 0.001 -0.0153005 0 -0.00216941 1.3263e-09 0 6.11288e-08 0 1.30073e-08
55 3 0.001 -0.014634 0 -0.00222534 -3.40593e-09 0 -5.16326e-08 0 1.30073e-08
56 3 0.001 -0.0139676 0 -0.00228138 1.24478e-08 0 7.18099e-08 0 1.30073e-08
57 3 0.001 -0.0133011 0 -0.00233753 -4.88694e-09 0 -7.33784e-08 0 1.30074e-08
1 1 0.001 -0.05 0 0 -0.00340059 0 0.0147992 0 1.14427e-32
3 3 0.001 -0.0493333 0 0 0.015596 0 -0.0158562 0 1.05709e-08
4 3 0.001 -0.048664 0 -6.87122e-06 1.06304e-09 0 2.59154e-09 0 1.70416e-08
5 3 0.001 -0.0479953 0 -1.69555e-05 4.30094e-09 0 8.09404e-08 0 1.29453e-08
6 3 0.001 -0.0473266 0 -3.00555e-05 1.9725e-09 0 -2.47524e-08 0 1.29529e-08
7 3 0.001 -0.046658 0 -4.59804e-05 -6.07884e-09 0 -1.31192e-07 0 1.29596e-08
8 3 0.001 -0.0459895 0 -6.45515e-05 2.98224e-09 0 1.81699e-07 0 1.29654e-08
9 3 0.001 -0.045321 0 -8.56013e-05 -3.2131e-09 0 -1.36823e-07 0 1.29706e-08
10 3 0.001 -0.0446527 0 -0.000108973 3.67126e-09 0 7.83977e-08 0 1.29751e-08
11 3 0.001 -0.0439844 0 -0.00013452 -3.26497e-09 0 -3.11539e-08 0 1.2979e-08
12 3 0.001 -0.0433161 0 -0.000162104 6.38096e-10 0 5.87948e-08 0 1.29825e-08
13 3 0.001 -0.042648 0 -0.000191596 -5.3191e-09 0 -1.71097e-07 0 1.29855e-08
14 3 0.001 -0.0419799 0 -0.000222876 1.3095e-08 0 1.87732e-07 0 1.29882e-08
15 3 0.001 -0.041312 0 -0.00025583 -3.8738e-09 0 -2.18401e-08 0 1.29906e-08
16 3 0.001 -0.0406441 0 -0.000290353 -8.58155e-09 0 -1.17861e-07 0 1.29926e-08
17 3 0.001 -0.0399762 0 -0.000326344 1.15327e-08 0 1.28514e-07 0 1.29944e-08
18 3 0.001 -0.0393085 0 -0.000363712 -4.05777e-09 0 -8.99458e-08 0 1.2996e-08
19 3 0.001 -0.0386408 0 -0.000402369 -7.7747e-09 0 -1.43958e-08 0 1.29974e-08
20 3 0.001 -0.0379732 0 -0.000442233 3.37626e-09 0 1.06975e-07 0 1.29986e-08
21 3 0.001 -0.0373057 0 -0.000483228 4.34092e-09 0 -1.14043e-08 0 1.29997e-08
22 3 0.001 -0.0366382 0 -0.000525283 -4.30652e-09 0 -1.31593e-07 0 1.30007e-08
23 3 0.001 -0.0359708 0 -0.00056833 1.52183e-09 0 6.44363e-08 0 1.30015e-08
24 3 0.001 -0.0353035 0 -0.000612306 2.89395e-09 0 6.3629e-08 0 1.30022e-08
25 3 0.001 -0.0346362 0 -0.000657154 2.18606e-09 0 -2.72649e-08 0 1.30029e-08
26 3 0.001 -0.033969 0 -0.000702817 -5.05747e-10 0 -1.93862e-08 0 1.30034e-08
27 3 0.001 -0.0333018 0 -0.000749243 -1.06138e-08 0 -5.17398e-08 0 1.30039e-08
28 3 0.001 -0.0326346 0 -0.000796386 4.87764e-09 0 1.1415e-07 0 1.30043e-08
