ITEM: TIMESTEP
8700000
ITEM: NUMBER OF ATOMS
151
ITEM: BOX BOUNDS ff ff ff
-5.5000000000000000e-02 5.5000000000000000e-02
-6.0000000000000001e-03 6.0000000000000001e-03
-2.5000000000000001e-02 2.5000000000000001e-02
ITEM: ATOMS id type radius x y z fx fy fz c_bendingE c_stretchingE
150 3 0.001 0.0486663 0 -0.00857253 4.34256e-10 0 -1.28541e-08 0 2.49078e-08
2 2 0.001 0.05 0 -0.0087 -0.0151004 0 0.00144322 0 1.49206e-08
151 3 0.001 0.0493332 0 -0.00863626 1.64584e-08 0 2.27493e-07 0 2.98413e-08
126 3 0.001 0.032676 0 -0.00704428 -4.701e-09 0 -7.07834e-08 0 1.99743e-08
127 3 0.001 0.0333422 0 -0.00710795 7.15669e-10 0 4.24214e-08 0 1.99743e-08
128 3 0.001 0.0340085 0 -0.00717162 3.61295e-09 0 9.0818e-08 0 1.99743e-08
129 3 0.001 0.0346748 0 -0.0072353 1.72524e-09 0 1.42308e-08 0 1.99743e-08
130 3 0.001 0.035341 0 -0.00729897 -8.23561e-09 0 -1.77652e-07 0 1.99743e-08
132 3 0.001 0.0366736 0 -0.00742632 1.38642e-08 0 1.9059e-07 0 1.99743e-08
131 3 0.001 0.0360073 0 -0.00736265 2.44227e-09 0 7.26576e-08 0 1.99743e-08
133 3 0.001 0.0373398 0 -0.00749 -2.23151e-08 0 -2.41235e-07 0 1.99743e-08
134 3 0.001 0.0380061 0 -0.00755368 -2.43797e-09 0 -8.94712e-08 0 1.99743e-08
135 3 0.001 0.0386723 0 -0.00761735 4.84571e-08 0 4.24915e-07 0 1.99743e-08
136 3 0.001 0.0393386 0 -0.00768103 -4.24e-08 0 -3.44462e-07 0 1.99743e-08
137 3 0.001 0.0400049 0 -0.00774471 -1.00358e-08 0 -3.60984e-08 0 1.99743e-08
138 3 0.001 0.0406711 0 -0.00780839 3.92999e-08 0 3.81339e-07 0 1.99743e-08
139 3 0.001 0.0413374 0 -0.00787206 -4.57375e-08 0 -4.66367e-07 0 1.99743e-08
140 3 0.001 0.0420037 0 -0.00793574 1.8154e-08 0 2.26724e-07 0 1.99743e-08
141 3 0.001 0.0426699 0 -0.00799942 1.30245e-08 0 6.43945e-08 0 1.99743e-08
142 3 0.001 0.0433362 0 -0.0080631 1.45956e-09 0 -1.69454e-08 0 1.99743e-08
143 3 0.001 0.0440025 0 -0.00812678 -1.46823e-08 0 -1.96158e-07 0 1.99743e-08
144 3 0.001 0.0446687 0 -0.00819046 -4.36672e-09 0 4.17587e-08 0 1.99743e-08
145 3 0.001 0.045335 0 -0.00825413 4.3307e-08 0 4.67169e-07 0 1.99743e-08
148 3 0.001 0.0473338 0 -0.00844517 -1.50016e-08 0 -1.31577e-07 0 1.99743e-08
146 3 0.001 0.0460013 0 -0.00831781 -7.54099e-08 0 -8.1445e-07 0 1.99743e-08
147 3 0.001 0.0466675 0 -0.00838149 5.90065e-08 0 6.67268e-07 0 1.99743e-08
149 3 0.001 0.048 0 -0.00850885 -7.8588e-09 0 -2.06343e-07 0 1.99743e-08
101 3 0.001 0.0160193 0 -0.00545281 4.21849e-08 0 4.67406e-07 0 1.99743e-08
102 3 0.001 0.0166856 0 -0.00551645 -6.10478e-08 0 -5.31921e-07 0 1.99743e-08
104 3 0.001 0.0180181 0 -0.00564373 -5.68971e-09 0 -8.26475e-08 0 1.99743e-08
105 3 0.001 0.0186844 0 -0.00570737 -1.69536e-08 0 -1.58993e-07 0 1.99743e-08
103 3 0.001 0.0173519 0 -0.00558009 3.42375e-08 0 3.30009e-07 0 1.99742e-08
107 3 0.001 0.0200169 0 -0.00583467 -3.0611e-08 0 -3.52163e-07 0 1.99743e-08
106 3 0.001 0.0193507 0 -0.00577102 3.52892e-08 0 3.71387e-07 0 1.99743e-08
108 3 0.001 0.0206832 0 -0.00589832 -7.78069e-09 0 -8.68597e-08 0 1.99743e-08
109 3 0.001 0.0213495 0 -0.00596197 4.74711e-08 0 4.49191e-07 0 1.99743e-08
112 3 0.001 0.0233483 0 -0.00615294 -8.19509e-09 0 -8.64871e-08 0 1.99743e-08
110 3 0.001 0.0220157 0 -0.00602562 -2.72009e-08 0 -2.21836e-07 0 1.99743e-08
111 3 0.001 0.022682 0 -0.00608928 -6.6715e-09 0 -6.09493e-08 0 1.99743e-08
113 3 0.001 0.0240145 0 -0.0062166 2.55204e-08 0 2.42523e-07 0 1.99743e-08
114 3 0.001 0.0246808 0 -0.00628026 -1.0663e-08 0 -1.24014e-07 0 1.99743e-08
115 3 0.001 0.0253471 0 -0.00634392 -4.96417e-09 0 2.15755e-08 0 1.99743e-08
116 3 0.001 0.0260133 0 -0.00640759 9.47631e-10 0 -2.18521e-08 0 1.99743e-08
117 3 0.001 0.0266796 0 -0.00647125 5.72248e-09 0 -3.72191e-08 0 1.99743e-08
118 3 0.001 0.0273458 0 -0.00653492 1.67515e-09 0 3.00711e-08 0 1.99743e-08
120 3 0.001 0.0286784 0 -0.00666225 -2.08247e-09 0 1.41874e-09 0 1.99743e-08
121 3 0.001 0.0293446 0 -0.00672592 -3.38684e-08 0 -3.23566e-07 0 1.99743e-08
119 3 0.001 0.0280121 0 -0.00659858 7.1922e-10 0 8.1663e-08 0 1.99743e-08
122 3 0.001 0.0300109 0 -0.00678959 5.67886e-08 0 5.24119e-07 0 1.99743e-08
123 3 0.001 0.0306772 0 -0.00685326 -4.42534e-08 0 -4.16267e-07 0 1.99743e-08
124 3 0.001 0.0313434 0 -0.00691693 2.44401e-08 0 2.41681e-07 0 1.99743e-08
125 3 0.001 0.0320097 0 -0.0069806 -4.17164e-09 0 -9.55212e-08 0 1.99743e-08
77 3 0.001 2.8693e-05 0 -0.00392752 -1.40814e-08 0 -5.93393e-08 0 1.99742e-08
78 3 0.001 0.000694981 0 -0.00399095 3.13461e-08 0 3.48694e-07 0 1.99742e-08
79 3 0.001 0.00136127 0 -0.00405439 -3.27366e-08 0 -4.40633e-07 0 1.99742e-08
80 3 0.001 0.00202755 0 -0.00411785 3.8957e-08 0 3.77619e-07 0 1.99743e-08
81 3 0.001 0.00269384 0 -0.00418132 -3.03238e-08 0 -2.51594e-07 0 1.99743e-08
82 3 0.001 0.00336012 0 -0.00424481 2.65287e-08 0 2.31478e-07 0 1.99743e-08
83 3 0.001 0.0040264 0 -0.00430831 -2.4288e-08 0 -2.78732e-07 0 1.99743e-08
84 3 0.001 0.00469268 0 -0.00437182 2.29833e-08 0 2.48678e-07 0 1.99743e-08
86 3 0.001 0.00602524 0 -0.00449889 -2.59118e-08 0 -2.67186e-07 0 1.99742e-08
87 3 0.001 0.00669151 0 -0.00456243 5.49526e-08 0 4.82774e-07 0 1.99743e-08
85 3 0.001 0.00535896 0 -0.00443535 -1.43967e-08 0 -5.1919e-08 0 1.99743e-08
88 3 0.001 0.00735779 0 -0.00462599 -3.41347e-08 0 -3.89366e-07 0 1.99743e-08
89 3 0.001 0.00802406 0 -0.00468955 -5.59151e-09 0 9.46206e-08 0 1.99743e-08
91 3 0.001 0.00935661 0 -0.0048167 2.17604e-08 0 1.29347e-07 0 1.99743e-08
90 3 0.001 0.00869034 0 -0.00475312 3.9389e-09 0 -7.07201e-09 0 1.99742e-08
92 3 0.001 0.0100229 0 -0.00488029 -9.06837e-09 0 -1.15347e-07 0 1.99743e-08
93 3 0.001 0.0106892 0 -0.00494388 -1.51969e-08 0 -8.12557e-08 0 1.99743e-08
94 3 0.001 0.0113554 0 -0.00500748 2.57823e-08 0 3.1745e-07 0 1.99743e-08
95 3 0.001 0.0120217 0 -0.00507109 -2.49299e-08 0 -3.38873e-07 0 1.99743e-08
96 3 0.001 0.012688 0 -0.0051347 1.50711e-08 0 1.37307e-07 0 1.99743e-08
97 3 0.001 0.0133542 0 -0.00519831 -1.53691e-08 0 -5.52284e-08 0 1.99743e-08
98 3 0.001 0.0140205 0 -0.00526193 1.09913e-08 0 1.29865e-07 0 1.99742e-08
99 3 0.001 0.0146868 0 -0.00532556 -2.13457e-09 0 -1.30913e-07 0 1.99743e-08
100 3 0.001 0.015353 0 -0.00538918 -7.81287e-09 0 -1.18974e-07 0 1.99743e-08
52 3 0.001 -0.0166297 0 -0.00235429 -2.2271e-08 0 -2.64656e-07 0 1.99741e-08
53 3 0.001 -0.0159633 0 -0.0024164 3.73336e-08 0 3.82402e-07 0 1.99741e-08
55 3 0.001 -0.0146305 0 -0.00254095 7.31572e-09 0 8.01688e-08 0 1.99742e-08
54 3 0.001 -0.0152969 0 -0.00247862 -2.59722e-08 0 -2.48216e-07 0 1.99742e-08
56 3 0.001 -0.0139641 0 -0.00260336 3.67246e-09 0 -8.05699e-09 0 1.99742e-08
57 3 0.001 -0.0132977 0 -0.00266587 -1.42121e-09 0 -5.20613e-08 0 1.99742e-08
58 3 0.001 -0.0126314 0 -0.00272846 1.93498e-08 0 1.73002e-07 0 1.99742e-08
59 3 0.001 -0.011965 0 -0.00279112 -2.93868e-08 0 -2.20131e-07 0 1.99742e-08
60 3 0.001 -0.0112986 0 -0.00285386 4.90227e-09 0 9.50358e-08 0 1.99742e-08
62 3 0.001 -0.00996595 0 -0.00297953 -1.59858e-08 0 -1.35363e-07 0 1.99742e-08
61 3 0.001 -0.0106323 0 -0.00291666 1.04406e-08 0 3.8777e-08 0 1.99742e-08
63 3 0.001 -0.00929962 0 -0.00304245 1.11195e-08 0 1.44365e-07 0 1.99742e-08
64 3 0.001 -0.00863328 0 -0.00310542 1.09236e-08 0 1.32043e-07 0 1.99742e-08
66 3 0.001 -0.00730064 0 -0.00323151 2.23858e-08 0 1.65258e-07 0 1.99742e-08
65 3 0.001 -0.00796696 0 -0.00316844 -2.86035e-08 0 -3.78463e-07 0 1.99742e-08
69 3 0.001 -0.00530169 0 -0.00342096 9.65633e-09 0 7.93723e-08 0 1.99742e-08
67 3 0.001 -0.00663432 0 -0.00329462 1.0221e-08 0 1.31185e-07 0 1.99743e-08
68 3 0.001 -0.005968 0 -0.00335778 -2.00604e-08 0 -1.10929e-07 0 1.99742e-08
71 3 0.001 -0.00396908 0 -0.00354744 1.56272e-08 0 1.18593e-07 0 1.99742e-08
70 3 0.001 -0.00463539 0 -0.00348419 -1.93399e-08 0 -1.76861e-07 0 1.99742e-08
72 3 0.001 -0.00330278 0 -0.00361073 3.16489e-09 0 7.05795e-08 0 1.99742e-08
73 3 0.001 -0.00263648 0 -0.00367404 -1.00949e-08 0 -9.67808e-08 0 1.99742e-08
74 3 0.001 -0.00197018 0 -0.00373737 -5.91832e-09 0 -1.55864e-07 0 1.99742e-08
75 3 0.001 -0.00130389 0 -0.00380074 4.47508e-08 0 4.28887e-07 0 1.99743e-08
76 3 0.001 -0.000637597 0 -0.00386412 -3.80802e-08 0 -3.29e-07 0 1.99743e-08
26 3 0.001 -0.033964 0 -0.000824246 2.89583e-08 0 3.55685e-07 0 1.9969e-08
27 3 0.001 -0.0332968 0 -0.00087755 -2.09085e-09 0 -1.17653e-08 0 1.99697e-08
28 3 0.001 -0.0326297 0 -0.000931581 -3.86479e-08 0 -4.11277e-07 0 1.99703e-08
30 3 0.001 -0.0312956 0 -0.00104163 -2.49619e-08 0 -2.87212e-07 0 1.99713e-08
29 3 0.001 -0.0319626 0 -0.000986289 5.51857e-08 0 6.00327e-07 0 1.99709e-08
32 3 0.001 -0.0299617 0 -0.00115402 1.56804e-08 0 1.97609e-07 0 1.99721e-08
31 3 0.001 -0.0306286 0 -0.00109755 -8.01342e-09 0 -1.0975e-07 0 1.99717e-08
35 3 0.001 -0.0279612 0 -0.00132631 -1.68653e-08 0 -1.20611e-07 0 1.99728e-08
33 3 0.001 -0.0292949 0 -0.00121099 -2.62506e-09 0 -8.47706e-08 0 1.99724e-08
34 3 0.001 -0.028628 0 -0.00126843 3.1983e-10 0 1.25173e-08 0 1.99726e-08
37 3 0.001 -0.0266278 0 -0.00144326 -2.4083e-08 0 -3.65781e-07 0 1.99732e-08
36 3 0.001 -0.0272945 0 -0.0013846 2.58655e-08 0 3.00201e-07 0 1.9973e-08
38 3 0.001 -0.0259611 0 -0.00150228 1.0165e-08 0 2.36505e-07 0 1.99733e-08
39 3 0.001 -0.0252944 0 -0.00156162 2.71461e-09 0 6.25652e-08 0 1.99734e-08
40 3 0.001 -0.0246278 0 -0.00162127 -1.82071e-08 0 -3.63627e-07 0 1.99736e-08
41 3 0.001 -0.0239612 0 -0.0016812 5.14587e-08 0 5.27484e-07 0 1.99737e-08
44 3 0.001 -0.0219615 0 -0.00186249 3.12246e-08 0 2.96154e-07 0 1.99739e-08
42 3 0.001 -0.0232946 0 -0.00174139 -4.35949e-08 0 -4.21256e-07 0 1.99738e-08
43 3 0.001 -0.022628 0 -0.00180183 -7.91646e-09 0 2.36096e-08 0 1.99738e-08
45 3 0.001 -0.0212949 0 -0.00192337 -2.02441e-08 0 -2.67004e-07 0 1.99739e-08
46 3 0.001 -0.0206284 0 -0.00198444 -4.52021e-09 0 5.2612e-08 0 1.9974e-08
48 3 0.001 -0.0192955 0 -0.00210712 4.28207e-08 0 2.83855e-07 0 1.9974e-08
47 3 0.001 -0.0199619 0 -0.00204569 -3.1395e-09 0 -2.71366e-08 0 1.9974e-08
49 3 0.001 -0.018629 0 -0.0021687 -3.81342e-08 0 -3.99108e-07 0 1.99741e-08
50 3 0.001 -0.0179625 0 -0.00223043 1.71557e-08 0 2.30068e-07 0 1.99741e-08
51 3 0.001 -0.0172961 0 -0.0022923 -7.29745e-09 0 5.70581e-09 0 1.99741e-08
1 1 0.001 -0.05 0 0 -0.00339675 0 0.0179802 0 1.14427e-32
3 3 0.001 -0.0493333 0 0 0.0184971 0 -0.0194233 0 1.4877e-08
4 3 0.001 -0.0486635 0 -8.35441e-06 -2.33276e-09 0 5.8143e-08 0 2.4805e-08
5 3 0.001 -0.0479943 0 -2.05865e-05 -1.03716e-09 0 -1.93534e-07 0 1.9864e-08
6 3 0.001 -0.0473252 0 -3.64311e-05 9.44373e-09 0 1.58368e-07 0 1.98789e-08
7 3 0.001 -0.0466562 0 -5.56346e-05 2.36695e-09 0 -3.76343e-09 0 1.98918e-08
8 3 0.001 -0.0459873 0 -7.79611e-05 -7.09771e-09 0 -4.06106e-08 0 1.99029e-08
9 3 0.001 -0.0453185 0 -0.000103191 -1.73264e-08 0 -1.47355e-07 0 1.99126e-08
10 3 0.001 -0.0446497 0 -0.000131121 1.63222e-08 0 1.75412e-07 0 1.99209e-08
11 3 0.001 -0.0439811 0 -0.000161562 1.36977e-08 0 1.97872e-07 0 1.99281e-08
12 3 0.001 -0.0433126 0 -0.000194336 -2.7628e-08 0 -4.89313e-07 0 1.99344e-08
13 3 0.001 -0.0426443 0 -0.000229279 1.6373e-08 0 3.80886e-07 0 1.99397e-08
14 3 0.001 -0.041976 0 -0.000266241 -7.57016e-09 0 -1.59267e-07 0 1.99444e-08
15 3 0.001 -0.0413078 0 -0.000305078 1.16101e-08 0 1.16443e-07 0 1.99484e-08
16 3 0.001 -0.0406397 0 -0.000345658 3.58836e-09 0 9.04018e-09 0 1.99519e-08
17 3 0.001 -0.0399718 0 -0.00038786 -3.50393e-08 0 -4.17633e-07 0 1.9955e-08
18 3 0.001 -0.0393039 0 -0.00043157 4.21621e-08 0 5.61208e-07 0 1.99576e-08
19 3 0.001 -0.0386361 0 -0.000476681 -7.23901e-09 0 -8.6428e-08 0 1.99598e-08
20 3 0.001 -0.0379684 0 -0.000523095 -4.24758e-08 0 -5.24454e-07 0 1.99618e-08
21 3 0.001 -0.0373008 0 -0.000570721 5.98181e-08 0 7.98821e-07 0 1.99635e-08
22 3 0.001 -0.0366333 0 -0.000619473 -4.14492e-08 0 -5.95891e-07 0 1.99649e-08
23 3 0.001 -0.0359659 0 -0.000669273 3.01244e-09 0 -1.07641e-08 0 1.99662e-08
24 3 0.001 -0.0352985 0 -0.000720046 3.94945e-08 0 5.36551e-07 0 1.99673e-08
25 3 0.001 -0.0346312 0 -0.000771725 -4.87222e-08 0 -5.98562e-07 0 1.99682e-08
