ITEM: TIMESTEP
8300000
ITEM: NUMBER OF ATOMS
151
ITEM: BOX BOUNDS ff ff ff
-5.5000000000000000e-02 5.5000000000000000e-02
-6.0000000000000001e-03 6.0000000000000001e-03
-2.5000000000000001e-02 2.5000000000000001e-02
ITEM: ATOMS id type radius x y z fx fy fz c_bendingE c_stretchingE
132 3 0.001 0.0366733 0 -0.00707912 -8.5758e-09 0 -1.85499e-07 0 1.66022e-08
133 3 0.001 0.0373396 0 -0.00714016 7.73425e-09 0 8.13679e-08 0 1.66022e-08
134 3 0.001 0.0380058 0 -0.00720119 -6.36731e-11 0 6.95486e-08 0 1.66022e-08
135 3 0.001 0.0386721 0 -0.00726223 -1.67964e-08 0 -1.75773e-07 0 1.66022e-08
136 3 0.001 0.0393384 0 -0.00732327 1.04952e-08 0 9.33401e-08 0 1.66022e-08
137 3 0.001 0.0400047 0 -0.00738431 8.57221e-09 0 1.13998e-07 0 1.66022e-08
138 3 0.001 0.0406709 0 -0.00744534 -2.05918e-08 0 -2.3423e-07 0 1.66022e-08
139 3 0.001 0.0413372 0 -0.00750638 1.91508e-08 0 1.87056e-07 0 1.66022e-08
140 3 0.001 0.0420035 0 -0.00756742 -2.59752e-09 0 -5.29276e-08 0 1.66022e-08
141 3 0.001 0.0426698 0 -0.00762846 -1.01984e-08 0 -8.06087e-08 0 1.66022e-08
142 3 0.001 0.0433361 0 -0.0076895 6.57427e-09 0 1.39088e-07 0 1.66022e-08
143 3 0.001 0.0440023 0 -0.00775054 -7.05659e-09 0 -8.35143e-08 0 1.66022e-08
144 3 0.001 0.0446686 0 -0.00781157 4.18316e-09 0 -4.13042e-08 0 1.66022e-08
145 3 0.001 0.0453349 0 -0.00787261 1.26959e-08 0 1.18001e-07 0 1.66022e-08
148 3 0.001 0.0473337 0 -0.00805573 -6.64859e-10 0 2.97229e-09 0 1.66022e-08
146 3 0.001 0.0460012 0 -0.00793365 -5.60097e-09 0 -3.13067e-08 0 1.66022e-08
147 3 0.001 0.0466674 0 -0.00799469 -1.23387e-08 0 -6.70215e-08 0 1.66022e-08
149 3 0.001 0.048 0 -0.00811677 6.17677e-09 0 2.82618e-08 0 1.66022e-08
150 3 0.001 0.0486663 0 -0.00817781 6.73231e-09 0 4.3656e-08 0 2.11489e-08
2 2 0.001 0.05 0 -0.0083 -0.0137719 0 0.0012618 0 1.28478e-08
151 3 0.001 0.0493331 0 -0.00823891 -1.86395e-09 0 -4.7487e-08 0 2.56956e-08
107 3 0.001 0.0200163 0 -0.00555356 -1.73838e-08 0 -2.16198e-07 0 1.66022e-08
108 3 0.001 0.0206826 0 -0.00561456 6.50377e-09 0 2.66666e-08 0 1.66022e-08
109 3 0.001 0.0213489 0 -0.00567556 1.11362e-08 0 1.10694e-07 0 1.66022e-08
112 3 0.001 0.0233477 0 -0.00585859 2.24513e-09 0 6.35286e-09 0 1.66022e-08
110 3 0.001 0.0220151 0 -0.00573657 -1.37311e-08 0 -8.92876e-08 0 1.66022e-08
111 3 0.001 0.0226814 0 -0.00579758 -1.31861e-11 0 4.47572e-08 0 1.66022e-08
113 3 0.001 0.024014 0 -0.00591961 1.68568e-09 0 -3.89033e-09 0 1.66022e-08
114 3 0.001 0.0246803 0 -0.00598062 -3.96903e-09 0 -6.78979e-08 0 1.66022e-08
115 3 0.001 0.0253465 0 -0.00604164 -5.54029e-10 0 -1.72126e-08 0 1.66022e-08
116 3 0.001 0.0260128 0 -0.00610266 1.52322e-08 0 1.99587e-07 0 1.66022e-08
117 3 0.001 0.0266791 0 -0.00616368 -2.00109e-08 0 -1.91894e-07 0 1.66022e-08
118 3 0.001 0.0273454 0 -0.0062247 3.06652e-09 0 4.46852e-08 0 1.66022e-08
120 3 0.001 0.0286779 0 -0.00634675 -6.90734e-09 0 -1.09042e-07 0 1.66022e-08
121 3 0.001 0.0293442 0 -0.00640778 8.56082e-09 0 1.34278e-07 0 1.66022e-08
119 3 0.001 0.0280117 0 -0.00628573 9.97484e-09 0 5.16586e-08 0 1.66022e-08
122 3 0.001 0.0300105 0 -0.0064688 -7.73104e-09 0 -4.40969e-08 0 1.66022e-08
123 3 0.001 0.0306768 0 -0.00652983 4.03719e-10 0 7.90769e-09 0 1.66022e-08
124 3 0.001 0.0313431 0 -0.00659086 -1.22957e-08 0 -1.58801e-07 0 1.66022e-08
125 3 0.001 0.0320093 0 -0.00665189 1.8761e-08 0 1.83732e-07 0 1.66022e-08
126 3 0.001 0.0326756 0 -0.00671292 -2.51361e-09 0 -2.36351e-08 0 1.66022e-08
127 3 0.001 0.0333419 0 -0.00677395 -1.30443e-10 0 -5.77142e-08 0 1.66022e-08
128 3 0.001 0.0340082 0 -0.00683499 1.31767e-08 0 1.54844e-07 0 1.66022e-08
129 3 0.001 0.0346744 0 -0.00689602 -3.02129e-08 0 -2.50242e-07 0 1.66022e-08
130 3 0.001 0.0353407 0 -0.00695705 3.17884e-09 0 8.29616e-08 0 1.66022e-08
131 3 0.001 0.036007 0 -0.00701809 1.77609e-08 0 1.55822e-07 0 1.66022e-08
81 3 0.001 0.00269282 0 -0.00396946 1.08883e-08 0 7.47591e-08 0 1.66022e-08
82 3 0.001 0.00335912 0 -0.00403026 2.24219e-09 0 -8.31487e-10 0 1.66022e-08
83 3 0.001 0.00402542 0 -0.00409108 -6.00079e-09 0 -6.93792e-08 0 1.66022e-08
84 3 0.001 0.00469172 0 -0.00415191 7.95348e-09 0 7.9673e-08 0 1.66022e-08
86 3 0.001 0.00602431 0 -0.00427362 -5.33572e-09 0 4.61421e-10 0 1.66022e-08
87 3 0.001 0.0066906 0 -0.00433449 3.77251e-10 0 3.88123e-08 0 1.66022e-08
85 3 0.001 0.00535801 0 -0.00421276 -1.38773e-09 0 -2.59343e-08 0 1.66022e-08
88 3 0.001 0.00735689 0 -0.00439538 -5.64369e-09 0 -9.13549e-08 0 1.66022e-08
89 3 0.001 0.00802318 0 -0.00445627 7.71802e-09 0 1.9192e-08 0 1.66022e-08
91 3 0.001 0.00935576 0 -0.00457809 -7.78333e-09 0 -9.67925e-09 0 1.66022e-08
90 3 0.001 0.00868947 0 -0.00451718 8.53564e-09 0 6.48177e-08 0 1.66022e-08
92 3 0.001 0.010022 0 -0.00463901 -4.38159e-09 0 5.75874e-09 0 1.66022e-08
93 3 0.001 0.0106883 0 -0.00469994 -6.97331e-09 0 -1.05286e-07 0 1.66022e-08
94 3 0.001 0.0113546 0 -0.00476088 6.02583e-09 0 4.02258e-08 0 1.66022e-08
95 3 0.001 0.0120209 0 -0.00482182 1.25151e-08 0 1.09336e-07 0 1.66022e-08
96 3 0.001 0.0126872 0 -0.00488277 -6.27124e-09 0 -5.16228e-08 0 1.66022e-08
97 3 0.001 0.0133535 0 -0.00494373 -1.08868e-08 0 -8.98942e-08 0 1.66022e-08
98 3 0.001 0.0140198 0 -0.00500469 7.04787e-09 0 6.22017e-08 0 1.66022e-08
99 3 0.001 0.014686 0 -0.00506566 5.91084e-09 0 9.20889e-08 0 1.66022e-08
100 3 0.001 0.0153523 0 -0.00512663 -1.27442e-08 0 -1.43018e-07 0 1.66022e-08
101 3 0.001 0.0160186 0 -0.00518761 8.16426e-09 0 3.36406e-08 0 1.66022e-08
102 3 0.001 0.0166849 0 -0.00524859 1.23381e-08 0 9.85722e-08 0 1.66022e-08
104 3 0.001 0.0180175 0 -0.00537057 1.32274e-08 0 2.00648e-07 0 1.66022e-08
105 3 0.001 0.0186837 0 -0.00543156 -1.89623e-08 0 -1.84418e-07 0 1.66022e-08
103 3 0.001 0.0173512 0 -0.00530958 -2.07863e-08 0 -1.87292e-07 0 1.66022e-08
106 3 0.001 0.01935 0 -0.00549256 2.46561e-08 0 2.34002e-07 0 1.66022e-08
55 3 0.001 -0.014632 0 -0.0024004 2.66486e-09 0 2.83856e-08 0 1.66021e-08
56 3 0.001 -0.0139656 0 -0.00246 -5.03506e-09 0 -7.17751e-08 0 1.66021e-08
57 3 0.001 -0.0132992 0 -0.00251969 3.24398e-09 0 3.48727e-08 0 1.66021e-08
58 3 0.001 -0.0126328 0 -0.00257948 2.82832e-09 0 -2.55783e-08 0 1.66021e-08
59 3 0.001 -0.0119664 0 -0.00263934 2.18251e-10 0 2.69483e-09 0 1.66021e-08
60 3 0.001 -0.0113001 0 -0.00269929 -2.54712e-09 0 2.31559e-08 0 1.66021e-08
62 3 0.001 -0.00996733 0 -0.0028194 -1.11009e-08 0 -1.17304e-07 0 1.66021e-08
61 3 0.001 -0.0106337 0 -0.00275931 8.33975e-10 0 3.17718e-08 0 1.66021e-08
63 3 0.001 -0.00930097 0 -0.00287955 1.59534e-08 0 1.44824e-07 0 1.66021e-08
64 3 0.001 -0.00863462 0 -0.00293976 -1.784e-09 0 -5.8235e-08 0 1.66021e-08
66 3 0.001 -0.00730193 0 -0.00306035 1.79943e-08 0 1.88374e-07 0 1.66022e-08
65 3 0.001 -0.00796827 0 -0.00300003 -1.14938e-08 0 -1.16388e-07 0 1.66022e-08
69 3 0.001 -0.00530293 0 -0.00324158 -4.47618e-09 0 -6.52018e-08 0 1.66021e-08
67 3 0.001 -0.00663559 0 -0.00312072 -1.37465e-08 0 -1.23045e-07 0 1.66022e-08
68 3 0.001 -0.00596926 0 -0.00318113 5.60285e-09 0 9.92286e-08 0 1.66021e-08
71 3 0.001 -0.00397028 0 -0.00336261 1.93922e-08 0 1.95003e-07 0 1.66022e-08
70 3 0.001 -0.0046366 0 -0.00330208 -5.22123e-09 0 -8.56351e-08 0 1.66022e-08
72 3 0.001 -0.00330395 0 -0.00342317 -1.71681e-08 0 -1.79567e-07 0 1.66022e-08
73 3 0.001 -0.00263764 0 -0.00348377 6.35879e-09 0 1.14334e-07 0 1.66022e-08
74 3 0.001 -0.00197132 0 -0.00354439 -3.2684e-09 0 -3.14232e-08 0 1.66022e-08
75 3 0.001 -0.00130501 0 -0.00360505 -3.27662e-09 0 -5.53031e-08 0 1.66022e-08
76 3 0.001 -0.000638698 0 -0.00366573 1.36876e-08 0 1.11072e-07 0 1.66022e-08
77 3 0.001 2.76101e-05 0 -0.00372643 -2.0879e-09 0 -4.54316e-08 0 1.66022e-08
78 3 0.001 0.000693916 0 -0.00378716 -1.46142e-08 0 -1.14611e-07 0 1.66022e-08
79 3 0.001 0.00136022 0 -0.00384791 1.31879e-08 0 1.88504e-07 0 1.66022e-08
80 3 0.001 0.00202652 0 -0.00390867 -1.43881e-08 0 -1.47115e-07 0 1.66022e-08
27 3 0.001 -0.033299 0 -0.000819971 -1.03825e-09 0 -2.38316e-08 0 1.65981e-08
28 3 0.001 -0.0326319 0 -0.000870938 -3.7181e-09 0 8.18569e-09 0 1.65986e-08
30 3 0.001 -0.0312978 0 -0.000974855 9.21973e-09 0 1.12701e-07 0 1.65995e-08
29 3 0.001 -0.0319648 0 -0.000922582 -3.69688e-09 0 -1.58999e-08 0 1.65991e-08
32 3 0.001 -0.0299639 0 -0.00108113 -1.05016e-08 0 -1.51139e-07 0 1.66001e-08
31 3 0.001 -0.0306308 0 -0.00102772 -7.24087e-09 0 -1.12177e-07 0 1.65998e-08
35 3 0.001 -0.0279633 0 -0.00124429 -2.02416e-08 0 -2.06011e-07 0 1.66008e-08
33 3 0.001 -0.029297 0 -0.00113505 3.07689e-08 0 3.68699e-07 0 1.66004e-08
34 3 0.001 -0.0286301 0 -0.00118945 -8.39581e-09 0 -1.42535e-07 0 1.66006e-08
37 3 0.001 -0.0266298 0 -0.0013552 -7.68042e-09 0 -9.36124e-08 0 1.66011e-08
36 3 0.001 -0.0272965 0 -0.00129955 1.00714e-08 0 2.2153e-07 0 1.6601e-08
38 3 0.001 -0.0259631 0 -0.00141121 1.40207e-08 0 8.96067e-08 0 1.66013e-08
39 3 0.001 -0.0252964 0 -0.00146756 1.06485e-09 0 -7.42181e-08 0 1.66014e-08
40 3 0.001 -0.0246297 0 -0.00152422 -1.31428e-08 0 -1.16601e-07 0 1.66015e-08
41 3 0.001 -0.0239631 0 -0.00158117 1.48072e-08 0 2.58202e-07 0 1.66016e-08
44 3 0.001 -0.0219633 0 -0.00175361 -2.26302e-09 0 1.64163e-09 0 1.66018e-08
42 3 0.001 -0.0232965 0 -0.0016384 -1.40437e-08 0 -1.78726e-07 0 1.66016e-08
43 3 0.001 -0.0226299 0 -0.00169589 7.84972e-09 0 6.45461e-08 0 1.66017e-08
45 3 0.001 -0.0212967 0 -0.00181155 3.63614e-11 0 1.95391e-09 0 1.66018e-08
46 3 0.001 -0.0206302 0 -0.00186971 -1.52112e-09 0 -6.79745e-08 0 1.66019e-08
48 3 0.001 -0.0192972 0 -0.00198658 -7.61419e-09 0 -1.66038e-08 0 1.66019e-08
47 3 0.001 -0.0199637 0 -0.00192805 7.42763e-09 0 5.19261e-08 0 1.66019e-08
49 3 0.001 -0.0186307 0 -0.00204527 9.81674e-10 0 7.06695e-08 0 1.6602e-08
50 3 0.001 -0.0179642 0 -0.00210413 -5.53564e-09 0 -9.69218e-08 0 1.6602e-08
51 3 0.001 -0.0172978 0 -0.00216312 7.89096e-09 0 1.62153e-08 0 1.6602e-08
52 3 0.001 -0.0166313 0 -0.00222226 1.16856e-08 0 1.24905e-07 0 1.6602e-08
53 3 0.001 -0.0159649 0 -0.00228152 -2.20847e-08 0 -2.11596e-07 0 1.66021e-08
54 3 0.001 -0.0152984 0 -0.00234091 7.68111e-09 0 1.28718e-07 0 1.66021e-08
1 1 0.001 -0.05 0 0 -0.00339851 0 0.0165322 0 1.14427e-32
3 3 0.001 -0.0493333 0 0 0.0171704 0 -0.017794 0 1.28163e-08
4 3 0.001 -0.0486637 0 -7.67896e-06 4.81951e-09 0 2.84306e-07 0 2.10714e-08
5 3 0.001 -0.0479948 0 -1.89339e-05 -4.55762e-10 0 -6.67049e-08 0 1.65161e-08
6 3 0.001 -0.0473259 0 -3.35312e-05 -1.03231e-08 0 -2.01805e-07 0 1.65272e-08
7 3 0.001 -0.046657 0 -5.12467e-05 3.1861e-09 0 5.42269e-08 0 1.65369e-08
8 3 0.001 -0.0459883 0 -7.18709e-05 1.39138e-08 0 1.90636e-07 0 1.65454e-08
9 3 0.001 -0.0453196 0 -9.52086e-05 -4.50183e-09 0 -1.42591e-07 0 1.65527e-08
10 3 0.001 -0.0446511 0 -0.000121078 -5.44036e-09 0 3.56125e-08 0 1.65591e-08
11 3 0.001 -0.0439826 0 -0.000149308 -7.56491e-09 0 -2.92952e-08 0 1.65647e-08
12 3 0.001 -0.0433142 0 -0.000179741 4.42964e-09 0 1.68449e-08 0 1.65695e-08
13 3 0.001 -0.0426459 0 -0.000212228 7.61295e-09 0 1.58064e-08 0 1.65738e-08
14 3 0.001 -0.0419778 0 -0.000246633 -4.66584e-09 0 -7.55515e-08 0 1.65774e-08
15 3 0.001 -0.0413097 0 -0.000282825 2.07315e-09 0 3.17302e-08 0 1.65806e-08
16 3 0.001 -0.0406417 0 -0.000320685 1.30072e-08 0 2.05096e-07 0 1.65834e-08
17 3 0.001 -0.0399738 0 -0.000360101 -2.3288e-08 0 -3.10123e-07 0 1.65859e-08
18 3 0.001 -0.039306 0 -0.000400968 5.16745e-09 0 1.43224e-07 0 1.6588e-08
19 3 0.001 -0.0386382 0 -0.000443189 1.5184e-09 0 1.53977e-08 0 1.65898e-08
20 3 0.001 -0.0379706 0 -0.000486673 3.37134e-09 0 -1.94424e-08 0 1.65914e-08
21 3 0.001 -0.037303 0 -0.000531335 -2.73482e-09 0 -9.09575e-08 0 1.65928e-08
22 3 0.001 -0.0366355 0 -0.000577096 7.46436e-09 0 1.37287e-07 0 1.6594e-08
23 3 0.001 -0.0359681 0 -0.000623883 -2.46943e-09 0 -4.96795e-10 0 1.65951e-08
24 3 0.001 -0.0353007 0 -0.000671625 -7.98897e-09 0 -1.00128e-07 0 1.6596e-08
25 3 0.001 -0.0346334 0 -0.00072026 3.93828e-09 0 6.23545e-08 0 1.65968e-08
26 3 0.001 -0.0339662 0 -0.000769727 4.57077e-09 0 -7.94618e-09 0 1.65975e-08
