ITEM: TIMESTEP
8900000
ITEM: NUMBER OF ATOMS
151
ITEM: BOX BOUNDS ff ff ff
-5.5000000000000000e-02 5.5000000000000000e-02
-6.0000000000000001e-03 6.0000000000000001e-03
-2.5000000000000001e-02 2.5000000000000001e-02
ITEM: ATOMS id type radius x y z fx fy fz c_bendingE c_stretchingE
150 3 0.001 0.0486663 0 -0.00876989 -1.07703e-08 0 -1.91315e-07 0 2.69734e-08
2 2 0.001 0.05 0 -0.0089 -0.015787 0 0.00154019 0 1.60533e-08
151 3 0.001 0.0493332 0 -0.00883494 3.60155e-08 0 1.74338e-07 0 3.21066e-08
126 3 0.001 0.0326761 0 -0.00720994 2.17829e-08 0 1.27798e-07 0 2.18403e-08
127 3 0.001 0.0333424 0 -0.00727493 6.78408e-09 0 7.56363e-08 0 2.18403e-08
128 3 0.001 0.0340087 0 -0.00733993 -6.79309e-08 0 -6.01924e-07 0 2.18403e-08
129 3 0.001 0.0346749 0 -0.00740492 8.19909e-08 0 9.07341e-07 0 2.18402e-08
130 3 0.001 0.0353412 0 -0.00746992 -8.92507e-08 0 -8.04108e-07 0 2.18402e-08
132 3 0.001 0.0366737 0 -0.00759991 2.8504e-08 0 1.28462e-07 0 2.18402e-08
131 3 0.001 0.0360074 0 -0.00753491 4.27428e-08 0 4.17015e-07 0 2.18402e-08
133 3 0.001 0.0373399 0 -0.00766491 -2.54735e-08 0 -3.23332e-07 0 2.18403e-08
134 3 0.001 0.0380062 0 -0.0077299 -1.00734e-08 0 -2.8696e-08 0 2.18403e-08
135 3 0.001 0.0386725 0 -0.0077949 1.8677e-08 0 2.11372e-07 0 2.18403e-08
136 3 0.001 0.0393387 0 -0.0078599 2.01849e-08 0 1.94694e-07 0 2.18403e-08
137 3 0.001 0.040005 0 -0.0079249 -6.67049e-08 0 -6.68702e-07 0 2.18403e-08
138 3 0.001 0.0406712 0 -0.0079899 7.35232e-08 0 7.68845e-07 0 2.18403e-08
139 3 0.001 0.0413375 0 -0.00805489 -5.68936e-08 0 -5.62438e-07 0 2.18402e-08
140 3 0.001 0.0420037 0 -0.00811989 4.21378e-08 0 3.3085e-07 0 2.18403e-08
141 3 0.001 0.04267 0 -0.00818489 -3.2984e-08 0 -2.87921e-07 0 2.18403e-08
142 3 0.001 0.0433363 0 -0.00824989 1.22405e-08 0 2.09719e-07 0 2.18402e-08
143 3 0.001 0.0440025 0 -0.00831489 2.68797e-08 0 2.08253e-07 0 2.18402e-08
144 3 0.001 0.0446688 0 -0.00837989 -4.79892e-08 0 -6.4295e-07 0 2.18403e-08
145 3 0.001 0.045335 0 -0.00844489 5.11585e-08 0 6.14694e-07 0 2.18403e-08
148 3 0.001 0.0473338 0 -0.00863989 8.16635e-09 0 7.52169e-08 0 2.18402e-08
146 3 0.001 0.0460013 0 -0.00850989 -4.13339e-08 0 -2.98263e-07 0 2.18403e-08
147 3 0.001 0.0466675 0 -0.00857489 6.31111e-09 0 5.35616e-08 0 2.18402e-08
149 3 0.001 0.0480001 0 -0.00870489 -4.94705e-09 0 1.13554e-09 0 2.18402e-08
101 3 0.001 0.0160197 0 -0.0055854 3.47093e-08 0 3.42475e-07 0 2.18403e-08
102 3 0.001 0.0166859 0 -0.00565036 -6.09072e-08 0 -5.72041e-07 0 2.18403e-08
104 3 0.001 0.0180184 0 -0.00578029 1.64939e-09 0 4.73651e-08 0 2.18402e-08
105 3 0.001 0.0186847 0 -0.00584525 -3.21339e-08 0 -2.63986e-07 0 2.18402e-08
103 3 0.001 0.0173522 0 -0.00571532 2.36992e-08 0 3.23007e-07 0 2.18402e-08
107 3 0.001 0.0200172 0 -0.0059752 -3.2876e-08 0 -4.67015e-07 0 2.18402e-08
106 3 0.001 0.019351 0 -0.00591023 4.41861e-08 0 4.8521e-07 0 2.18402e-08
108 3 0.001 0.0206835 0 -0.00604017 2.81695e-08 0 8.53742e-08 0 2.18403e-08
109 3 0.001 0.0213497 0 -0.00610515 1.08659e-08 0 1.92436e-07 0 2.18403e-08
112 3 0.001 0.0233485 0 -0.00630009 1.67899e-08 0 1.57793e-07 0 2.18402e-08
110 3 0.001 0.022016 0 -0.00617013 -3.21146e-08 0 -1.81924e-07 0 2.18403e-08
111 3 0.001 0.0226823 0 -0.00623511 -2.40826e-09 0 5.3968e-09 0 2.18402e-08
113 3 0.001 0.0240148 0 -0.00636507 2.90842e-09 0 5.65045e-08 0 2.18402e-08
114 3 0.001 0.024681 0 -0.00643006 -3.51561e-08 0 -4.33623e-07 0 2.18402e-08
115 3 0.001 0.0253473 0 -0.00649504 3.70376e-08 0 3.20184e-07 0 2.18402e-08
116 3 0.001 0.0260136 0 -0.00656003 -3.50814e-09 0 -4.62529e-09 0 2.18403e-08
117 3 0.001 0.0266798 0 -0.00662502 1.61416e-08 0 1.80475e-07 0 2.18402e-08
118 3 0.001 0.0273461 0 -0.00669 -4.53001e-08 0 -4.53633e-07 0 2.18402e-08
120 3 0.001 0.0286786 0 -0.00681998 -1.66815e-08 0 -1.44373e-07 0 2.18403e-08
121 3 0.001 0.0293449 0 -0.00688497 -7.86739e-09 0 2.41015e-09 0 2.18402e-08
119 3 0.001 0.0280123 0 -0.00675499 3.87892e-08 0 3.18199e-07 0 2.18403e-08
122 3 0.001 0.0300111 0 -0.00694997 2.6573e-08 0 3.11688e-07 0 2.18402e-08
123 3 0.001 0.0306774 0 -0.00701496 -4.7038e-08 0 -5.03353e-07 0 2.18402e-08
124 3 0.001 0.0313436 0 -0.00707995 3.36052e-08 0 3.47917e-07 0 2.18402e-08
125 3 0.001 0.0320099 0 -0.00714494 -5.46765e-09 0 -1.41637e-07 0 2.18402e-08
77 3 0.001 2.92271e-05 0 -0.00402809 -7.8217e-09 0 -2.04595e-08 0 2.18402e-08
78 3 0.001 0.000695507 0 -0.00409286 -7.83364e-09 0 -1.10412e-07 0 2.18402e-08
79 3 0.001 0.00136179 0 -0.00415765 -1.45954e-09 0 6.04133e-08 0 2.18402e-08
80 3 0.001 0.00202806 0 -0.00422245 -2.55721e-08 0 -1.42659e-07 0 2.18402e-08
81 3 0.001 0.00269434 0 -0.00428726 3.14207e-08 0 2.41998e-07 0 2.18402e-08
82 3 0.001 0.00336061 0 -0.00435209 -9.90173e-09 0 -2.70018e-07 0 2.18402e-08
83 3 0.001 0.00402688 0 -0.00441693 1.65648e-08 0 1.42316e-07 0 2.18403e-08
84 3 0.001 0.00469316 0 -0.00448178 8.75053e-09 0 1.69347e-07 0 2.18403e-08
86 3 0.001 0.0060257 0 -0.00461152 4.95589e-08 0 5.72638e-07 0 2.18402e-08
87 3 0.001 0.00669196 0 -0.0046764 -4.42968e-08 0 -4.15804e-07 0 2.18402e-08
85 3 0.001 0.00535943 0 -0.00454664 -4.78515e-08 0 -4.84496e-07 0 2.18402e-08
88 3 0.001 0.00735823 0 -0.00474129 1.77335e-08 0 2.00371e-07 0 2.18402e-08
89 3 0.001 0.0080245 0 -0.00480618 2.18787e-08 0 1.1725e-07 0 2.18402e-08
91 3 0.001 0.00935703 0 -0.004936 3.77716e-08 0 4.20936e-07 0 2.18403e-08
90 3 0.001 0.00869077 0 -0.00487109 -3.36531e-08 0 -4.15065e-07 0 2.18402e-08
92 3 0.001 0.0100233 0 -0.00500092 -3.37423e-08 0 -2.96329e-07 0 2.18402e-08
93 3 0.001 0.0106896 0 -0.00506584 1.6754e-08 0 1.04989e-07 0 2.18402e-08
94 3 0.001 0.0113558 0 -0.00513077 -9.99542e-11 0 3.51487e-08 0 2.18402e-08
95 3 0.001 0.0120221 0 -0.0051957 -6.11474e-09 0 7.9142e-08 0 2.18402e-08
96 3 0.001 0.0126884 0 -0.00526064 3.81096e-09 0 -2.68617e-09 0 2.18402e-08
97 3 0.001 0.0133546 0 -0.00532559 -3.93843e-08 0 -4.4483e-07 0 2.18402e-08
98 3 0.001 0.0140209 0 -0.00539053 6.131e-08 0 6.69432e-07 0 2.18402e-08
99 3 0.001 0.0146871 0 -0.00545548 -3.91155e-08 0 -4.53731e-07 0 2.18402e-08
100 3 0.001 0.0153534 0 -0.00552044 1.94556e-08 0 7.95147e-08 0 2.18402e-08
52 3 0.001 -0.0166289 0 -0.00242046 3.43106e-08 0 4.55152e-07 0 2.18401e-08
53 3 0.001 -0.0159625 0 -0.00248399 -9.49752e-09 0 -1.08399e-07 0 2.18401e-08
55 3 0.001 -0.0146297 0 -0.00261136 8.80153e-08 0 9.6863e-07 0 2.18401e-08
54 3 0.001 -0.0152961 0 -0.00254762 -5.115e-08 0 -5.43311e-07 0 2.18401e-08
56 3 0.001 -0.0139633 0 -0.00267518 -6.76538e-08 0 -6.87071e-07 0 2.18401e-08
57 3 0.001 -0.013297 0 -0.00273908 1.23168e-08 0 -1.27858e-08 0 2.18402e-08
58 3 0.001 -0.0126306 0 -0.00280307 5.37781e-08 0 4.85296e-07 0 2.18402e-08
59 3 0.001 -0.0119643 0 -0.00286712 -3.70644e-08 0 -3.2385e-07 0 2.18402e-08
60 3 0.001 -0.0112979 0 -0.00293125 -3.73564e-08 0 -3.02578e-07 0 2.18402e-08
62 3 0.001 -0.00996527 0 -0.00305968 -2.83446e-08 0 -2.46424e-07 0 2.18402e-08
61 3 0.001 -0.0106316 0 -0.00299543 5.05558e-08 0 5.99021e-07 0 2.18402e-08
63 3 0.001 -0.00929895 0 -0.00312398 1.31218e-08 0 4.34983e-08 0 2.18402e-08
64 3 0.001 -0.00863263 0 -0.00318833 -1.45351e-08 0 -2.98816e-07 0 2.18402e-08
66 3 0.001 -0.0073 0 -0.00331716 7.70686e-10 0 1.17971e-08 0 2.18402e-08
65 3 0.001 -0.00796631 0 -0.00325272 3.10368e-08 0 3.56308e-07 0 2.18402e-08
69 3 0.001 -0.00530109 0 -0.00351071 -3.58715e-08 0 -3.0307e-07 0 2.18402e-08
67 3 0.001 -0.00663369 0 -0.00338164 -5.14882e-08 0 -4.77043e-07 0 2.18402e-08
68 3 0.001 -0.00596739 0 -0.00344616 5.95881e-08 0 6.25579e-07 0 2.18402e-08
71 3 0.001 -0.00396849 0 -0.0036399 1.56636e-08 0 7.87695e-08 0 2.18402e-08
70 3 0.001 -0.00463479 0 -0.00357529 -5.88596e-09 0 -5.88194e-08 0 2.18402e-08
72 3 0.001 -0.0033022 0 -0.00370454 3.66216e-09 0 4.21809e-08 0 2.18402e-08
73 3 0.001 -0.00263591 0 -0.00376921 -7.81559e-09 0 -1.63609e-08 0 2.18402e-08
74 3 0.001 -0.00196962 0 -0.0038339 1.03854e-08 0 3.41591e-08 0 2.18402e-08
75 3 0.001 -0.00130334 0 -0.00389861 -2.01205e-08 0 -3.07277e-07 0 2.18402e-08
76 3 0.001 -0.000637054 0 -0.00396334 2.94136e-08 0 3.55109e-07 0 2.18403e-08
26 3 0.001 -0.0339629 0 -0.000851811 9.7893e-09 0 1.97247e-07 0 2.18347e-08
27 3 0.001 -0.0332957 0 -0.000906646 2.19545e-08 0 2.16906e-07 0 2.18355e-08
28 3 0.001 -0.0326286 0 -0.000962209 -5.44352e-08 0 -6.84452e-07 0 2.18362e-08
30 3 0.001 -0.0312945 0 -0.00107532 -1.53733e-08 0 -1.59382e-07 0 2.18372e-08
29 3 0.001 -0.0319615 0 -0.00101845 4.56394e-08 0 6.96809e-07 0 2.18367e-08
32 3 0.001 -0.0299607 0 -0.00119076 8.57197e-08 0 8.84799e-07 0 2.1838e-08
31 3 0.001 -0.0306276 0 -0.00113277 -3.32118e-08 0 -5.27893e-07 0 2.18376e-08
35 3 0.001 -0.0279602 0 -0.0013676 -1.03529e-08 0 -5.94403e-08 0 2.18388e-08
33 3 0.001 -0.0292938 0 -0.00124925 -9.26761e-08 0 -9.90998e-07 0 2.18383e-08
34 3 0.001 -0.028627 0 -0.00130821 7.49597e-08 0 8.30049e-07 0 2.18386e-08
37 3 0.001 -0.0266268 0 -0.00148757 8.32917e-08 0 9.95248e-07 0 2.18391e-08
36 3 0.001 -0.0272935 0 -0.0014274 -8.79163e-08 0 -8.6639e-07 0 2.1839e-08
38 3 0.001 -0.0259601 0 -0.00154808 -1.51866e-08 0 -3.09655e-07 0 2.18393e-08
39 3 0.001 -0.0252934 0 -0.00160891 -9.13399e-09 0 -2.81152e-07 0 2.18394e-08
40 3 0.001 -0.0246268 0 -0.00167005 1.13526e-08 0 1.85133e-07 0 2.18396e-08
41 3 0.001 -0.0239602 0 -0.00173146 2.40797e-08 0 3.71529e-07 0 2.18396e-08
44 3 0.001 -0.0219605 0 -0.00191716 -7.95767e-09 0 7.61767e-08 0 2.18398e-08
42 3 0.001 -0.0232936 0 -0.00179312 -6.51589e-08 0 -7.4133e-07 0 2.18397e-08
43 3 0.001 -0.0226271 0 -0.00185503 4.68365e-08 0 4.98547e-07 0 2.18398e-08
45 3 0.001 -0.021294 0 -0.00197949 -2.33937e-08 0 -3.05002e-07 0 2.18399e-08
46 3 0.001 -0.0206275 0 -0.00204201 1.45687e-08 0 5.21777e-08 0 2.18399e-08
48 3 0.001 -0.0192946 0 -0.00216758 2.33883e-08 0 2.9419e-07 0 2.184e-08
47 3 0.001 -0.0199611 0 -0.00210471 3.56317e-10 0 2.75358e-08 0 2.184e-08
49 3 0.001 -0.0186282 0 -0.0022306 -4.44269e-08 0 -5.47081e-07 0 2.184e-08
50 3 0.001 -0.0179617 0 -0.00229376 6.17483e-08 0 5.85997e-07 0 2.18401e-08
51 3 0.001 -0.0172953 0 -0.00235705 -5.57385e-08 0 -5.52159e-07 0 2.18401e-08
1 1 0.001 -0.05 0 0 -0.00339585 0 0.0187245 0 1.14427e-32
3 3 0.001 -0.0493333 0 0 0.0191828 0 -0.0202645 0 1.60024e-08
4 3 0.001 -0.0486634 0 -8.7018e-06 -5.68169e-09 0 -3.05306e-07 0 2.68559e-08
5 3 0.001 -0.0479941 0 -2.14359e-05 1.44687e-08 0 5.62011e-07 0 2.1716e-08
6 3 0.001 -0.0473249 0 -3.79202e-05 -1.08341e-08 0 -5.14515e-07 0 2.17332e-08
7 3 0.001 -0.0466558 0 -5.78857e-05 1.13818e-08 0 2.20293e-07 0 2.1748e-08
8 3 0.001 -0.0459868 0 -8.10828e-05 -1.80468e-09 0 -3.40728e-08 0 2.17607e-08
9 3 0.001 -0.0453179 0 -0.000107279 -8.16837e-09 0 -1.63382e-07 0 2.17717e-08
10 3 0.001 -0.0446491 0 -0.00013626 6.81851e-09 0 3.03242e-07 0 2.17811e-08
11 3 0.001 -0.0439804 0 -0.000167826 -1.05242e-08 0 -2.76832e-08 0 2.17893e-08
12 3 0.001 -0.0433118 0 -0.00020179 -1.20071e-08 0 -2.14953e-07 0 2.17963e-08
13 3 0.001 -0.0426434 0 -0.00023798 1.19678e-08 0 -5.10858e-08 0 2.18024e-08
14 3 0.001 -0.0419751 0 -0.000276238 2.09418e-08 0 3.20186e-07 0 2.18076e-08
15 3 0.001 -0.0413069 0 -0.000316414 3.35402e-09 0 -5.18396e-08 0 2.18121e-08
16 3 0.001 -0.0406388 0 -0.00035837 -3.15856e-08 0 -5.45496e-07 0 2.1816e-08
17 3 0.001 -0.0399708 0 -0.000401979 4.58919e-08 0 8.12889e-07 0 2.18194e-08
18 3 0.001 -0.0393029 0 -0.000447123 -5.08007e-08 0 -4.83244e-07 0 2.18222e-08
19 3 0.001 -0.0386351 0 -0.00049369 -1.27363e-08 0 -1.19286e-07 0 2.18247e-08
20 3 0.001 -0.0379674 0 -0.00054158 6.15832e-08 0 6.5704e-07 0 2.18268e-08
21 3 0.001 -0.0372998 0 -0.000590696 -4.79778e-08 0 -7.22609e-07 0 2.18287e-08
22 3 0.001 -0.0366322 0 -0.000640951 9.43433e-09 0 1.45155e-07 0 2.18303e-08
23 3 0.001 -0.0359648 0 -0.000692263 3.137e-08 0 4.52389e-07 0 2.18317e-08
24 3 0.001 -0.0352974 0 -0.000744557 -2.70716e-08 0 -4.10306e-07 0 2.18328e-08
25 3 0.001 -0.0346301 0 -0.000797761 -4.28259e-09 0 -5.53471e-08 0 2.18339e-08
