ITEM: TIMESTEP
60000
ITEM: NUMBER OF ATOMS
151
ITEM: BOX BOUNDS ff ff ff
-5.2499999999999998e-02 5.2499999999999998e-02
-6.0000000000000001e-03 6.0000000000000001e-03
-1.4999999999999999e-02 1.4999999999999999e-02
ITEM: ATOMS id type radius x y z fx fy fz c_bendingE c_stretchingE
1 1 0.001 -0.0475 0 0 -0.00413875 0 0.000493668 0 1.60362e-34
3 3 0.001 -0.0468667 0 0 0.00402941 0 -0.000505866 0 6.69462e-10
4 3 0.001 -0.0462327 0 -1.95897e-07 -0.000434245 0 8.04621e-06 0 6.74416e-10
5 3 0.001 -0.0455994 0 -4.871e-07 3.84203e-06 0 1.57929e-05 0 1.69651e-11
6 3 0.001 -0.0449661 0 -8.72949e-07 0.000699925 0 -4.07302e-06 0 1.30695e-11
7 3 0.001 -0.0443328 0 -1.35579e-06 0.000224162 0 -1.47806e-05 0 7.15044e-12
8 3 0.001 -0.0436994 0 -1.93711e-06 -0.000249002 0 9.55191e-07 0 6.84799e-12
9 3 0.001 -0.043066 0 -2.61548e-06 0.000251292 0 2.40787e-06 0 6.92059e-12
10 3 0.001 -0.0424326 0 -3.38976e-06 -7.38616e-05 0 -9.86591e-06 0 1.01994e-11
11 3 0.001 -0.0417993 0 -4.25924e-06 -0.00012279 0 -7.81142e-06 0 5.52366e-12
12 3 0.001 -0.0411659 0 -5.22124e-06 0.00010652 0 -2.65057e-07 0 5.11519e-12
13 3 0.001 -0.0405325 0 -6.27162e-06 -0.000366737 0 5.01742e-06 0 3.82923e-12
14 3 0.001 -0.0398992 0 -7.406e-06 0.000166125 0 -7.03973e-07 0 5.82612e-13
15 3 0.001 -0.0392658 0 -8.62119e-06 7.2691e-05 0 -1.00018e-05 0 1.55202e-12
16 3 0.001 -0.0386325 0 -9.91373e-06 8.79652e-05 0 -6.01542e-06 0 3.88713e-12
17 3 0.001 -0.0379991 0 -1.12782e-05 3.51527e-05 0 6.09746e-06 0 6.22348e-12
18 3 0.001 -0.0373657 0 -1.27081e-05 -1.60551e-05 0 8.57651e-06 0 6.64185e-12
19 3 0.001 -0.0367324 0 -1.41981e-05 -0.000127009 0 8.80343e-06 0 4.04393e-12
20 3 0.001 -0.036099 0 -1.57446e-05 -0.00041377 0 5.75459e-06 0 3.80921e-12
21 3 0.001 -0.0354657 0 -1.73454e-05 0.000388629 0 2.90982e-06 0 3.52718e-12
22 3 0.001 -0.0348324 0 -1.9e-05 0.00017432 0 5.45034e-06 0 4.28589e-12
23 3 0.001 -0.034199 0 -2.0708e-05 -0.000258322 0 -4.67919e-06 0 3.72133e-12
24 3 0.001 -0.0335656 0 -2.24703e-05 -0.000126568 0 -9.65809e-06 0 3.76582e-13
25 3 0.001 -0.0329323 0 -2.42867e-05 -7.16656e-05 0 -1.46144e-06 0 1.35002e-12
26 3 0.001 -0.032299 0 -2.61554e-05 -0.000107714 0 1.32029e-05 0 3.96374e-12
27 3 0.001 -0.0316657 0 -2.80737e-05 0.000182823 0 1.04024e-05 0 3.21421e-12
28 3 0.001 -0.0310324 0 -3.00421e-05 0.000242186 0 -8.22665e-06 0 1.32497e-12
29 3 0.001 -0.0303991 0 -3.20629e-05 -7.36127e-05 0 -8.75539e-06 0 1.33433e-12
30 3 0.001 -0.0297657 0 -3.41366e-05 -0.000297066 0 -1.30405e-05 0 2.15224e-12
31 3 0.001 -0.0291324 0 -3.62624e-05 0.000147557 0 -2.34158e-06 0 2.02637e-12
32 3 0.001 -0.0284991 0 -3.84367e-05 -0.000108168 0 1.38322e-05 0 1.40229e-12
33 3 0.001 -0.0278658 0 -4.06552e-05 1.41803e-05 0 1.31778e-05 0 2.2678e-12
34 3 0.001 -0.0272325 0 -4.29166e-05 7.56025e-05 0 6.31476e-06 0 1.32128e-12
35 3 0.001 -0.0265992 0 -4.52222e-05 -2.87311e-05 0 -6.92466e-06 0 7.98144e-13
36 3 0.001 -0.0259659 0 -4.75743e-05 0.000345754 0 -6.51394e-06 0 2.77465e-12
37 3 0.001 -0.0253325 0 -4.99744e-05 8.64932e-05 0 4.41478e-07 0 6.50009e-12
38 3 0.001 -0.0246991 0 -5.24223e-05 9.20133e-06 0 9.21867e-06 0 8.72513e-12
39 3 0.001 -0.0240657 0 -5.49183e-05 -0.000166425 0 7.66328e-06 0 5.58584e-12
40 3 0.001 -0.0234324 0 -5.74643e-05 -0.000112423 0 -1.40299e-05 0 1.20739e-12
41 3 0.001 -0.022799 0 -6.00637e-05 -7.36054e-05 0 -1.87848e-05 0 1.28159e-13
42 3 0.001 -0.0221657 0 -6.27173e-05 0.000197914 0 5.7732e-07 0 1.28813e-12
43 3 0.001 -0.0215324 0 -6.54221e-05 0.000311725 0 8.58076e-06 0 1.10462e-11
44 3 0.001 -0.020899 0 -6.81751e-05 -0.000136703 0 3.84111e-06 0 1.48386e-11
45 3 0.001 -0.0202656 0 -7.09752e-05 1.19103e-05 0 2.86678e-06 0 1.04684e-11
46 3 0.001 -0.0196322 0 -7.38221e-05 -0.000231715 0 -9.47264e-06 0 6.1109e-12
47 3 0.001 -0.0189988 0 -7.67161e-05 -0.000224592 0 -4.75248e-07 0 1.06739e-12
48 3 0.001 -0.0183655 0 -7.96553e-05 0.000262715 0 7.48193e-06 0 1.53626e-12
49 3 0.001 -0.0177322 0 -8.26379e-05 -0.000241443 0 2.62707e-06 0 1.39034e-12
50 3 0.001 -0.0170989 0 -8.56634e-05 5.96179e-05 0 -1.80873e-06 0 2.26696e-13
51 3 0.001 -0.0164655 0 -8.87318e-05 0.000253836 0 -1.60886e-05 0 2.39451e-12
52 3 0.001 -0.0158322 0 -9.18429e-05 -0.000619041 0 -5.31517e-07 0 8.2914e-12
53 3 0.001 -0.0151989 0 -9.49927e-05 0.000415628 0 5.12644e-06 0 5.96129e-12
54 3 0.001 -0.0145656 0 -9.81781e-05 0.000195905 0 6.23018e-06 0 2.29743e-12
55 3 0.001 -0.0139322 0 -0.000101396 -0.000233327 0 2.69536e-05 0 2.24033e-12
56 3 0.001 -0.0132989 0 -0.000104646 0.000242249 0 5.07061e-06 0 2.41118e-12
57 3 0.001 -0.0126655 0 -0.000107931 -0.000451205 0 -2.47143e-05 0 4.21675e-12
58 3 0.001 -0.0120322 0 -0.000111256 -9.92362e-07 0 -2.52013e-05 0 3.62611e-12
59 3 0.001 -0.0113989 0 -0.000114622 0.000319463 0 -7.73358e-06 0 2.31378e-12
60 3 0.001 -0.0107656 0 -0.000118023 0.000148432 0 5.55139e-06 0 3.23314e-12
61 3 0.001 -0.0101322 0 -0.000121454 -2.84522e-05 0 6.26987e-06 0 4.90778e-12
62 3 0.001 -0.00949887 0 -0.000124908 -0.000119554 0 1.26363e-05 0 2.66386e-12
63 3 0.001 -0.00886553 0 -0.000128383 -0.00029609 0 1.3039e-05 0 1.92976e-12
64 3 0.001 -0.00823224 0 -0.000131875 8.55212e-05 0 1.60405e-06 0 1.85397e-12
65 3 0.001 -0.00759893 0 -0.000135387 1.6074e-05 0 -1.20628e-06 0 7.1707e-13
66 3 0.001 -0.00696562 0 -0.000138919 -0.00027865 0 -1.02181e-05 0 5.74312e-12
67 3 0.001 -0.00633236 0 -0.000142472 3.90015e-05 0 -8.9858e-06 0 9.78507e-12
68 3 0.001 -0.00569909 0 -0.000146046 2.38041e-05 0 1.82349e-05 0 8.06714e-12
69 3 0.001 -0.00506582 0 -0.000149636 -0.000286842 0 1.86295e-05 0 1.79674e-11
70 3 0.001 -0.00443259 0 -0.000153244 -0.000310309 0 8.3797e-07 0 4.74877e-11
71 3 0.001 -0.00379941 0 -0.000156872 0.000179433 0 -7.06974e-06 0 5.45348e-11
72 3 0.001 -0.00316621 0 -0.000160526 0.000384299 0 1.15176e-06 0 2.58915e-11
73 3 0.001 -0.00253294 0 -0.000164207 0.000249505 0 7.38868e-06 0 4.90139e-12
74 3 0.001 -0.00189963 0 -0.00016792 0.000154297 0 4.41575e-06 0 4.95464e-13
75 3 0.001 -0.0012663 0 -0.000171668 -0.0002368 0 -2.71227e-06 0 1.3527e-12
76 3 0.001 -0.000633006 0 -0.000175457 -3.02086e-05 0 -2.23367e-05 0 2.75863e-12
77 3 0.001 2.8341e-07 0 -0.000179293 0.000231033 0 -1.65321e-05 0 1.65244e-12
78 3 0.001 0.00063361 0 -0.000183177 6.09212e-05 0 5.94074e-06 0 4.16816e-13
79 3 0.001 0.00126695 0 -0.000187106 -0.000251438 0 2.06705e-06 0 1.3834e-12
80 3 0.001 0.00190024 0 -0.000191078 3.88931e-05 0 -6.43112e-06 0 1.5868e-12
81 3 0.001 0.00253354 0 -0.000195094 0.000227803 0 1.12946e-05 0 1.07045e-12
82 3 0.001 0.00316688 0 -0.00019915 -0.00061299 0 1.31555e-05 0 1.09402e-11
83 3 0.001 0.00380012 0 -0.000203247 -0.000493456 0 -5.4205e-06 0 5.14024e-11
84 3 0.001 0.00443327 0 -0.000207387 9.02847e-05 0 -1.77595e-06 0 7.48348e-11
85 3 0.001 0.00506644 0 -0.000211571 0.000263154 0 -2.66132e-06 0 5.09357e-11
86 3 0.001 0.00569966 0 -0.000215799 9.82386e-05 0 -7.46692e-06 0 2.93056e-11
87 3 0.001 0.00633289 0 -0.00022007 0.000167562 0 2.06827e-06 0 1.8118e-11
88 3 0.001 0.00696614 0 -0.000224385 0.000330309 0 -4.17966e-06 0 5.96431e-12
89 3 0.001 0.00759945 0 -0.000228742 -0.000150873 0 -2.40341e-06 0 1.70674e-12
90 3 0.001 0.00823274 0 -0.000233139 -6.51592e-05 0 9.48234e-06 0 4.47124e-12
91 3 0.001 0.00886601 0 -0.000237575 3.4529e-05 0 1.01814e-05 0 5.01316e-12
92 3 0.001 0.00949929 0 -0.00024205 -3.8857e-05 0 -1.39523e-06 0 5.1098e-12
93 3 0.001 0.0101326 0 -0.000246566 0.000365264 0 -1.22767e-05 0 3.34636e-12
94 3 0.001 0.0107659 0 -0.000251125 1.29169e-06 0 2.00011e-06 0 7.97949e-13
95 3 0.001 0.0113992 0 -0.000255726 -0.000114257 0 2.10215e-05 0 4.13907e-13
96 3 0.001 0.0120325 0 -0.00026037 -0.000220923 0 1.14937e-05 0 2.31513e-12
97 3 0.001 0.0126658 0 -0.00026506 0.000120628 0 -1.82902e-05 0 2.85732e-12
98 3 0.001 0.0132991 0 -0.000269804 0.000293147 0 -1.21863e-05 0 1.85153e-12
99 3 0.001 0.0139325 0 -0.000274603 0.00040237 0 -1.31905e-05 0 1.51703e-11
100 3 0.001 0.0145659 0 -0.000279459 -0.00037548 0 -4.84476e-06 0 1.55964e-11
101 3 0.001 0.0151992 0 -0.00028437 -0.000270937 0 1.96955e-06 0 1.90724e-12
102 3 0.001 0.0158325 0 -0.000289333 0.000399522 0 -1.74802e-06 0 4.75808e-12
103 3 0.001 0.0164659 0 -0.000294346 -0.000405715 0 1.18228e-05 0 4.79409e-12
104 3 0.001 0.0170992 0 -0.000299406 0.000180857 0 -5.42726e-06 0 7.00805e-13
105 3 0.001 0.0177325 0 -0.000304511 -9.67458e-05 0 -4.60604e-06 0 4.88689e-13
106 3 0.001 0.0183658 0 -0.000309661 -0.000309438 0 2.15787e-05 0 3.66782e-12
107 3 0.001 0.0189991 0 -0.000314852 0.000325826 0 6.39108e-06 0 3.6941e-12
108 3 0.001 0.0196324 0 -0.000320086 0.000108463 0 -2.07067e-05 0 7.99432e-13
109 3 0.001 0.0202658 0 -0.000325367 0.000262893 0 -1.43675e-05 0 7.34765e-12
110 3 0.001 0.0208991 0 -0.000330692 0.00021059 0 1.46744e-06 0 2.19252e-11
111 3 0.001 0.0215325 0 -0.000336058 -0.000179765 0 -7.03617e-07 0 2.29795e-11
112 3 0.001 0.0221659 0 -0.000341463 -1.05892e-05 0 -8.89722e-06 0 1.49002e-11
113 3 0.001 0.0227993 0 -0.000346902 -0.000104323 0 1.14006e-05 0 1.13668e-11
114 3 0.001 0.0234327 0 -0.000352372 -9.20541e-05 0 1.85278e-05 0 6.15491e-12
115 3 0.001 0.024066 0 -0.000357868 -4.80921e-05 0 -2.14715e-06 0 3.3189e-12
116 3 0.001 0.0246993 0 -0.000363392 0.000205658 0 -1.77577e-05 0 7.2491e-12
117 3 0.001 0.0253327 0 -0.000368944 6.05062e-05 0 -3.49071e-06 0 1.40212e-11
118 3 0.001 0.0259661 0 -0.00037452 -0.000302153 0 1.00534e-05 0 8.83657e-12
119 3 0.001 0.0265994 0 -0.000380117 -0.000143031 0 6.36327e-07 0 8.00127e-13
120 3 0.001 0.0272327 0 -0.000385733 -0.00026778 0 5.9509e-06 0 3.04386e-12
121 3 0.001 0.027866 0 -0.000391364 0.000193311 0 5.61618e-06 0 3.29703e-12
122 3 0.001 0.0284993 0 -0.00039701 -7.94417e-05 0 5.95091e-06 0 1.28264e-12
123 3 0.001 0.0291326 0 -0.00040267 -6.30181e-05 0 -1.13348e-07 0 3.04232e-12
124 3 0.001 0.0297659 0 -0.000408346 0.000203948 0 -2.28897e-05 0 2.02513e-12
125 3 0.001 0.0303992 0 -0.000414038 -0.00015839 0 -1.15089e-05 0 1.27562e-12
126 3 0.001 0.0310324 0 -0.000419742 -4.94374e-05 0 1.86091e-05 0 3.34495e-12
127 3 0.001 0.0316657 0 -0.000425453 -8.34158e-06 0 2.47832e-05 0 4.32339e-12
128 3 0.001 0.032299 0 -0.000431167 -0.000139595 0 4.86892e-06 0 7.97384e-12
129 3 0.001 0.0329322 0 -0.000436888 -0.000325673 0 -1.05588e-05 0 2.58438e-11
130 3 0.001 0.0335654 0 -0.000442618 0.000424383 0 -9.2351e-06 0 2.32075e-11
131 3 0.001 0.0341987 0 -0.000448359 0.00051932 0 -1.93116e-06 0 5.57638e-12
132 3 0.001 0.034832 0 -0.00045411 -0.000182623 0 -5.55943e-07 0 2.64326e-12
133 3 0.001 0.0354653 0 -0.00045987 -6.00073e-05 0 1.38074e-06 0 1.62342e-13
134 3 0.001 0.0360986 0 -0.000465639 0.000232341 0 -8.6029e-06 0 2.27902e-12
135 3 0.001 0.036732 0 -0.000471418 -7.03718e-05 0 7.8528e-07 0 3.39714e-12
136 3 0.001 0.0373653 0 -0.000477203 0.000267371 0 1.02153e-05 0 8.81132e-12
137 3 0.001 0.0379987 0 -0.000482994 0.000222879 0 2.96055e-06 0 2.53707e-11
138 3 0.001 0.0386321 0 -0.000488792 -0.000201612 0 -6.35888e-06 0 2.61486e-11
139 3 0.001 0.0392655 0 -0.000494599 -0.000351223 0 -1.16131e-05 0 8.90123e-12
140 3 0.001 0.0398988 0 -0.000500413 -4.77878e-05 0 -9.04455e-06 0 5.52902e-13
141 3 0.001 0.0405321 0 -0.000506233 0.000454238 0 3.38758e-06 0 1.07918e-11
142 3 0.001 0.0411655 0 -0.000512056 -0.000275885 0 6.5396e-06 0 1.29031e-11
143 3 0.001 0.0417989 0 -0.000517876 4.61063e-06 0 3.2017e-06 0 4.55599e-12
144 3 0.001 0.0424322 0 -0.000523693 5.38403e-05 0 6.81423e-06 0 5.81635e-12
145 3 0.001 0.0430656 0 -0.000529504 -7.41421e-06 0 2.89997e-09 0 6.81261e-12
146 3 0.001 0.0436989 0 -0.00053531 0.000327659 0 -1.26976e-05 0 1.87346e-11
147 3 0.001 0.0443323 0 -0.000541111 -0.000725412 0 1.25577e-05 0 1.59521e-11
148 3 0.001 0.0449656 0 -0.000546903 -0.000362175 0 1.42571e-05 0 9.89048e-12
149 3 0.001 0.0455989 0 -0.000552685 0.000220007 0 -5.91184e-06 0 9.50851e-12
150 3 0.001 0.0462322 0 -0.000558461 -8.48536e-05 0 1.11304e-05 0 5.92779e-10
2 2 0.001 0.0475 0 -0.00057 0.000444034 0 -2.68365e-05 0 5.6084e-10
151 3 0.001 0.0468661 0 -0.000564235 -0.000102973 0 1.10864e-05 0 1.15347e-09
