ITEM: TIMESTEP
270000
ITEM: NUMBER OF ATOMS
151
ITEM: BOX BOUNDS ff ff ff
-5.2499999999999998e-02 5.2499999999999998e-02
-6.0000000000000001e-03 6.0000000000000001e-03
-1.4999999999999999e-02 1.4999999999999999e-02
ITEM: ATOMS id type radius x y z fx fy fz c_bendingE c_stretchingE
146 3 0.001 0.0436995 0 -0.00242879 1.41563e-05 0 -2.81992e-06 0 1.99541e-10
147 3 0.001 0.0443327 0 -0.00245147 0.0001777 0 -1.20734e-05 0 2.25615e-10
148 3 0.001 0.0449659 0 -0.00247416 -1.91053e-05 0 -6.78353e-07 0 2.47137e-10
149 3 0.001 0.0455991 0 -0.00249685 -2.93064e-05 0 1.61864e-06 0 2.68667e-10
150 3 0.001 0.0462323 0 -0.00251955 -0.000255915 0 1.39656e-05 0 1.42155e-09
2 2 0.001 0.0475 0 -0.002565 -0.00130897 0 4.96156e-05 0 1.21793e-09
151 3 0.001 0.0468662 0 -0.00254228 -0.000125865 0 8.17587e-06 0 2.49302e-09
71 3 0.001 -0.0037918 0 -0.000824111 6.18864e-05 0 -4.39156e-06 0 1.87336e-10
72 3 0.001 -0.0031585 0 -0.000843133 -1.79081e-05 0 -2.92258e-07 0 1.92782e-10
73 3 0.001 -0.00252521 0 -0.00086226 -7.16672e-05 0 8.19681e-06 0 1.81728e-10
74 3 0.001 -0.00189192 0 -0.000881488 2.09628e-05 0 6.59739e-06 0 1.75427e-10
75 3 0.001 -0.00125864 0 -0.000900815 4.6941e-05 0 -4.27113e-07 0 1.83699e-10
76 3 0.001 -0.000625359 0 -0.000920238 -2.06887e-05 0 -1.41652e-06 0 1.86912e-10
77 3 0.001 7.9206e-06 0 -0.000939756 4.51624e-05 0 -3.2611e-07 0 1.90002e-10
78 3 0.001 0.000641204 0 -0.000959367 3.12974e-05 0 -4.90948e-06 0 1.99688e-10
79 3 0.001 0.00127449 0 -0.00097907 -8.71242e-05 0 -6.17801e-06 0 1.92772e-10
80 3 0.001 0.00190776 0 -0.000998862 8.88441e-06 0 -3.10583e-07 0 1.82915e-10
81 3 0.001 0.00254103 0 -0.00101874 3.747e-05 0 7.00052e-06 0 1.88652e-10
83 3 0.001 0.00380757 0 -0.00105874 -1.68416e-05 0 2.85949e-06 0 1.89427e-10
84 3 0.001 0.00444083 0 -0.00107885 1.12383e-05 0 -2.66543e-06 0 1.88725e-10
82 3 0.001 0.0031743 0 -0.0010387 -6.70659e-06 0 8.56528e-06 0 1.92419e-10
85 3 0.001 0.00507409 0 -0.00109904 -6.6833e-05 0 -2.11003e-06 0 1.81966e-10
86 3 0.001 0.00570734 0 -0.00111932 -4.99284e-05 0 -2.75873e-06 0 1.67934e-10
87 3 0.001 0.00634058 0 -0.00113966 -3.87118e-05 0 -3.22167e-06 0 1.57675e-10
88 3 0.001 0.00697381 0 -0.00116008 -3.37489e-05 0 1.97096e-06 0 1.49523e-10
89 3 0.001 0.00760703 0 -0.00118057 0.000108088 0 1.82191e-06 0 1.58089e-10
90 3 0.001 0.00824026 0 -0.00120113 -2.88434e-05 0 2.42786e-06 0 1.67013e-10
91 3 0.001 0.00887349 0 -0.00122176 0.000139354 0 -2.59675e-06 0 1.80607e-10
92 3 0.001 0.00950674 0 -0.00124245 0.000187552 0 -1.06284e-06 0 2.22975e-10
93 3 0.001 0.01014 0 -0.0012632 -7.77064e-05 0 4.45406e-06 0 2.37468e-10
94 3 0.001 0.0107733 0 -0.00128402 -7.947e-05 0 1.28136e-06 0 2.15978e-10
95 3 0.001 0.0114065 0 -0.00130491 -3.53893e-05 0 -4.82058e-06 0 2.00843e-10
96 3 0.001 0.0120398 0 -0.00132585 -6.02892e-05 0 -1.88903e-07 0 1.88794e-10
97 3 0.001 0.012673 0 -0.00134686 7.43354e-05 0 -3.5359e-06 0 1.90602e-10
98 3 0.001 0.0133062 0 -0.00136794 -2.67629e-06 0 -1.44551e-06 0 1.99589e-10
100 3 0.001 0.0145727 0 -0.00141026 0.000121166 0 -1.4229e-06 0 1.81327e-10
99 3 0.001 0.0139395 0 -0.00138907 -0.000133193 0 7.44332e-06 0 1.82888e-10
101 3 0.001 0.0152059 0 -0.00143151 8.04418e-05 0 -1.23524e-06 0 2.06625e-10
102 3 0.001 0.0158392 0 -0.00145281 -9.93634e-05 0 5.69761e-06 0 2.04217e-10
103 3 0.001 0.0164724 0 -0.00147417 3.20671e-05 0 -6.89678e-07 0 1.95384e-10
104 3 0.001 0.0171056 0 -0.00149559 -4.07254e-05 0 -3.41021e-06 0 1.94319e-10
105 3 0.001 0.0177388 0 -0.00151706 -0.000113378 0 -1.79446e-06 0 1.75567e-10
106 3 0.001 0.018372 0 -0.00153859 -1.61469e-05 0 -3.93937e-06 0 1.6011e-10
107 3 0.001 0.0190052 0 -0.00156017 -1.65487e-05 0 -1.58771e-06 0 1.56397e-10
108 3 0.001 0.0196384 0 -0.00158181 0.000115594 0 6.561e-07 0 1.68113e-10
109 3 0.001 0.0202716 0 -0.00160349 3.87745e-05 0 1.93163e-06 0 1.86497e-10
110 3 0.001 0.0209048 0 -0.00162522 -9.15989e-05 0 1.52325e-06 0 1.80135e-10
111 3 0.001 0.021538 0 -0.00164699 -1.42474e-05 0 4.96516e-06 0 1.67286e-10
112 3 0.001 0.0221712 0 -0.00166881 0.000129174 0 -1.32739e-06 0 1.81374e-10
113 3 0.001 0.0228044 0 -0.00169067 4.14861e-05 0 -4.91938e-06 0 2.02534e-10
114 3 0.001 0.0234377 0 -0.00171257 -0.00012207 0 1.67227e-06 0 1.92547e-10
115 3 0.001 0.0240709 0 -0.00173451 -0.000117813 0 2.29066e-06 0 1.6351e-10
116 3 0.001 0.024704 0 -0.00175649 -7.96848e-06 0 2.11101e-06 0 1.48951e-10
117 3 0.001 0.0253372 0 -0.00177851 4.0156e-05 0 3.74181e-06 0 1.52546e-10
118 3 0.001 0.0259704 0 -0.00180056 -4.86546e-05 0 8.59225e-07 0 1.51591e-10
119 3 0.001 0.0266035 0 -0.00182265 8.782e-05 0 -1.01298e-05 0 1.56144e-10
120 3 0.001 0.0272367 0 -0.00184478 -0.000125481 0 2.53422e-06 0 1.52096e-10
121 3 0.001 0.0278699 0 -0.00186694 -2.84682e-05 0 5.20917e-06 0 1.35034e-10
122 3 0.001 0.028503 0 -0.00188913 0.000155682 0 -1.31364e-06 0 1.4925e-10
123 3 0.001 0.0291362 0 -0.00191135 -6.3629e-05 0 8.5112e-07 0 1.59199e-10
124 3 0.001 0.0297694 0 -0.0019336 7.94536e-05 0 -4.16668e-06 0 1.61076e-10
125 3 0.001 0.0304026 0 -0.00195588 -3.79226e-05 0 3.90485e-06 0 1.65793e-10
126 3 0.001 0.0310357 0 -0.00197819 -5.46187e-05 0 8.65736e-07 0 1.5517e-10
129 3 0.001 0.0329352 0 -0.00204527 4.07484e-05 0 1.99883e-06 0 1.68676e-10
127 3 0.001 0.0316689 0 -0.00200052 9.66911e-05 0 -8.1757e-06 0 1.60123e-10
128 3 0.001 0.0323021 0 -0.00202289 -3.14125e-05 0 -9.57002e-07 0 1.67568e-10
130 3 0.001 0.0335684 0 -0.00206768 7.46897e-05 0 3.28068e-06 0 1.82613e-10
131 3 0.001 0.0342016 0 -0.00209011 9.87325e-05 0 4.53786e-07 0 2.04562e-10
132 3 0.001 0.0348348 0 -0.00211257 -6.41766e-05 0 3.04314e-06 0 2.08937e-10
133 3 0.001 0.035468 0 -0.00213504 -6.90592e-05 0 -3.78151e-06 0 1.91842e-10
134 3 0.001 0.0361012 0 -0.00215754 8.00847e-05 0 -8.35317e-06 0 1.93317e-10
135 3 0.001 0.0367344 0 -0.00218006 1.01857e-05 0 -5.21895e-07 0 2.04779e-10
136 3 0.001 0.0373676 0 -0.0022026 8.43378e-05 0 -1.66761e-06 0 2.17393e-10
137 3 0.001 0.0380008 0 -0.00222516 -7.70573e-05 0 3.3108e-06 0 2.18339e-10
138 3 0.001 0.038634 0 -0.00224773 -0.000149183 0 3.37328e-07 0 1.89384e-10
139 3 0.001 0.0392671 0 -0.00227032 5.38294e-05 0 -3.47764e-06 0 1.77293e-10
140 3 0.001 0.0399003 0 -0.00229293 0.000179913 0 -1.20091e-06 0 2.07287e-10
141 3 0.001 0.0405335 0 -0.00231555 3.46183e-05 0 7.09736e-06 0 2.35548e-10
142 3 0.001 0.0411667 0 -0.00233818 -9.59467e-05 0 5.80745e-06 0 2.27187e-10
143 3 0.001 0.0417999 0 -0.00236081 -1.12933e-05 0 -4.43382e-06 0 2.12566e-10
144 3 0.001 0.0424331 0 -0.00238346 1.59293e-05 0 -4.44087e-06 0 2.13223e-10
145 3 0.001 0.0430663 0 -0.00240612 -6.74513e-05 0 5.40632e-06 0 2.06533e-10
1 1 0.001 -0.0475 0 0 -0.00413521 0 0.00262151 0 1.60362e-34
3 3 0.001 -0.0468667 0 0 0.00543367 0 -0.00268583 0 1.21743e-09
4 3 0.001 -0.0462324 0 -1.04064e-06 0.000166777 0 2.19918e-06 0 1.33115e-09
5 3 0.001 -0.0455988 0 -2.58837e-06 0.000116748 0 8.54353e-08 0 2.16929e-10
6 3 0.001 -0.0449652 0 -4.63256e-06 0.000143316 0 -3.64343e-07 0 2.25984e-10
7 3 0.001 -0.0443316 0 -7.16204e-06 -0.000178459 0 4.47169e-06 0 2.21458e-10
8 3 0.001 -0.043698 0 -1.01656e-05 -3.86505e-06 0 2.97433e-06 0 1.9689e-10
9 3 0.001 -0.0430645 0 -1.36332e-05 -5.87159e-05 0 5.18869e-06 0 1.89069e-10
10 3 0.001 -0.0424309 0 -1.75556e-05 -9.26785e-05 0 3.23004e-06 0 1.70748e-10
11 3 0.001 -0.0417974 0 -2.19248e-05 8.8083e-05 0 -8.70143e-06 0 1.70198e-10
12 3 0.001 -0.0411638 0 -2.67335e-05 0.000151666 0 -1.23725e-05 0 2.00115e-10
13 3 0.001 -0.0405302 0 -3.19731e-05 4.47895e-05 0 -3.23248e-06 0 2.25711e-10
14 3 0.001 -0.0398966 0 -3.76328e-05 -9.90943e-05 0 1.96138e-06 0 2.18536e-10
15 3 0.001 -0.0392631 0 -4.37013e-05 -4.17284e-05 0 5.17563e-06 0 1.99883e-10
16 3 0.001 -0.0386295 0 -5.01678e-05 8.23679e-07 0 8.0515e-06 0 1.94622e-10
17 3 0.001 -0.037996 0 -5.70231e-05 3.41652e-05 0 3.90988e-06 0 1.99092e-10
18 3 0.001 -0.0373624 0 -6.42592e-05 7.10903e-05 0 -4.90449e-06 0 2.12892e-10
19 3 0.001 -0.0367289 0 -7.18698e-05 -1.90628e-05 0 -6.14139e-06 0 2.19765e-10
20 3 0.001 -0.0360953 0 -7.98471e-05 -0.00014616 0 1.53962e-06 0 1.98534e-10
21 3 0.001 -0.0354618 0 -8.81825e-05 7.10624e-05 0 -7.83602e-07 0 1.88724e-10
22 3 0.001 -0.0348283 0 -9.68682e-05 2.55699e-05 0 1.16126e-06 0 2.00884e-10
23 3 0.001 -0.0341947 0 -0.000105896 -6.20958e-06 0 -5.27008e-07 0 2.03377e-10
24 3 0.001 -0.0335612 0 -0.000115258 3.65338e-05 0 -7.90281e-06 0 2.07372e-10
25 3 0.001 -0.0329277 0 -0.000124947 1.949e-05 0 -1.78435e-06 0 2.14767e-10
26 3 0.001 -0.0322942 0 -0.000134954 -0.000122291 0 7.25957e-06 0 2.01601e-10
27 3 0.001 -0.0316607 0 -0.000145269 -0.000157182 0 8.71625e-06 0 1.67384e-10
28 3 0.001 -0.0310272 0 -0.000155885 0.000112024 0 1.90722e-07 0 1.61864e-10
29 3 0.001 -0.0303937 0 -0.000166796 5.06738e-05 0 -1.24875e-06 0 1.80988e-10
30 3 0.001 -0.0297602 0 -0.000177995 -4.23322e-05 0 9.40749e-07 0 1.81995e-10
31 3 0.001 -0.0291268 0 -0.000189477 -4.27328e-05 0 1.76917e-06 0 1.71724e-10
32 3 0.001 -0.0284933 0 -0.000201236 -8.70131e-05 0 3.38499e-06 0 1.56745e-10
33 3 0.001 -0.0278599 0 -0.000213266 4.76772e-05 0 -3.74531e-06 0 1.52202e-10
34 3 0.001 -0.0272264 0 -0.000225563 -6.56168e-05 0 9.2376e-07 0 1.50251e-10
35 3 0.001 -0.026593 0 -0.000238121 -9.63558e-05 0 4.21818e-06 0 1.32868e-10
36 3 0.001 -0.0259596 0 -0.000250935 0.000188854 0 -4.18176e-06 0 1.43266e-10
37 3 0.001 -0.0253262 0 -0.000264001 -3.91667e-05 0 2.33925e-06 0 1.59258e-10
38 3 0.001 -0.0246927 0 -0.000277312 -9.40153e-05 0 -9.53377e-08 0 1.44515e-10
39 3 0.001 -0.0240593 0 -0.000290866 0.000134718 0 -4.79708e-06 0 1.49194e-10
40 3 0.001 -0.0234259 0 -0.000304657 0.000144807 0 5.20152e-07 0 1.81833e-10
41 3 0.001 -0.0227925 0 -0.000318682 8.19648e-06 0 -3.81261e-06 0 2.00604e-10
42 3 0.001 -0.0221591 0 -0.000332935 -6.47174e-05 0 -4.80562e-06 0 1.93513e-10
43 3 0.001 -0.0215256 0 -0.000347411 -2.96008e-05 0 8.36976e-07 0 1.81731e-10
44 3 0.001 -0.0208922 0 -0.000362106 4.72818e-06 0 2.70233e-06 0 1.78673e-10
45 3 0.001 -0.0202588 0 -0.000377013 3.84428e-06 0 1.66948e-06 0 1.79703e-10
46 3 0.001 -0.0196254 0 -0.000392126 4.23423e-05 0 2.14044e-06 0 1.85395e-10
47 3 0.001 -0.018992 0 -0.000407443 2.33857e-05 0 -8.49999e-07 0 1.93581e-10
48 3 0.001 -0.0183586 0 -0.000422959 -7.18785e-05 0 -1.89332e-06 0 1.87612e-10
49 3 0.001 -0.0177253 0 -0.000438669 3.6807e-05 0 -6.38623e-06 0 1.83229e-10
50 3 0.001 -0.0170919 0 -0.00045457 7.09452e-05 0 -5.80062e-06 0 1.96825e-10
51 3 0.001 -0.0164585 0 -0.000470656 1.62497e-05 0 -1.50617e-06 0 2.08011e-10
52 3 0.001 -0.0158251 0 -0.000486921 3.13857e-05 0 5.7236e-08 0 2.14315e-10
53 3 0.001 -0.0151917 0 -0.000503358 -0.000126702 0 1.00502e-05 0 2.02113e-10
54 3 0.001 -0.0145583 0 -0.000519962 8.11429e-08 0 5.33256e-06 0 1.85735e-10
55 3 0.001 -0.013925 0 -0.000536727 7.92325e-05 0 -5.12131e-06 0 1.95806e-10
56 3 0.001 -0.0132916 0 -0.000553651 -0.000119454 0 -1.68304e-06 0 1.9092e-10
57 3 0.001 -0.0126583 0 -0.00057073 7.55042e-05 0 9.72872e-07 0 1.85279e-10
58 3 0.001 -0.0120249 0 -0.000587957 7.84396e-05 0 5.44728e-07 0 2.0479e-10
59 3 0.001 -0.0113916 0 -0.000605331 -7.31743e-05 0 8.77401e-07 0 2.05456e-10
60 3 0.001 -0.0107582 0 -0.000622846 5.81834e-05 0 6.64941e-07 0 2.03465e-10
61 3 0.001 -0.0101249 0 -0.000640498 0.000124858 0 -3.18721e-07 0 2.28104e-10
62 3 0.001 -0.0094915 0 -0.000658286 -9.01726e-05 0 4.89791e-06 0 2.32711e-10
63 3 0.001 -0.00885815 0 -0.000676206 -8.27002e-05 0 5.79401e-06 0 2.09333e-10
64 3 0.001 -0.00822482 0 -0.000694255 -0.000111685 0 6.11963e-06 0 1.84669e-10
65 3 0.001 -0.00759151 0 -0.000712432 -0.000186039 0 2.27848e-06 0 1.50228e-10
66 3 0.001 -0.00695823 0 -0.000730736 7.2388e-05 0 -6.2758e-06 0 1.3729e-10
67 3 0.001 -0.00632495 0 -0.000749168 2.11884e-06 0 -3.2103e-06 0 1.45249e-10
68 3 0.001 -0.00569167 0 -0.000767724 2.1062e-05 0 -8.48045e-06 0 1.47842e-10
69 3 0.001 -0.00505839 0 -0.000786403 8.19012e-05 0 -3.83141e-06 0 1.59594e-10
70 3 0.001 -0.0044251 0 -0.0008052 4.44141e-05 0 6.23165e-07 0 1.74313e-10
