ITEM: TIMESTEP
5100000
ITEM: NUMBER OF ATOMS
151
ITEM: BOX BOUNDS ff ff ff
-5.5000000000000000e-02 5.5000000000000000e-02
-6.0000000000000001e-03 6.0000000000000001e-03
-2.5000000000000001e-02 2.5000000000000001e-02
ITEM: ATOMS id type radius x y z fx fy fz c_bendingE c_stretchingE
122 3 0.001 0.030007 0 -0.0039015 -5.27114e-10 0 -8.10662e-09 0 2.45592e-09
123 3 0.001 0.0306734 0 -0.00394137 7.09582e-10 0 8.05995e-09 0 2.45592e-09
124 3 0.001 0.0313398 0 -0.00398125 2.71632e-10 0 4.94958e-09 0 2.45592e-09
125 3 0.001 0.0320062 0 -0.00402114 -5.10976e-10 0 -7.4096e-09 0 2.45592e-09
126 3 0.001 0.0326726 0 -0.00406103 2.8504e-10 0 4.82798e-09 0 2.45592e-09
127 3 0.001 0.033339 0 -0.00410093 -4.66376e-12 0 -1.92989e-09 0 2.45592e-09
128 3 0.001 0.0340054 0 -0.00414084 -1.91941e-11 0 -2.3336e-09 0 2.45592e-09
129 3 0.001 0.0346718 0 -0.00418076 -4.67988e-11 0 1.64324e-09 0 2.45592e-09
130 3 0.001 0.0353382 0 -0.00422068 -4.96732e-10 0 -2.91367e-09 0 2.45592e-09
131 3 0.001 0.0360046 0 -0.00426061 7.87659e-10 0 1.12313e-08 0 2.45592e-09
132 3 0.001 0.036671 0 -0.00430054 -3.09071e-10 0 -1.18233e-08 0 2.45592e-09
133 3 0.001 0.0373374 0 -0.00434048 -1.20238e-10 0 4.23307e-10 0 2.45592e-09
134 3 0.001 0.0380038 0 -0.00438042 1.33263e-10 0 5.32474e-09 0 2.45592e-09
135 3 0.001 0.0386702 0 -0.00442037 2.12139e-10 0 4.68625e-09 0 2.45592e-09
136 3 0.001 0.0393365 0 -0.00446032 -7.89178e-10 0 -1.57766e-08 0 2.45592e-09
137 3 0.001 0.0400029 0 -0.00450028 5.80246e-10 0 6.85195e-09 0 2.45592e-09
138 3 0.001 0.0406693 0 -0.00454024 4.19201e-10 0 1.18401e-08 0 2.45592e-09
139 3 0.001 0.0413357 0 -0.0045802 -8.4627e-10 0 -1.40892e-08 0 2.45592e-09
140 3 0.001 0.0420021 0 -0.00462017 6.86739e-10 0 5.17763e-09 0 2.45592e-09
141 3 0.001 0.0426685 0 -0.00466014 1.27464e-10 0 3.92047e-09 0 2.45592e-09
142 3 0.001 0.0433349 0 -0.00470011 -1.11476e-09 0 -1.47588e-08 0 2.45592e-09
143 3 0.001 0.0440013 0 -0.00474009 9.3577e-10 0 1.62652e-08 0 2.45592e-09
144 3 0.001 0.0446677 0 -0.00478006 -4.22685e-10 0 -7.93614e-09 0 2.45592e-09
145 3 0.001 0.0453341 0 -0.00482004 4.5775e-10 0 4.31265e-09 0 2.45592e-09
146 3 0.001 0.0460005 0 -0.00486002 -1.58016e-10 0 -3.16786e-09 0 2.45592e-09
147 3 0.001 0.0466669 0 -0.0049 -4.47498e-10 0 -2.55064e-09 0 2.45592e-09
148 3 0.001 0.0473333 0 -0.00493999 2.34221e-10 0 3.59393e-09 0 2.45592e-09
149 3 0.001 0.0479996 0 -0.00497997 5.76504e-10 0 7.4448e-09 0 2.45592e-09
150 3 0.001 0.048666 0 -0.00501996 -9.20042e-10 0 -1.4776e-08 0 4.52605e-09
2 2 0.001 0.05 0 -0.0051 -0.00530943 0 0.000319616 0 3.29809e-09
151 3 0.001 0.049333 0 -0.00505998 6.29015e-10 0 8.2286e-09 0 6.59617e-09
83 3 0.001 0.00401664 0 -0.00236054 5.82134e-10 0 1.30359e-08 0 2.45591e-09
84 3 0.001 0.00468309 0 -0.00239946 -7.30535e-10 0 -1.1341e-08 0 2.45591e-09
85 3 0.001 0.00534954 0 -0.00243843 8.35434e-10 0 9.82195e-09 0 2.45591e-09
86 3 0.001 0.00601599 0 -0.00247745 -3.14929e-10 0 -4.79533e-09 0 2.45591e-09
87 3 0.001 0.00668244 0 -0.00251651 -6.90442e-10 0 -3.89301e-09 0 2.45591e-09
88 3 0.001 0.00734888 0 -0.00255561 6.19401e-10 0 7.99177e-09 0 2.45591e-09
89 3 0.001 0.00801532 0 -0.00259476 7.15116e-11 0 -4.9715e-09 0 2.45591e-09
90 3 0.001 0.00868176 0 -0.00263395 -2.40684e-10 0 -4.86012e-09 0 2.45591e-09
91 3 0.001 0.0093482 0 -0.00267317 4.95321e-10 0 1.11816e-08 0 2.45591e-09
92 3 0.001 0.0100146 0 -0.00271243 -6.83661e-10 0 -5.95915e-09 0 2.45591e-09
93 3 0.001 0.0106811 0 -0.00275173 8.99097e-11 0 -5.87817e-10 0 2.45591e-09
94 3 0.001 0.0113475 0 -0.00279106 5.83361e-10 0 4.03402e-09 0 2.45591e-09
95 3 0.001 0.0120139 0 -0.00283042 -9.42645e-10 0 -1.30289e-08 0 2.45591e-09
96 3 0.001 0.0126804 0 -0.00286982 8.84749e-10 0 1.7924e-08 0 2.45591e-09
97 3 0.001 0.0133468 0 -0.00290924 -4.03913e-10 0 -8.47283e-09 0 2.45591e-09
98 3 0.001 0.0140132 0 -0.00294869 3.37654e-11 0 1.53204e-10 0 2.45591e-09
99 3 0.001 0.0146796 0 -0.00298817 2.58664e-10 0 4.81797e-09 0 2.45591e-09
100 3 0.001 0.015346 0 -0.00302768 -5.91147e-10 0 -1.00245e-08 0 2.45591e-09
101 3 0.001 0.0160125 0 -0.00306721 3.04623e-10 0 3.7862e-09 0 2.45591e-09
102 3 0.001 0.0166789 0 -0.00310676 4.55631e-10 0 3.80729e-09 0 2.45591e-09
103 3 0.001 0.0173453 0 -0.00314633 -2.04227e-10 0 -4.37344e-10 0 2.45592e-09
104 3 0.001 0.0180117 0 -0.00318593 -5.36247e-10 0 -2.23115e-09 0 2.45592e-09
105 3 0.001 0.0186781 0 -0.00322555 1.50677e-10 0 6.45016e-10 0 2.45592e-09
106 3 0.001 0.0193445 0 -0.00326519 3.16428e-10 0 1.2965e-09 0 2.45592e-09
107 3 0.001 0.0200109 0 -0.00330485 -1.1219e-10 0 -2.6467e-09 0 2.45592e-09
108 3 0.001 0.0206774 0 -0.00334452 -2.14465e-10 0 -3.16395e-09 0 2.45592e-09
109 3 0.001 0.0213438 0 -0.00338422 2.71128e-10 0 5.0464e-09 0 2.45592e-09
110 3 0.001 0.0220102 0 -0.00342393 4.64189e-10 0 8.13566e-09 0 2.45592e-09
111 3 0.001 0.0226766 0 -0.00346365 -5.12525e-10 0 -9.39164e-09 0 2.45592e-09
112 3 0.001 0.023343 0 -0.00350339 -6.84546e-10 0 -9.09918e-09 0 2.45592e-09
113 3 0.001 0.0240094 0 -0.00354315 7.91913e-10 0 1.46784e-08 0 2.45592e-09
114 3 0.001 0.0246758 0 -0.00358292 3.65663e-10 0 2.06706e-09 0 2.45592e-09
115 3 0.001 0.0253422 0 -0.0036227 -9.95779e-10 0 -1.86937e-08 0 2.45592e-09
116 3 0.001 0.0260086 0 -0.0036625 8.8001e-10 0 1.81301e-08 0 2.45592e-09
117 3 0.001 0.026675 0 -0.0037023 -5.89401e-10 0 -8.2464e-09 0 2.45592e-09
118 3 0.001 0.0273414 0 -0.00374212 1.97002e-10 0 3.62829e-09 0 2.45592e-09
119 3 0.001 0.0280078 0 -0.00378195 -1.33724e-10 0 -5.48622e-09 0 2.45592e-09
120 3 0.001 0.0286742 0 -0.00382179 7.8862e-10 0 1.10436e-08 0 2.45592e-09
121 3 0.001 0.0293406 0 -0.00386164 -7.68175e-10 0 -7.28181e-09 0 2.45592e-09
40 3 0.001 -0.0246464 0 -0.000786487 4.1275e-10 0 1.00602e-08 0 2.45559e-09
41 3 0.001 -0.0239796 0 -0.000819082 -2.2942e-10 0 2.05548e-09 0 2.45561e-09
44 3 0.001 -0.0219794 0 -0.00091871 -6.54255e-11 0 2.43348e-09 0 2.45568e-09
42 3 0.001 -0.0233129 0 -0.000851993 5.47819e-10 0 8.85725e-09 0 2.45564e-09
43 3 0.001 -0.0226461 0 -0.000885206 -4.1306e-10 0 -1.1267e-08 0 2.45566e-09
45 3 0.001 -0.0213126 0 -0.000952491 1.28617e-11 0 6.50395e-11 0 2.4557e-09
46 3 0.001 -0.0206459 0 -0.000986538 -3.08839e-11 0 -3.49802e-09 0 2.45572e-09
48 3 0.001 -0.0193125 0 -0.00105539 -1.29427e-09 0 -2.22782e-08 0 2.45575e-09
47 3 0.001 -0.0199792 0 -0.00102084 8.76043e-10 0 1.57214e-08 0 2.45574e-09
49 3 0.001 -0.0186458 0 -0.00109017 2.67756e-10 0 1.03757e-08 0 2.45576e-09
50 3 0.001 -0.0179791 0 -0.00112517 5.22205e-10 0 8.32442e-09 0 2.45578e-09
51 3 0.001 -0.0173125 0 -0.00116039 -6.94835e-10 0 -2.18335e-08 0 2.45579e-09
52 3 0.001 -0.0166458 0 -0.00119581 1.65222e-09 0 3.11915e-08 0 2.4558e-09
53 3 0.001 -0.0159792 0 -0.00123143 -1.64086e-09 0 -2.38965e-08 0 2.45581e-09
54 3 0.001 -0.0153126 0 -0.00126724 1.36004e-10 0 2.81226e-09 0 2.45582e-09
55 3 0.001 -0.0146459 0 -0.00130323 3.41496e-10 0 4.91493e-09 0 2.45582e-09
56 3 0.001 -0.0139793 0 -0.00133939 -2.47122e-10 0 -5.88671e-09 0 2.45583e-09
57 3 0.001 -0.0133127 0 -0.00137572 7.85048e-10 0 1.33615e-08 0 2.45584e-09
58 3 0.001 -0.0126461 0 -0.00141221 -1.01264e-09 0 -1.6637e-08 0 2.45584e-09
59 3 0.001 -0.0119796 0 -0.00144885 6.66162e-10 0 1.05825e-08 0 2.45585e-09
60 3 0.001 -0.011313 0 -0.00148563 7.65551e-11 0 1.02953e-09 0 2.45586e-09
61 3 0.001 -0.0106464 0 -0.00152256 -3.51544e-10 0 -2.23723e-09 0 2.45586e-09
62 3 0.001 -0.00997985 0 -0.00155962 -7.94446e-10 0 -1.2367e-08 0 2.45586e-09
63 3 0.001 -0.0093133 0 -0.0015968 1.28344e-09 0 1.90588e-08 0 2.45587e-09
64 3 0.001 -0.00864675 0 -0.00163411 -4.15143e-10 0 -9.99209e-09 0 2.45587e-09
65 3 0.001 -0.00798021 0 -0.00167154 1.38028e-10 0 6.34562e-10 0 2.45588e-09
66 3 0.001 -0.00731368 0 -0.00170907 -1.05697e-10 0 1.01028e-09 0 2.45588e-09
69 3 0.001 -0.00531411 0 -0.00182232 1.41945e-09 0 2.3751e-08 0 2.45589e-09
67 3 0.001 -0.00664715 0 -0.00174672 3.82562e-11 0 5.19248e-09 0 2.45588e-09
68 3 0.001 -0.00598063 0 -0.00178447 -7.36548e-10 0 -1.65877e-08 0 2.45588e-09
70 3 0.001 -0.0046476 0 -0.00186026 -1.00469e-09 0 -1.41188e-08 0 2.45589e-09
71 3 0.001 -0.0039811 0 -0.0018983 -7.53317e-11 0 -4.46887e-09 0 2.45589e-09
72 3 0.001 -0.0033146 0 -0.00193642 4.46656e-10 0 7.09101e-09 0 2.45589e-09
73 3 0.001 -0.0026481 0 -0.00197462 1.94914e-10 0 5.79634e-09 0 2.4559e-09
74 3 0.001 -0.00198161 0 -0.00201291 -1.06104e-09 0 -1.74927e-08 0 2.4559e-09
75 3 0.001 -0.00131512 0 -0.00205127 1.27572e-09 0 2.47102e-08 0 2.4559e-09
76 3 0.001 -0.000648639 0 -0.0020897 -9.2695e-10 0 -2.19166e-08 0 2.4559e-09
77 3 0.001 1.78397e-05 0 -0.00212821 3.72607e-10 0 -5.28927e-11 0 2.4559e-09
78 3 0.001 0.000684315 0 -0.00216678 1.12333e-09 0 2.59802e-08 0 2.4559e-09
79 3 0.001 0.00135079 0 -0.00220541 -2.05974e-09 0 -2.8767e-08 0 2.4559e-09
80 3 0.001 0.00201725 0 -0.00224411 9.84426e-10 0 1.59529e-08 0 2.4559e-09
81 3 0.001 0.00268372 0 -0.00228287 -6.65175e-11 0 -6.08366e-09 0 2.45591e-09
82 3 0.001 0.00335018 0 -0.00232168 -2.0086e-10 0 -5.55182e-09 0 2.45591e-09
1 1 0.001 -0.05 0 0 -0.00340971 0 0.00699097 0 1.14427e-32
3 3 0.001 -0.0493333 0 0 0.00871914 0 -0.00731045 0 3.30075e-09
4 3 0.001 -0.0486652 0 -3.24007e-06 9.78716e-11 0 1.94813e-08 0 4.52527e-09
5 3 0.001 -0.0479976 0 -8.02952e-06 -1.34957e-11 0 -1.61209e-08 0 2.44932e-09
6 3 0.001 -0.04733 0 -1.43059e-05 -1.89624e-10 0 3.24744e-10 0 2.44987e-09
7 3 0.001 -0.0466625 0 -2.20066e-05 5.27586e-11 0 1.02188e-08 0 2.45036e-09
8 3 0.001 -0.045995 0 -3.10717e-05 2.08642e-10 0 -8.69749e-09 0 2.45082e-09
9 3 0.001 -0.0453274 0 -4.14436e-05 -7.29751e-11 0 -5.71467e-10 0 2.45124e-09
10 3 0.001 -0.04466 0 -5.30675e-05 -1.10232e-10 0 7.15156e-09 0 2.45162e-09
11 3 0.001 -0.0439925 0 -6.58905e-05 -1.554e-10 0 -6.182e-09 0 2.45198e-09
12 3 0.001 -0.0433251 0 -7.98622e-05 6.49999e-11 0 2.90665e-09 0 2.4523e-09
13 3 0.001 -0.0426576 0 -9.49342e-05 2.51599e-10 0 2.94991e-10 0 2.4526e-09
14 3 0.001 -0.0419902 0 -0.00011106 5.37189e-11 0 -2.48072e-10 0 2.45287e-09
15 3 0.001 -0.0413229 0 -0.000128196 -3.4324e-10 0 -6.7802e-09 0 2.45312e-09
16 3 0.001 -0.0406555 0 -0.000146298 3.64605e-10 0 9.87682e-09 0 2.45335e-09
17 3 0.001 -0.0399882 0 -0.000165327 -1.93052e-11 0 -2.49033e-09 0 2.45356e-09
18 3 0.001 -0.0393209 0 -0.000185243 -2.93105e-10 0 -1.07907e-10 0 2.45376e-09
19 3 0.001 -0.0386536 0 -0.000206009 -2.28945e-10 0 -5.30148e-09 0 2.45393e-09
20 3 0.001 -0.0379864 0 -0.000227589 1.8124e-10 0 -9.0257e-10 0 2.4541e-09
21 3 0.001 -0.0373192 0 -0.000249949 6.98969e-10 0 1.72278e-08 0 2.45425e-09
22 3 0.001 -0.036652 0 -0.000273056 -9.14129e-10 0 -2.73263e-08 0 2.45438e-09
23 3 0.001 -0.0359848 0 -0.000296879 9.75789e-10 0 3.18927e-08 0 2.45451e-09
24 3 0.001 -0.0353177 0 -0.000321386 -1.01006e-09 0 -2.42152e-08 0 2.45463e-09
25 3 0.001 -0.0346506 0 -0.000346551 3.22215e-10 0 2.87458e-09 0 2.45473e-09
26 3 0.001 -0.0339835 0 -0.000372344 2.35565e-10 0 6.91796e-09 0 2.45483e-09
27 3 0.001 -0.0333164 0 -0.00039874 -8.61616e-11 0 1.71793e-10 0 2.45492e-09
28 3 0.001 -0.0326494 0 -0.000425712 -2.79051e-12 0 -2.44491e-09 0 2.455e-09
29 3 0.001 -0.0319824 0 -0.000453237 -3.5905e-10 0 -5.8081e-09 0 2.45508e-09
30 3 0.001 -0.0313154 0 -0.000481292 3.9137e-10 0 8.39288e-09 0 2.45514e-09
31 3 0.001 -0.0306484 0 -0.000509854 8.85631e-11 0 -3.85629e-10 0 2.45521e-09
32 3 0.001 -0.0299814 0 -0.000538902 -4.48909e-10 0 -6.85065e-09 0 2.45527e-09
33 3 0.001 -0.0293145 0 -0.000568414 4.1975e-10 0 8.05729e-09 0 2.45532e-09
34 3 0.001 -0.0286476 0 -0.000598373 1.34369e-11 0 -4.59017e-09 0 2.45537e-09
35 3 0.001 -0.0279807 0 -0.000628759 -3.93299e-12 0 1.89738e-09 0 2.45541e-09
36 3 0.001 -0.0273138 0 -0.000659553 -5.63876e-10 0 -6.43125e-09 0 2.45545e-09
37 3 0.001 -0.0266469 0 -0.000690739 1.93949e-10 0 6.22322e-09 0 2.45549e-09
38 3 0.001 -0.0259801 0 -0.000722301 9.38769e-10 0 1.41709e-08 0 2.45553e-09
39 3 0.001 -0.0253133 0 -0.000754222 -1.09704e-09 0 -2.77112e-08 0 2.45556e-09
