ITEM: TIMESTEP
8200000
ITEM: NUMBER OF ATOMS
151
ITEM: BOX BOUNDS ff ff ff
-1.0000000000000000e-02 1.0000000000000000e-02
-6.0000000000000001e-03 6.0000000000000001e-03
-5.2499999999999998e-02 5.2499999999999998e-02
ITEM: ATOMS id type radius x y z fx fy fz c_bendingE c_stretchingE
3 3 0.001 0.000445203 0.000323673 -0.0471905 5.6529e-12 -2.98514e-12 -5.15659e-12 0 1.04245e-08
1 1 0.001 0 0 -0.0475 -0.00749145 -0.00272321 -0.0178281 0 5.19148e-09
4 3 0.001 0.000889733 0.000646319 -0.0468789 -7.63057e-12 1.66733e-11 -7.22721e-12 0 1.49249e-08
5 3 0.001 0.00133244 0.000966568 -0.0465637 2.28173e-11 -2.12911e-11 -1.10032e-11 0 1.98296e-08
6 3 0.001 0.00177304 0.00128369 -0.0462426 7.47389e-13 1.53637e-11 -2.00914e-11 0 2.0497e-08
7 3 0.001 0.00221079 0.00159662 -0.0459135 -1.3676e-11 3.20024e-11 -1.51162e-11 0 2.09907e-08
8 3 0.001 0.00264489 0.00190427 -0.0455749 4.47872e-11 -3.35693e-11 -3.10271e-11 0 2.15811e-08
9 3 0.001 0.00307444 0.0022055 -0.045225 -5.63376e-13 2.16568e-11 -2.1859e-11 0 2.22598e-08
10 3 0.001 0.00349851 0.00249914 -0.0448622 -5.31425e-12 2.60295e-11 -2.23662e-11 0 2.30158e-08
11 3 0.001 0.00391606 0.00278401 -0.0444852 4.39353e-11 -1.70955e-11 -4.47256e-11 0 2.38357e-08
12 3 0.001 0.004326 0.00305888 -0.0440929 -1.13962e-11 3.75096e-11 -2.52431e-11 0 2.4704e-08
13 3 0.001 0.00472716 0.00332252 -0.0436842 3.55203e-11 -1.14214e-11 -3.87729e-11 0 2.56022e-08
14 3 0.001 0.00511832 0.0035737 -0.0432584 1.44407e-11 1.59432e-11 -3.62169e-11 0 2.65098e-08
15 3 0.001 0.00549821 0.00381119 -0.042815 1.34318e-11 1.626e-11 -3.77934e-11 0 2.74047e-08
16 3 0.001 0.00586552 0.0040338 -0.0423536 1.38411e-11 1.87276e-11 -3.67339e-11 0 2.82631e-08
17 3 0.001 0.00621895 0.00424036 -0.0418744 2.52747e-11 -1.90894e-12 -3.84715e-11 0 2.90611e-08
18 3 0.001 0.0065572 0.00442981 -0.0413776 -5.16321e-12 4.87055e-11 -3.60526e-11 0 2.97751e-08
19 3 0.001 0.00687904 0.00460116 -0.0408636 8.32514e-11 -7.14076e-11 -5.09878e-11 0 3.0383e-08
20 3 0.001 0.00718326 0.00475353 -0.0403332 -9.04309e-11 1.36144e-10 -1.36182e-11 0 3.08653e-08
21 3 0.001 0.00746879 0.00488617 -0.0397873 1.1831e-10 -1.09557e-10 -6.24548e-11 0 3.12062e-08
22 3 0.001 0.00773467 0.00499849 -0.0392272 -7.61807e-11 1.15989e-10 -1.49489e-11 0 3.13941e-08
23 3 0.001 0.00798007 0.00509005 -0.0386541 8.12744e-11 -6.589e-11 -5.17556e-11 0 3.13881e-08
24 3 0.001 0.00820435 0.0051606 -0.0380695 -4.09834e-11 6.51539e-11 -2.22039e-11 0 3.11744e-08
25 3 0.001 0.00840705 0.00521002 -0.0374749 5.34751e-11 -4.03505e-11 -4.7286e-11 0 3.08251e-08
26 3 0.001 0.00858791 0.0052383 -0.0368719 -7.1291e-11 9.37781e-11 -1.64099e-11 0 3.04303e-08
27 3 0.001 0.00874687 0.00524546 -0.0362622 8.14041e-11 -7.24058e-11 -5.16275e-11 0 3.00543e-08
28 3 0.001 0.00888406 0.00523155 -0.0356473 -4.6135e-11 6.43162e-11 -2.05144e-11 0 2.97203e-08
29 3 0.001 0.00899982 0.00519663 -0.0350288 5.34178e-12 -8.59918e-13 -3.47328e-11 0 2.94081e-08
30 3 0.001 0.00909467 0.00514076 -0.0344082 -8.66825e-12 2.60398e-11 -3.19255e-11 0 2.90247e-08
31 3 0.001 0.00916932 0.00506407 -0.0337871 -4.94936e-12 5.96405e-12 -3.50694e-11 0 2.84821e-08
32 3 0.001 0.0092246 0.00496676 -0.0331669 -9.45519e-12 2.74572e-11 -3.08872e-11 0 2.78145e-08
33 3 0.001 0.00926141 0.00484913 -0.0325487 7.25596e-13 1.12739e-11 -3.27081e-11 0 2.71311e-08
34 3 0.001 0.00928066 0.00471166 -0.0319338 -5.0274e-11 4.06246e-11 -2.74311e-11 0 2.65135e-08
36 3 0.001 0.00926979 0.00437956 -0.0307178 -8.2914e-11 7.50888e-11 -2.04169e-11 0 2.55613e-08
37 3 0.001 0.00924111 0.00418644 -0.0301184 1.99795e-11 6.76284e-12 -3.86371e-11 0 2.52026e-08
35 3 0.001 0.00928319 0.0045549 -0.0313232 6.34118e-11 -1.80379e-11 -4.36296e-11 0 2.59903e-08
38 3 0.001 0.00919775 0.00397643 -0.0295255 1.99966e-11 2.37507e-12 -4.13693e-11 0 2.4875e-08
39 3 0.001 0.00914022 0.0037505 -0.0289397 -3.5742e-11 6.76788e-11 -2.28561e-11 0 2.45319e-08
42 3 0.001 0.00888748 0.00298816 -0.0272278 6.45123e-11 6.27497e-12 -4.01888e-11 0 2.31723e-08
40 3 0.001 0.009069 0.00350973 -0.0283614 2.65788e-11 4.37198e-12 -4.45007e-11 0 2.41319e-08
41 3 0.001 0.00898458 0.00325523 -0.0277907 -1.32397e-11 4.67721e-11 -3.29639e-11 0 2.36668e-08
43 3 0.001 0.0087783 0.00270974 -0.0266727 -2.93531e-11 7.36579e-11 -2.89464e-11 0 2.26799e-08
44 3 0.001 0.0086577 0.0024212 -0.0261251 7.21962e-11 -7.89443e-12 -5.31953e-11 0 2.22003e-08
45 3 0.001 0.00852636 0.00212378 -0.0255847 2.91062e-11 6.86907e-11 -2.58627e-11 0 2.17433e-08
47 3 0.001 0.00823449 0.00150731 -0.0245237 3.68968e-11 7.65335e-11 -2.5477e-11 0 2.09315e-08
46 3 0.001 0.00838503 0.00181873 -0.0250511 8.84862e-11 -1.37249e-11 -6.02763e-11 0 2.13177e-08
50 3 0.001 0.00773574 0.000547042 -0.0229716 8.74826e-11 4.63217e-11 -4.45951e-11 0 2.00716e-08
49 3 0.001 0.007909 0.000870246 -0.0234848 1.25819e-10 3.28752e-12 -5.24347e-11 0 2.03032e-08
48 3 0.001 0.00807553 0.00119074 -0.0240019 8.89744e-11 2.91866e-11 -4.25713e-11 0 2.05914e-08
52 3 0.001 0.00737258 -0.000102758 -0.0219531 1.49138e-10 -8.27731e-12 -6.7342e-11 0 1.97921e-08
53 3 0.001 0.00718452 -0.000427039 -0.0214458 1.44276e-10 6.7085e-11 -2.5316e-11 0 1.97478e-08
51 3 0.001 0.00755663 0.000222317 -0.0224614 1.41184e-10 4.75776e-11 -2.91103e-11 0 1.99004e-08
55 3 0.001 0.00680005 -0.00106877 -0.02043 1.87305e-10 2.24892e-11 -5.06243e-11 0 1.98506e-08
56 3 0.001 0.00660545 -0.00138394 -0.0199194 2.22925e-10 3.23184e-11 -3.53323e-11 0 1.99975e-08
54 3 0.001 0.00699338 -0.000749417 -0.0209384 2.01092e-10 4.42715e-12 -5.08913e-11 0 1.97672e-08
58 3 0.001 0.00621621 -0.0019972 -0.018888 2.32165e-10 2.66645e-11 -4.52214e-11 0 2.04727e-08
59 3 0.001 0.00602354 -0.00229304 -0.0183654 3.1561e-10 1.50691e-12 -3.42668e-11 0 2.07934e-08
57 3 0.001 0.00641051 -0.00169379 -0.0194057 2.25497e-10 1.72717e-11 -4.92706e-11 0 2.0206e-08
62 3 0.001 0.00546526 -0.00312426 -0.0167603 3.28014e-10 -4.85942e-12 -4.5697e-11 0 2.202e-08
61 3 0.001 0.00564705 -0.00285766 -0.0173022 3.15869e-10 1.72629e-11 -3.57209e-11 0 2.15739e-08
60 3 0.001 0.00583348 -0.00258023 -0.017837 2.42992e-10 2.99497e-11 -4.97662e-11 0 2.11626e-08
64 3 0.001 0.00511967 -0.00362076 -0.0156538 3.68361e-10 4.16501e-12 -3.61524e-11 0 2.29815e-08
65 3 0.001 0.00495788 -0.00384863 -0.0150885 3.3009e-10 2.02413e-11 -4.35857e-11 0 2.34771e-08
63 3 0.001 0.00528913 -0.00337897 -0.016211 3.33055e-10 2.06153e-11 -3.60026e-11 0 2.24924e-08
66 3 0.001 0.00480474 -0.00406163 -0.0145152 4.27452e-10 -1.27127e-11 -3.18229e-11 0 2.39683e-08
67 3 0.001 0.00466122 -0.00425886 -0.0139337 3.91755e-10 6.4603e-12 -3.57153e-11 0 2.44438e-08
69 3 0.001 0.00440664 -0.00460277 -0.0127478 4.52899e-10 -2.13836e-11 -3.51064e-11 0 2.53022e-08
70 3 0.001 0.00429726 -0.00474803 -0.0121442 4.27763e-10 8.00666e-12 -3.45399e-11 0 2.56634e-08
68 3 0.001 0.00452823 -0.00443949 -0.0133445 3.90933e-10 1.83791e-11 -3.50722e-11 0 2.48921e-08
71 3 0.001 0.00420085 -0.00487473 -0.0115342 4.4623e-10 4.59634e-12 -3.21466e-11 0 2.59661e-08
72 3 0.001 0.00411807 -0.00498242 -0.0109186 4.76385e-10 -2.04848e-11 -3.22808e-11 0 2.62023e-08
73 3 0.001 0.00404949 -0.00507077 -0.0102982 4.54311e-10 1.3977e-11 -3.06889e-11 0 2.63438e-08
74 3 0.001 0.00399561 -0.0051396 -0.00967394 4.79212e-10 -1.99206e-11 -3.3549e-11 0 2.63709e-08
75 3 0.001 0.0039568 -0.00518881 -0.00904667 4.91851e-10 -6.68067e-12 -3.30733e-11 0 2.63219e-08
76 3 0.001 0.00393334 -0.00521839 -0.00841742 4.76828e-10 -6.99623e-12 -3.19312e-11 0 2.62606e-08
77 3 0.001 0.00392539 -0.00522835 -0.00778715 5.10794e-10 -1.34918e-11 -3.16257e-11 0 2.62348e-08
78 3 0.001 0.00393302 -0.00521868 -0.00715688 4.93884e-10 -1.43308e-11 -3.2404e-11 0 2.62616e-08
79 3 0.001 0.00395616 -0.00518939 -0.0065276 4.80963e-10 -1.18048e-11 -3.12766e-11 0 2.63244e-08
80 3 0.001 0.00399465 -0.00514047 -0.0059003 5.13393e-10 -2.05293e-11 -3.3876e-11 0 2.63757e-08
81 3 0.001 0.00404823 -0.00507194 -0.00527595 4.85831e-10 -9.18255e-12 -3.29311e-11 0 2.63519e-08
82 3 0.001 0.0041165 -0.00498387 -0.00465549 5.17491e-10 -4.06693e-11 -3.18324e-11 0 2.62135e-08
83 3 0.001 0.004199 -0.00487646 -0.00403981 4.81188e-10 -2.00084e-11 -3.08967e-11 0 2.59798e-08
84 3 0.001 0.00429515 -0.00475003 -0.00342973 4.63626e-10 9.06625e-13 -3.43391e-11 0 2.56793e-08
85 3 0.001 0.00440427 -0.00460502 -0.00282599 5.16168e-10 -6.02637e-11 -3.09506e-11 0 2.53201e-08
86 3 0.001 0.00452562 -0.00444198 -0.00222919 4.62301e-10 -2.16094e-11 -3.1112e-11 0 2.49118e-08
87 3 0.001 0.0046584 -0.00426158 -0.00163984 4.37378e-10 -1.22017e-11 -3.0297e-11 0 2.44648e-08
88 3 0.001 0.00480172 -0.00406457 -0.00105831 4.85434e-10 -4.70267e-11 -3.28985e-11 0 2.39905e-08
89 3 0.001 0.00495468 -0.00385176 -0.000484818 4.38358e-10 -3.51999e-11 -2.74904e-11 0 2.35001e-08
90 3 0.001 0.00511632 -0.00362407 8.05506e-05 4.25867e-10 -3.23776e-11 -2.75092e-11 0 2.3005e-08
91 3 0.001 0.00528565 -0.00338244 0.000637857 4.09335e-10 -2.53822e-11 -2.82348e-11 0 2.25162e-08
92 3 0.001 0.00546167 -0.00312787 0.00118731 4.00033e-10 -3.32372e-11 -2.6124e-11 0 2.2044e-08
93 3 0.001 0.00564337 -0.00286139 0.00172924 4.21863e-10 -5.20254e-11 -2.8478e-11 0 2.15977e-08
94 3 0.001 0.00582974 -0.00258407 0.00226413 3.44083e-10 -2.15917e-11 -2.12388e-11 0 2.11861e-08
95 3 0.001 0.00601976 -0.00229696 0.00279258 3.52983e-10 -3.14587e-11 -2.39539e-11 0 2.08165e-08
96 3 0.001 0.00621242 -0.00200118 0.00331527 3.5735e-10 -4.37239e-11 -2.3045e-11 0 2.04954e-08
97 3 0.001 0.00640672 -0.00169782 0.00383301 3.10436e-10 -1.66051e-11 -2.61904e-11 0 2.02282e-08
98 3 0.001 0.00660168 -0.001388 0.00434668 2.96287e-10 -4.73431e-11 -6.6251e-12 0 2.00191e-08
99 3 0.001 0.00679633 -0.00107284 0.00485723 3.09401e-10 -1.49057e-11 -3.8656e-11 0 1.98717e-08
100 3 0.001 0.00698972 -0.000753487 0.00536565 2.4179e-10 -4.58417e-11 6.30327e-13 0 1.97879e-08
101 3 0.001 0.00718095 -0.000431085 0.00587297 2.5885e-10 -8.10446e-12 -3.50411e-11 0 1.97681e-08
102 3 0.001 0.00736911 -0.000106766 0.00638021 2.15487e-10 -2.797e-11 -1.07497e-11 0 1.98122e-08
103 3 0.001 0.00755328 0.000218363 0.00688839 2.30667e-10 -4.10691e-11 -1.25875e-11 0 1.99204e-08
104 3 0.001 0.00773253 0.000543159 0.00739853 1.69902e-10 6.70459e-12 -2.80578e-11 0 2.00917e-08
105 3 0.001 0.00790595 0.00086645 0.00791162 1.71985e-10 -3.2129e-11 -1.08455e-11 0 2.03235e-08
106 3 0.001 0.00807265 0.00118704 0.00842859 1.71395e-10 -3.49702e-11 -1.28167e-11 0 2.06121e-08
107 3 0.001 0.0082318 0.00150373 0.0089503 1.1451e-10 1.9313e-11 -3.11577e-11 0 2.09528e-08
108 3 0.001 0.00838254 0.00181529 0.00947754 1.27727e-10 -4.07406e-11 -4.2049e-12 0 2.13399e-08
109 3 0.001 0.00852409 0.00212048 0.010011 9.98178e-11 -1.17451e-12 -2.4547e-11 0 2.17666e-08
110 3 0.001 0.00865566 0.00241805 0.0105512 7.18395e-11 -1.60996e-12 -2.04157e-11 0 2.2225e-08
111 3 0.001 0.0087765 0.00270677 0.0110987 8.32394e-11 -2.49705e-11 -1.64051e-11 0 2.27062e-08
112 3 0.001 0.00888593 0.00298537 0.0116537 4.0769e-11 7.82687e-12 -2.5198e-11 0 2.32003e-08
113 3 0.001 0.00898329 0.00325263 0.0122164 5.99266e-11 -1.95055e-11 -1.7167e-11 0 2.36969e-08
114 3 0.001 0.00906798 0.00350734 0.012787 1.51631e-11 4.74862e-12 -2.37976e-11 0 2.41645e-08
115 3 0.001 0.00913947 0.00374833 0.0133652 -3.30082e-12 1.40604e-11 -2.81533e-11 0 2.45673e-08
116 3 0.001 0.00919728 0.00397447 0.0139509 4.82631e-11 -3.65482e-11 -1.57525e-11 0 2.49125e-08
117 3 0.001 0.00924092 0.0041847 0.0145436 -5.14378e-11 4.04857e-11 -3.61855e-11 0 2.52414e-08
118 3 0.001 0.00926987 0.00437805 0.015143 3.95641e-11 -3.93766e-11 -1.58888e-11 0 2.56008e-08
119 3 0.001 0.00928357 0.00455362 0.0157483 -7.09202e-11 4.09799e-11 -3.71269e-11 0 2.60305e-08
120 3 0.001 0.00928132 0.0047106 0.0163588 -2.72922e-12 -1.02036e-11 -2.53149e-11 0 2.65545e-08
121 3 0.001 0.00926237 0.00484831 0.0169737 -1.20349e-11 -1.74801e-11 -2.36968e-11 0 2.71737e-08
122 3 0.001 0.00922585 0.00496616 0.0175918 -8.59004e-11 4.9839e-11 -4.17169e-11 0 2.78601e-08
123 3 0.001 0.00917086 0.00506369 0.0182121 -4.17935e-12 -2.91901e-11 -2.17723e-11 0 2.85324e-08
124 3 0.001 0.0090965 0.00514059 0.0188332 -7.21938e-11 2.98338e-11 -3.82529e-11 0 2.9081e-08
125 3 0.001 0.00900194 0.00519666 0.0194537 -3.17389e-11 -1.77389e-12 -2.97328e-11 0 2.94698e-08
126 3 0.001 0.00888644 0.00523177 0.0200723 -6.8339e-11 1.26878e-11 -3.69283e-11 0 2.97861e-08
127 3 0.001 0.0087495 0.00524586 0.0206872 -5.03968e-11 1.69669e-11 -3.29643e-11 0 3.0124e-08
129 3 0.001 0.00841011 0.00521076 0.0219001 -9.16892e-11 4.95076e-11 -4.37884e-11 0 3.09039e-08
128 3 0.001 0.00859077 0.00523888 0.0212971 -4.79018e-11 -2.81735e-12 -3.2736e-11 0 3.05042e-08
130 3 0.001 0.00820758 0.00516148 0.0224948 -1.65334e-11 -2.06649e-11 -2.46555e-11 0 3.12586e-08
131 3 0.001 0.00798343 0.00509106 0.0230794 -8.2285e-11 3.2731e-11 -4.35114e-11 0 3.14779e-08
132 3 0.001 0.00773813 0.00499961 0.0236526 -5.4299e-11 2.75284e-11 -3.11318e-11 0 3.14886e-08
135 3 0.001 0.00688256 0.0046025 0.025289 -8.00725e-12 -1.02481e-11 -1.70215e-11 0 3.04834e-08
133 3 0.001 0.00747231 0.00488738 0.0242127 -3.70203e-11 -6.01374e-12 -2.95033e-11 0 3.13037e-08
134 3 0.001 0.0071868 0.00475482 0.0247586 -9.49299e-11 5.93974e-11 -4.58161e-11 0 3.09648e-08
136 3 0.001 0.00656068 0.00443119 0.025803 -7.7565e-11 3.83923e-11 -4.31253e-11 0 2.98753e-08
137 3 0.001 0.00622234 0.00424174 0.0262998 -3.20513e-11 1.54687e-11 -2.01851e-11 0 2.91602e-08
138 3 0.001 0.00586879 0.00403517 0.0267789 -5.85624e-11 3.95014e-11 -2.90921e-11 0 2.83603e-08
140 3 0.001 0.00512128 0.003575 0.0276833 -6.62646e-11 6.75753e-11 -2.34149e-11 0 2.6601e-08
141 3 0.001 0.00472994 0.00332376 0.0281089 -1.8537e-11 -4.97975e-12 -2.20151e-11 0 2.56897e-08
139 3 0.001 0.00550134 0.00381254 0.0272401 -2.56624e-11 -8.38916e-12 -2.72855e-11 0 2.74991e-08
144 3 0.001 0.00350061 0.00250011 0.029286 3.91424e-11 -6.38219e-11 -3.59316e-12 0 2.30916e-08
145 3 0.001 0.0030763 0.00220636 0.0296484 -5.69296e-11 5.78521e-11 -1.94216e-11 0 2.23319e-08
143 3 0.001 0.0039184 0.00278508 0.0289094 -8.92635e-11 8.85339e-11 -3.03087e-11 0 2.39154e-08
142 3 0.001 0.00432857 0.00306004 0.0285173 -1.33653e-11 1.14403e-12 -1.10607e-11 0 2.47876e-08
148 3 0.001 0.00177411 0.0012842 0.0306646 -3.21513e-11 3.20809e-11 -1.01252e-11 0 2.05606e-08
149 3 0.001 0.00133325 0.000966953 0.0309853 1.38481e-11 -2.01042e-11 1.25904e-13 0 1.98908e-08
150 3 0.001 0.000890274 0.000646577 0.0313 -3.9115e-11 4.08768e-11 -1.37972e-11 0 1.49767e-08
147 3 0.001 0.00221213 0.00159725 0.0303361 6.42434e-12 -1.96332e-11 -7.32761e-12 0 2.10566e-08
146 3 0.001 0.00264649 0.00190502 0.0299979 -3.11735e-11 3.13967e-11 -1.01301e-11 0 2.165e-08
151 3 0.001 0.000445474 0.000323802 0.031611 1.93684e-11 -1.99571e-11 7.53846e-12 0 1.04679e-08
2 2 0.001 0 0 0.03192 -0.00751211 -0.00273537 0.0178569 0 5.21316e-09
