ITEM: TIMESTEP
1100000
ITEM: NUMBER OF ATOMS
151
ITEM: BOX BOUNDS ff ff ff
-1.0000000000000000e-02 1.0000000000000000e-02
-6.0000000000000001e-03 6.0000000000000001e-03
-5.2499999999999998e-02 5.2499999999999998e-02
ITEM: ATOMS id type radius x y z fx fy fz c_bendingE c_stretchingE
1 1 0.001 0 0 -0.0475 1.84548e-05 0 -0.00134446 0 3.3603e-10
3 3 0.001 0.000183859 0 -0.0468934 1.95255e-07 0 1.46367e-06 0 6.72379e-10
4 3 0.001 0.000367563 0 -0.0462869 2.82885e-07 0 1.28087e-06 0 3.84643e-10
5 3 0.001 0.000550924 0 -0.0456808 3.03588e-07 0 8.34643e-07 0 1.15639e-10
6 3 0.001 0.000734043 0 -0.0450748 5.30578e-07 0 1.33857e-06 0 1.34561e-10
7 3 0.001 0.000916853 0 -0.0444686 -2.2122e-08 0 -1.01032e-07 0 1.3447e-10
8 3 0.001 0.00109928 0 -0.0438623 -3.077e-07 0 -3.59703e-07 0 1.34586e-10
9 3 0.001 0.00128124 0 -0.0432559 -7.28233e-07 0 -1.80191e-06 0 1.34906e-10
10 3 0.001 0.00146266 0 -0.0426494 2.67954e-07 0 1.03043e-06 0 1.35079e-10
11 3 0.001 0.00164346 0 -0.0420426 -5.65299e-07 0 -2.15396e-06 0 1.35293e-10
12 3 0.001 0.00182357 0 -0.0414356 -1.87417e-07 0 -7.00473e-07 0 1.35706e-10
13 3 0.001 0.00200291 0 -0.0408284 5.30933e-07 0 2.45614e-06 0 1.3563e-10
14 3 0.001 0.00218141 0 -0.040221 -1.19245e-07 0 6.36945e-07 0 1.35425e-10
15 3 0.001 0.00235898 0 -0.0396133 2.25726e-07 0 1.32167e-06 0 1.35355e-10
16 3 0.001 0.00253556 0 -0.0390053 2.34737e-07 0 8.98097e-07 0 1.35257e-10
17 3 0.001 0.00271107 0 -0.038397 -4.75548e-08 0 -4.50314e-07 0 1.35356e-10
18 3 0.001 0.00288542 0 -0.0377883 -5.32868e-07 0 -1.27303e-06 0 1.35707e-10
19 3 0.001 0.00305856 0 -0.0371794 -8.33345e-07 0 -2.05135e-06 0 1.36253e-10
20 3 0.001 0.0032304 0 -0.03657 -3.97245e-07 0 -1.83049e-07 0 1.36693e-10
21 3 0.001 0.00340088 0 -0.0359603 -1.10294e-07 0 -2.36624e-07 0 1.36936e-10
22 3 0.001 0.00356991 0 -0.0353501 6.9664e-07 0 2.40258e-06 0 1.3689e-10
23 3 0.001 0.00373743 0 -0.0347396 5.76204e-07 0 2.35732e-06 0 1.36568e-10
24 3 0.001 0.00390336 0 -0.0341286 -9.34882e-07 0 -2.00437e-06 0 1.36749e-10
25 3 0.001 0.00406763 0 -0.0335171 -9.61853e-07 0 -1.95206e-06 0 1.37422e-10
26 3 0.001 0.00423017 0 -0.0329052 -5.34461e-07 0 -1.37384e-06 0 1.38027e-10
27 3 0.001 0.00439092 0 -0.0322929 -3.98609e-07 0 -1.96972e-06 0 1.38626e-10
28 3 0.001 0.00454979 0 -0.03168 4.24307e-07 0 1.36954e-06 0 1.38922e-10
29 3 0.001 0.00470672 0 -0.0310666 -1.24321e-07 0 5.55171e-07 0 1.38954e-10
30 3 0.001 0.00486165 0 -0.0304528 -3.42376e-07 0 6.29721e-07 0 1.39088e-10
31 3 0.001 0.0050145 0 -0.0298384 -1.28032e-07 0 1.06683e-06 0 1.39173e-10
32 3 0.001 0.00516521 0 -0.0292235 3.51613e-07 0 1.52524e-06 0 1.39151e-10
33 3 0.001 0.0053137 0 -0.028608 5.12487e-07 0 1.87813e-06 0 1.39032e-10
34 3 0.001 0.00545993 0 -0.027992 -6.53841e-07 0 -2.17701e-06 0 1.39328e-10
35 3 0.001 0.00560381 0 -0.0273754 -7.14864e-07 0 -8.88569e-07 0 1.39945e-10
36 3 0.001 0.00574529 0 -0.0267583 -6.34567e-07 0 -9.9217e-07 0 1.40441e-10
37 3 0.001 0.00588431 0 -0.0261407 -3.66541e-07 0 -8.65701e-07 0 1.40929e-10
38 3 0.001 0.0060208 0 -0.0255224 1.17189e-07 0 -2.48727e-07 0 1.41323e-10
39 3 0.001 0.00615469 0 -0.0249036 2.14992e-07 0 1.40312e-06 0 1.41466e-10
40 3 0.001 0.00628594 0 -0.0242843 -4.77584e-08 0 1.44546e-06 0 1.41434e-10
41 3 0.001 0.00641448 0 -0.0236644 -1.40616e-07 0 2.12614e-06 0 1.41333e-10
42 3 0.001 0.00654025 0 -0.0230439 -2.64264e-07 0 2.29277e-07 0 1.41365e-10
43 3 0.001 0.0066632 0 -0.0224228 -2.95229e-07 0 -1.27147e-06 0 1.41758e-10
44 3 0.001 0.00678327 0 -0.0218012 4.86441e-07 0 2.33602e-06 0 1.41912e-10
45 3 0.001 0.0069004 0 -0.021179 -4.85872e-07 0 -1.36658e-06 0 1.42078e-10
46 3 0.001 0.00701455 0 -0.0205562 -6.1824e-08 0 2.12377e-06 0 1.42274e-10
47 3 0.001 0.00712566 0 -0.0199329 2.35183e-08 0 2.66796e-06 0 1.42028e-10
48 3 0.001 0.00723367 0 -0.0193091 -6.08966e-07 0 -2.73811e-06 0 1.42308e-10
49 3 0.001 0.00733855 0 -0.0186847 -3.28136e-07 0 -1.43983e-06 0 1.43029e-10
50 3 0.001 0.00744023 0 -0.0180598 -2.00952e-07 0 1.63122e-07 0 1.43429e-10
51 3 0.001 0.00753868 0 -0.0174344 -7.23185e-07 0 -2.47484e-06 0 1.43943e-10
52 3 0.001 0.00763384 0 -0.0168085 -4.7079e-07 0 -2.47483e-07 0 1.44502e-10
53 3 0.001 0.00772568 0 -0.0161821 2.1378e-07 0 2.56734e-06 0 1.44495e-10
54 3 0.001 0.00781415 0 -0.0155552 -5.48212e-07 0 -3.12767e-06 0 1.44796e-10
55 3 0.001 0.0078992 0 -0.0149278 -9.47136e-08 0 2.04143e-07 0 1.45351e-10
56 3 0.001 0.00798081 0 -0.0143 -1.7174e-07 0 1.15129e-06 0 1.4543e-10
57 3 0.001 0.00805892 0 -0.0136717 -7.41096e-07 0 -2.94693e-06 0 1.45853e-10
58 3 0.001 0.0081335 0 -0.013043 4.37196e-08 0 2.30948e-06 0 1.4614e-10
59 3 0.001 0.00820453 0 -0.0124139 -9.05942e-08 0 1.17934e-06 0 1.45961e-10
60 3 0.001 0.00827195 0 -0.0117844 -3.44283e-07 0 -1.50055e-06 0 1.46193e-10
61 3 0.001 0.00833575 0 -0.0111545 -1.52454e-07 0 1.79821e-06 0 1.4635e-10
62 3 0.001 0.00839588 0 -0.0105242 -4.02125e-07 0 -1.36788e-06 0 1.46484e-10
63 3 0.001 0.00845233 0 -0.00989362 -1.67517e-07 0 1.19859e-06 0 1.46675e-10
64 3 0.001 0.00850506 0 -0.00926271 -1.13341e-07 0 1.42786e-06 0 1.46546e-10
65 3 0.001 0.00855404 0 -0.00863149 -2.07507e-07 0 9.29676e-07 0 1.46438e-10
66 3 0.001 0.00859926 0 -0.008 -3.48509e-07 0 -1.53739e-07 0 1.46495e-10
67 3 0.001 0.00864069 0 -0.00736824 -5.96413e-07 0 -4.12136e-06 0 1.47098e-10
68 3 0.001 0.00867832 0 -0.00673625 -3.00016e-07 0 -7.01558e-07 0 1.47752e-10
69 3 0.001 0.00871211 0 -0.00610404 -4.14705e-07 0 -2.72434e-06 0 1.4824e-10
70 3 0.001 0.00874206 0 -0.00547163 -3.35857e-07 0 -1.46602e-07 0 1.48657e-10
71 3 0.001 0.00876815 0 -0.00483906 -2.68147e-07 0 1.96311e-06 0 1.48544e-10
72 3 0.001 0.00879037 0 -0.00420634 -1.92136e-07 0 1.21849e-06 0 1.48267e-10
73 3 0.001 0.0088087 0 -0.00357349 -1.57838e-07 0 3.90911e-08 0 1.48191e-10
74 3 0.001 0.00882313 0 -0.00294054 -3.05805e-07 0 4.52469e-07 0 1.48188e-10
75 3 0.001 0.00883367 0 -0.00230752 -4.30575e-07 0 9.91465e-08 0 1.48168e-10
76 3 0.001 0.00884029 0 -0.00167444 -5.77431e-07 0 -1.88239e-06 0 1.48394e-10
77 3 0.001 0.00884301 0 -0.00104134 -4.13863e-07 0 -5.25159e-08 0 1.48624e-10
78 3 0.001 0.00884181 0 -0.000408225 -1.0119e-07 0 1.78479e-06 0 1.48435e-10
79 3 0.001 0.00883669 0 0.000224867 -2.00989e-07 0 -1.58385e-07 0 1.48247e-10
80 3 0.001 0.00882766 0 0.000857915 -3.77426e-07 0 -4.81547e-07 0 1.48297e-10
81 3 0.001 0.00881472 0 0.00149089 -7.72177e-07 0 -7.11095e-08 0 1.48324e-10
82 3 0.001 0.00879787 0 0.00212378 -5.36724e-07 0 -1.3317e-06 0 1.48432e-10
83 3 0.001 0.00877713 0 0.00275655 -6.69763e-08 0 -2.15259e-06 0 1.4876e-10
84 3 0.001 0.00875249 0 0.00338919 -3.14524e-08 0 -4.43928e-10 0 1.48932e-10
85 3 0.001 0.00872398 0 0.00402166 -3.98902e-07 0 2.62491e-06 0 1.48561e-10
86 3 0.001 0.0086916 0 0.00465394 -8.67662e-07 0 6.18268e-07 0 1.48107e-10
87 3 0.001 0.00865536 0 0.00528601 -1.11076e-06 0 4.05229e-06 0 1.47479e-10
89 3 0.001 0.00857141 0 0.00654945 5.79051e-08 0 -1.06029e-06 0 1.46899e-10
88 3 0.001 0.00861529 0 0.00591786 -4.6956e-07 0 1.28861e-08 0 1.4691e-10
90 3 0.001 0.00852372 0 0.00718076 -1.10724e-07 0 -1.48376e-06 0 1.47046e-10
91 3 0.001 0.00847226 0 0.00781178 -6.17024e-07 0 -1.21724e-06 0 1.47193e-10
92 3 0.001 0.00841705 0 0.00844248 -1.10446e-06 0 1.29868e-06 0 1.47015e-10
93 3 0.001 0.00835811 0 0.00907285 -4.81079e-07 0 -1.92304e-06 0 1.46904e-10
94 3 0.001 0.00829547 0 0.00970285 -2.5321e-07 0 1.37739e-06 0 1.46783e-10
95 3 0.001 0.00822916 0 0.0103325 9.77275e-08 0 -1.26386e-06 0 1.46587e-10
96 3 0.001 0.0081592 0 0.0109617 -4.73237e-07 0 -2.40488e-06 0 1.46793e-10
97 3 0.001 0.00808564 0 0.0115905 -1.43111e-06 0 2.8813e-06 0 1.46518e-10
98 3 0.001 0.0080085 0 0.0122189 -7.60336e-07 0 -1.24165e-06 0 1.46102e-10
99 3 0.001 0.00792782 0 0.0128469 -2.07813e-07 0 -3.23742e-07 0 1.46044e-10
102 3 0.001 0.00766491 0 0.0147279 -1.15736e-06 0 1.55069e-07 0 1.45261e-10
101 3 0.001 0.00775599 0 0.0141014 -6.42939e-08 0 -2.66094e-06 0 1.45244e-10
100 3 0.001 0.00784363 0 0.0134744 -3.26187e-07 0 3.03135e-06 0 1.45519e-10
103 3 0.001 0.00757046 0 0.015354 -1.59795e-06 0 2.37427e-06 0 1.44701e-10
104 3 0.001 0.00747266 0 0.0159795 -5.18755e-07 0 -2.51519e-07 0 1.44188e-10
106 3 0.001 0.00726723 0 0.0172289 -5.90556e-07 0 2.64491e-06 0 1.43121e-10
107 3 0.001 0.00715969 0 0.0178528 -5.28333e-07 0 -2.71519e-06 0 1.42847e-10
105 3 0.001 0.00737157 0 0.0166045 -2.29825e-07 0 1.27286e-06 0 1.43813e-10
108 3 0.001 0.007049 0 0.0184762 -1.02759e-06 0 -2.27766e-06 0 1.43086e-10
109 3 0.001 0.00693521 0 0.019099 -1.11477e-06 0 1.1727e-06 0 1.42894e-10
110 3 0.001 0.00681837 0 0.0197213 3.85973e-07 0 -2.50064e-06 0 1.42749e-10
111 3 0.001 0.00669853 0 0.0203429 -6.62094e-08 0 1.18449e-06 0 1.42622e-10
113 3 0.001 0.00645008 0 0.0215845 -9.77211e-07 0 -2.2589e-06 0 1.42203e-10
112 3 0.001 0.00657575 0 0.020964 -6.33183e-07 0 -3.28159e-07 0 1.4224e-10
114 3 0.001 0.00632159 0 0.0222045 -9.68182e-07 0 -1.61291e-06 0 1.42292e-10
115 3 0.001 0.00619032 0 0.0228238 -1.35495e-08 0 -1.5706e-06 0 1.42328e-10
116 3 0.001 0.00605634 0 0.0234426 2.37829e-07 0 6.95855e-08 0 1.42213e-10
119 3 0.001 0.00563874 0 0.0252955 -1.66639e-06 0 7.69368e-07 0 1.40794e-10
117 3 0.001 0.00591971 0 0.0240608 -4.19551e-07 0 8.35875e-07 0 1.41834e-10
118 3 0.001 0.00578049 0 0.0246784 -1.35827e-06 0 9.64648e-07 0 1.41325e-10
120 3 0.001 0.00549453 0 0.025912 -1.17757e-06 0 1.96962e-06 0 1.40165e-10
121 3 0.001 0.00534792 0 0.0265279 6.31148e-07 0 -2.03412e-06 0 1.39887e-10
122 3 0.001 0.00519897 0 0.0271432 4.01761e-07 0 -1.62621e-06 0 1.40028e-10
123 3 0.001 0.00504776 0 0.027758 -5.61829e-07 0 -1.12194e-06 0 1.40047e-10
125 3 0.001 0.0047388 0 0.028986 -8.16579e-07 0 -6.89926e-07 0 1.39771e-10
124 3 0.001 0.00489434 0 0.0283723 -1.25255e-06 0 -7.33206e-07 0 1.39933e-10
126 3 0.001 0.00458119 0 0.0295992 3.28956e-07 0 -1.48531e-06 0 1.39733e-10
128 3 0.001 0.00426006 0 0.030824 -7.26121e-07 0 1.38563e-06 0 1.38833e-10
127 3 0.001 0.00442159 0 0.0302118 -1.82362e-07 0 1.9583e-06 0 1.39443e-10
130 3 0.001 0.00393153 0 0.0320469 -1.75017e-06 0 1.86911e-06 0 1.37485e-10
131 3 0.001 0.00376467 0 0.0326576 3.28212e-07 0 -2.52698e-06 0 1.37294e-10
129 3 0.001 0.00409669 0 0.0314357 -1.7801e-06 0 1.87543e-06 0 1.38194e-10
132 3 0.001 0.00359617 0 0.0332679 9.86545e-07 0 -2.47511e-06 0 1.37634e-10
133 3 0.001 0.00342612 0 0.0338778 -1.63616e-08 0 2.73386e-07 0 1.37684e-10
135 3 0.001 0.00308163 0 0.0350962 -1.80807e-06 0 1.91235e-06 0 1.36934e-10
134 3 0.001 0.00325458 0 0.0344872 -8.97239e-07 0 1.92933e-07 0 1.37415e-10
136 3 0.001 0.00290734 0 0.0357049 -9.78351e-07 0 1.14037e-06 0 1.36364e-10
138 3 0.001 0.00255508 0 0.0369212 6.85932e-07 0 -8.06225e-07 0 1.35928e-10
137 3 0.001 0.0027318 0 0.0363132 1.36018e-07 0 3.62629e-07 0 1.36017e-10
139 3 0.001 0.00237725 0 0.0375288 -1.97409e-08 0 -1.24044e-06 0 1.36007e-10
140 3 0.001 0.00219839 0 0.0381361 -9.43901e-07 0 -6.7851e-07 0 1.36034e-10
141 3 0.001 0.00201858 0 0.0387432 -1.07946e-07 0 -2.58507e-06 0 1.36205e-10
142 3 0.001 0.0018379 0 0.03935 -1.961e-07 0 6.0574e-07 0 1.36279e-10
143 3 0.001 0.00165643 0 0.0399565 3.2975e-09 0 2.1726e-06 0 1.35883e-10
144 3 0.001 0.00147424 0 0.0405629 4.30577e-07 0 -1.02583e-06 0 1.35683e-10
145 3 0.001 0.00129142 0 0.041169 -1.23631e-06 0 1.75384e-06 0 1.355e-10
146 3 0.001 0.00110804 0 0.041775 -1.03865e-06 0 2.38702e-07 0 1.35154e-10
148 3 0.001 0.000739917 0 0.0429866 1.02017e-06 0 -1.35202e-06 0 1.35146e-10
147 3 0.001 0.000924176 0 0.0423808 -1.57175e-07 0 -1.87502e-08 0 1.35032e-10
149 3 0.001 0.000555339 0 0.0435922 7.09931e-07 0 -7.7319e-07 0 1.16198e-10
150 3 0.001 0.000370513 0 0.0441978 4.7962e-08 0 -1.23767e-06 0 3.84249e-10
151 3 0.001 0.000185336 0 0.0448039 -5.04589e-07 0 -1.5384e-06 0 6.71106e-10
2 2 0.001 0 0 0.04541 2.75882e-05 0 0.00135107 0 3.3541e-10
