ITEM: TIMESTEP
1500000
ITEM: NUMBER OF ATOMS
151
ITEM: BOX BOUNDS ff ff ff
-1.0000000000000000e-02 1.0000000000000000e-02
-6.0000000000000001e-03 6.0000000000000001e-03
-5.2499999999999998e-02 5.2499999999999998e-02
ITEM: ATOMS id type radius x y z fx fy fz c_bendingE c_stretchingE
3 3 0.001 0.000187203 0.000104634 -0.0469036 7.07745e-10 1.38942e-10 -4.49088e-10 0 5.925e-10
1 1 0.001 0 0 -0.0475 -3.67112e-05 -1.58727e-05 -0.00153327 0 2.96258e-10
4 3 0.001 0.000374329 0.000209223 -0.0463072 1.46559e-09 3.33034e-10 -9.2013e-10 0 3.61677e-10
5 3 0.001 0.000561106 0.000313615 -0.0457113 2.17447e-09 5.39049e-10 -1.37658e-09 0 1.52931e-10
6 3 0.001 0.000747639 0.000417869 -0.0451154 2.84727e-09 6.91548e-10 -1.81226e-09 0 1.75028e-10
7 3 0.001 0.000933861 0.000521945 -0.0445193 3.48503e-09 7.79333e-10 -2.22634e-09 0 1.75107e-10
8 3 0.001 0.00111969 0.000625798 -0.0439231 4.16629e-09 8.32267e-10 -2.65158e-09 0 1.75202e-10
9 3 0.001 0.00130506 0.000729384 -0.0433267 4.9801e-09 9.11572e-10 -3.1214e-09 0 1.75315e-10
10 3 0.001 0.00148987 0.000832659 -0.04273 5.8053e-09 1.0366e-09 -3.59708e-09 0 1.75445e-10
11 3 0.001 0.00167407 0.000935579 -0.0421331 6.68665e-09 1.21501e-09 -4.09611e-09 0 1.75591e-10
12 3 0.001 0.00185757 0.0010381 -0.0415359 7.70945e-09 1.39405e-09 -4.63627e-09 0 1.75754e-10
13 3 0.001 0.00204028 0.00114018 -0.0409384 8.8265e-09 1.51868e-09 -5.19775e-09 0 1.75933e-10
14 3 0.001 0.00222215 0.00124177 -0.0403406 1.01153e-08 1.62883e-09 -5.80741e-09 0 1.76128e-10
15 3 0.001 0.00240308 0.00134283 -0.0397424 1.15758e-08 1.77435e-09 -6.47573e-09 0 1.76339e-10
16 3 0.001 0.00258301 0.00144331 -0.0391438 1.3109e-08 1.91306e-09 -7.15244e-09 0 1.76565e-10
17 3 0.001 0.00276185 0.00154318 -0.0385448 1.47638e-08 2.06734e-09 -7.86353e-09 0 1.76806e-10
18 3 0.001 0.00293953 0.00164239 -0.0379453 1.6513e-08 2.23528e-09 -8.60244e-09 0 1.77062e-10
19 3 0.001 0.00311598 0.00174089 -0.0373453 1.82486e-08 2.39345e-09 -9.33939e-09 0 1.77332e-10
20 3 0.001 0.00329112 0.00183865 -0.0367448 1.99557e-08 2.53781e-09 -1.00639e-08 0 1.77616e-10
21 3 0.001 0.00346487 0.00193562 -0.0361438 2.16502e-08 2.64438e-09 -1.07669e-08 0 1.77914e-10
22 3 0.001 0.00363717 0.00203175 -0.0355422 2.3254e-08 2.75453e-09 -1.14333e-08 0 1.78224e-10
23 3 0.001 0.00380792 0.00212702 -0.0349401 2.47719e-08 2.92078e-09 -1.20792e-08 0 1.78547e-10
24 3 0.001 0.00397708 0.00222137 -0.0343374 2.61853e-08 3.12284e-09 -1.27015e-08 0 1.78882e-10
25 3 0.001 0.00414455 0.00231477 -0.033734 2.74308e-08 3.33441e-09 -1.32803e-08 0 1.79229e-10
26 3 0.001 0.00431027 0.00240717 -0.03313 2.84802e-08 3.5372e-09 -1.38027e-08 0 1.79587e-10
27 3 0.001 0.00447416 0.00249853 -0.0325254 2.93626e-08 3.74026e-09 -1.42643e-08 0 1.79955e-10
28 3 0.001 0.00463616 0.00258881 -0.0319201 3.012e-08 3.93087e-09 -1.46824e-08 0 1.80333e-10
29 3 0.001 0.00479619 0.00267798 -0.0313141 3.07052e-08 4.09884e-09 -1.50457e-08 0 1.8072e-10
30 3 0.001 0.00495418 0.00276599 -0.0307073 3.10494e-08 4.25286e-09 -1.53556e-08 0 1.81116e-10
31 3 0.001 0.00511006 0.00285281 -0.0300999 3.1191e-08 4.43977e-09 -1.56198e-08 0 1.8152e-10
32 3 0.001 0.00526376 0.00293839 -0.0294918 3.09895e-08 4.61655e-09 -1.57923e-08 0 1.81931e-10
33 3 0.001 0.00541522 0.0030227 -0.0288829 3.04427e-08 4.80845e-09 -1.58695e-08 0 1.82349e-10
34 3 0.001 0.00556437 0.00310569 -0.0282732 2.95191e-08 5.02068e-09 -1.58538e-08 0 1.82774e-10
35 3 0.001 0.00571114 0.00318734 -0.0276628 2.80974e-08 5.2033e-09 -1.57279e-08 0 1.83203e-10
36 3 0.001 0.00585546 0.00326761 -0.0270517 2.62214e-08 5.39905e-09 -1.55103e-08 0 1.83638e-10
37 3 0.001 0.00599727 0.00334646 -0.0264397 2.39817e-08 5.62103e-09 -1.52171e-08 0 1.84076e-10
38 3 0.001 0.00613651 0.00342385 -0.025827 2.1422e-08 5.85507e-09 -1.48521e-08 0 1.84518e-10
39 3 0.001 0.0062731 0.00349975 -0.0252135 1.85144e-08 6.09178e-09 -1.44101e-08 0 1.84962e-10
40 3 0.001 0.006407 0.00357412 -0.0245992 1.53279e-08 6.3428e-09 -1.3928e-08 0 1.85409e-10
41 3 0.001 0.00653813 0.00364694 -0.0239842 1.18632e-08 6.61697e-09 -1.34157e-08 0 1.85856e-10
42 3 0.001 0.00666644 0.00371817 -0.0233683 8.0944e-09 6.87892e-09 -1.28628e-08 0 1.86303e-10
43 3 0.001 0.00679187 0.00378777 -0.0227517 4.03211e-09 7.12251e-09 -1.22573e-08 0 1.86751e-10
44 3 0.001 0.00691436 0.00385571 -0.0221343 -4.14393e-10 7.3289e-09 -1.15825e-08 0 1.87197e-10
45 3 0.001 0.00703385 0.00392197 -0.0215161 -5.24533e-09 7.49745e-09 -1.0849e-08 0 1.87641e-10
46 3 0.001 0.00715029 0.00398651 -0.0208972 -1.04556e-08 7.65038e-09 -1.00777e-08 0 1.88082e-10
47 3 0.001 0.00726362 0.00404931 -0.0202775 -1.59753e-08 7.81451e-09 -9.28342e-09 0 1.8852e-10
48 3 0.001 0.00737379 0.00411033 -0.0196571 -2.17157e-08 8.0115e-09 -8.47868e-09 0 1.88954e-10
49 3 0.001 0.00748075 0.00416955 -0.0190359 -2.76632e-08 8.20105e-09 -7.65593e-09 0 1.89382e-10
50 3 0.001 0.00758444 0.00422693 -0.018414 -3.37206e-08 8.39814e-09 -6.84151e-09 0 1.89805e-10
51 3 0.001 0.00768482 0.00428246 -0.0177914 -3.9834e-08 8.56866e-09 -6.05233e-09 0 1.90222e-10
52 3 0.001 0.00778184 0.00433611 -0.0171681 -4.59445e-08 8.73568e-09 -5.30856e-09 0 1.90631e-10
53 3 0.001 0.00787545 0.00438786 -0.0165442 -5.1964e-08 8.89657e-09 -4.61451e-09 0 1.91032e-10
54 3 0.001 0.00796561 0.00443767 -0.0159195 -5.78422e-08 9.02871e-09 -3.96073e-09 0 1.91424e-10
55 3 0.001 0.00805228 0.00448553 -0.0152942 -6.35279e-08 9.14599e-09 -3.3545e-09 0 1.91807e-10
56 3 0.001 0.0081354 0.00453142 -0.0146683 -6.904e-08 9.24463e-09 -2.80734e-09 0 1.92179e-10
57 3 0.001 0.00821495 0.00457531 -0.0140418 -7.44176e-08 9.29896e-09 -2.31622e-09 0 1.92541e-10
58 3 0.001 0.00829088 0.00461718 -0.0134147 -7.97171e-08 9.28426e-09 -1.86696e-09 0 1.92891e-10
59 3 0.001 0.00836316 0.00465703 -0.012787 -8.48999e-08 9.26705e-09 -1.45724e-09 0 1.93229e-10
60 3 0.001 0.00843175 0.00469482 -0.0121588 -9.00032e-08 9.25912e-09 -1.07665e-09 0 1.93555e-10
61 3 0.001 0.00849662 0.00473054 -0.01153 -9.50921e-08 9.25152e-09 -7.20847e-10 0 1.93867e-10
62 3 0.001 0.00855773 0.00476418 -0.0109008 -1.00178e-07 9.26734e-09 -4.08141e-10 0 1.94164e-10
63 3 0.001 0.00861506 0.00479573 -0.0102711 -1.05291e-07 9.29383e-09 -1.34039e-10 0 1.94448e-10
64 3 0.001 0.00866858 0.00482516 -0.00964098 -1.10353e-07 9.29323e-09 1.07535e-10 0 1.94716e-10
65 3 0.001 0.00871826 0.00485246 -0.00901044 -1.15325e-07 9.25772e-09 3.21462e-10 0 1.94968e-10
66 3 0.001 0.00876408 0.00487763 -0.00837952 -1.20187e-07 9.1839e-09 5.08224e-10 0 1.95205e-10
67 3 0.001 0.00880601 0.00490066 -0.00774825 -1.2488e-07 9.11093e-09 6.4769e-10 0 1.95425e-10
68 3 0.001 0.00884404 0.00492152 -0.00711666 -1.29381e-07 9.02449e-09 7.37985e-10 0 1.95628e-10
69 3 0.001 0.00887814 0.00494023 -0.00648478 -1.33687e-07 8.92016e-09 7.86327e-10 0 1.95813e-10
70 3 0.001 0.00890831 0.00495677 -0.00585264 -1.37722e-07 8.8165e-09 8.00444e-10 0 1.95981e-10
71 3 0.001 0.00893452 0.00497112 -0.00522026 -1.41431e-07 8.74527e-09 7.84072e-10 0 1.96131e-10
72 3 0.001 0.00895676 0.0049833 -0.00458769 -1.44728e-07 8.69653e-09 7.25728e-10 0 1.96263e-10
73 3 0.001 0.00897502 0.0049933 -0.00395496 -1.47567e-07 8.67227e-09 6.28777e-10 0 1.96377e-10
74 3 0.001 0.0089893 0.00500111 -0.00332209 -1.49932e-07 8.64541e-09 4.97137e-10 0 1.96472e-10
75 3 0.001 0.00899959 0.00500673 -0.00268912 -1.51788e-07 8.6218e-09 3.4425e-10 0 1.96545e-10
76 3 0.001 0.00900587 0.00501016 -0.00205608 -1.53131e-07 8.58627e-09 1.81123e-10 0 1.96598e-10
77 3 0.001 0.00900816 0.00501141 -0.001423 -1.53901e-07 8.56669e-09 9.40298e-12 0 1.96647e-10
78 3 0.001 0.00900645 0.00501047 -0.000789929 -1.54015e-07 8.58583e-09 -1.66738e-10 0 1.96702e-10
79 3 0.001 0.00900073 0.00500735 -0.000156884 -1.53476e-07 8.59306e-09 -3.39525e-10 0 1.96755e-10
80 3 0.001 0.00899102 0.00500203 0.000476098 -1.52215e-07 8.60831e-09 -4.99557e-10 0 1.96789e-10
81 3 0.001 0.00897731 0.00499453 0.00110898 -1.50331e-07 8.63387e-09 -6.36476e-10 0 1.96801e-10
82 3 0.001 0.00895961 0.00498484 0.00174174 -1.47835e-07 8.69051e-09 -7.46663e-10 0 1.96794e-10
83 3 0.001 0.00893793 0.00497296 0.00237434 -1.44831e-07 8.77147e-09 -8.2158e-10 0 1.96768e-10
84 3 0.001 0.00891228 0.0049589 0.00300674 -1.41298e-07 8.87927e-09 -8.57715e-10 0 1.96724e-10
85 3 0.001 0.00888266 0.00494266 0.00363892 -1.37314e-07 9.0145e-09 -8.4749e-10 0 1.96662e-10
86 3 0.001 0.00884909 0.00492425 0.00427084 -1.32982e-07 9.11221e-09 -7.96415e-10 0 1.96581e-10
87 3 0.001 0.0088116 0.00490367 0.00490247 -1.28345e-07 9.17984e-09 -7.02926e-10 0 1.96483e-10
88 3 0.001 0.00877018 0.00488093 0.00553378 -1.23447e-07 9.20176e-09 -5.66602e-10 0 1.96368e-10
89 3 0.001 0.00872488 0.00485603 0.00616475 -1.18347e-07 9.18482e-09 -3.83534e-10 0 1.96235e-10
90 3 0.001 0.0086757 0.004829 0.00679533 -1.13032e-07 9.17156e-09 -1.49246e-10 0 1.96086e-10
91 3 0.001 0.00862266 0.00479983 0.00742551 -1.07531e-07 9.19871e-09 1.36121e-10 0 1.95921e-10
93 3 0.001 0.00850515 0.00473516 0.00868454 -9.62801e-08 9.29177e-09 8.15951e-10 0 1.95544e-10
92 3 0.001 0.00856581 0.00476855 0.00805526 -1.01928e-07 9.24129e-09 4.60277e-10 0 1.9574e-10
94 3 0.001 0.00844073 0.00469968 0.00931333 -9.06037e-08 9.33646e-09 1.20912e-09 0 1.95333e-10
95 3 0.001 0.00837257 0.00466212 0.00994161 -8.49837e-08 9.34041e-09 1.63153e-09 0 1.95108e-10
96 3 0.001 0.00830071 0.0046225 0.0105693 -7.93336e-08 9.32172e-09 2.09748e-09 0 1.94869e-10
97 3 0.001 0.00822517 0.00458084 0.0111965 -7.36806e-08 9.28891e-09 2.59423e-09 0 1.94618e-10
98 3 0.001 0.008146 0.00453716 0.0118231 -6.80067e-08 9.22849e-09 3.11496e-09 0 1.94354e-10
99 3 0.001 0.00806323 0.00449147 0.0124491 -6.22641e-08 9.15818e-09 3.67463e-09 0 1.94079e-10
100 3 0.001 0.00797691 0.0044438 0.0130744 -5.65346e-08 9.02891e-09 4.26482e-09 0 1.93792e-10
102 3 0.001 0.00779376 0.00434258 0.0143232 -4.49772e-08 8.74018e-09 5.57577e-09 0 1.93189e-10
101 3 0.001 0.00788707 0.00439416 0.0136992 -5.07735e-08 8.89465e-09 4.90036e-09 0 1.93496e-10
103 3 0.001 0.00769702 0.00428909 0.0149465 -3.90694e-08 8.61264e-09 6.29569e-09 0 1.92874e-10
104 3 0.001 0.0075969 0.0042337 0.0155692 -3.31882e-08 8.44868e-09 7.03078e-09 0 1.92551e-10
105 3 0.001 0.00749345 0.00417645 0.0161911 -2.73466e-08 8.29987e-09 7.79038e-09 0 1.9222e-10
107 3 0.001 0.00727673 0.00405643 0.0174328 -1.61572e-08 7.93967e-09 9.33507e-09 0 1.9154e-10
106 3 0.001 0.0073867 0.00411735 0.0168124 -2.16612e-08 8.14003e-09 8.56254e-09 0 1.91883e-10
110 3 0.001 0.00692791 0.00386308 0.0192897 -9.75464e-10 7.26584e-09 1.15267e-08 0 1.90483e-10
108 3 0.001 0.00716357 0.00399373 0.0180526 -1.08393e-08 7.72815e-09 1.00967e-08 0 1.91192e-10
109 3 0.001 0.00704727 0.00392927 0.0186715 -5.78493e-09 7.48017e-09 1.08217e-08 0 1.90839e-10
111 3 0.001 0.00680552 0.0037952 0.0199071 3.5802e-09 7.06946e-09 1.22148e-08 0 1.90125e-10
112 3 0.001 0.00668017 0.00372564 0.0205238 7.83666e-09 6.9029e-09 1.28739e-08 0 1.89764e-10
114 3 0.001 0.0064208 0.00358164 0.0217547 1.51111e-08 6.45093e-09 1.39655e-08 0 1.8904e-10
113 3 0.001 0.00655191 0.00365444 0.0211396 1.16453e-08 6.66959e-09 1.34514e-08 0 1.89402e-10
115 3 0.001 0.00628691 0.00350727 0.022369 1.82005e-08 6.22902e-09 1.44098e-08 0 1.88678e-10
117 3 0.001 0.00601102 0.00335395 0.0235952 2.31918e-08 5.70455e-09 1.50732e-08 0 1.87959e-10
116 3 0.001 0.00615029 0.00343136 0.0229825 2.08626e-08 5.95799e-09 1.4768e-08 0 1.88317e-10
119 3 0.001 0.00572473 0.00319476 0.0248182 2.69474e-08 5.25003e-09 1.55098e-08 0 1.8725e-10
118 3 0.001 0.00586914 0.00327507 0.0242071 2.51903e-08 5.45617e-09 1.53143e-08 0 1.87602e-10
120 3 0.001 0.00557784 0.00311304 0.0254286 2.84181e-08 5.03304e-09 1.56353e-08 0 1.86901e-10
122 3 0.001 0.00527694 0.00294558 0.026647 3.04406e-08 4.68603e-09 1.56971e-08 0 1.8622e-10
121 3 0.001 0.00542856 0.00302997 0.0260382 2.96038e-08 4.8498e-09 1.57027e-08 0 1.86558e-10
123 3 0.001 0.00512305 0.0028599 0.0272551 3.09393e-08 4.54078e-09 1.5615e-08 0 1.85888e-10
124 3 0.001 0.00496696 0.00277297 0.0278625 3.10898e-08 4.3764e-09 1.54398e-08 0 1.85563e-10
125 3 0.001 0.00480873 0.00268484 0.0284691 3.09281e-08 4.19059e-09 1.51728e-08 0 1.85246e-10
126 3 0.001 0.00464845 0.00259553 0.029075 3.04077e-08 3.96367e-09 1.48037e-08 0 1.84938e-10
127 3 0.001 0.00448618 0.0025051 0.0296802 2.96176e-08 3.73805e-09 1.43617e-08 0 1.84638e-10
128 3 0.001 0.004322 0.00241358 0.0302848 2.85558e-08 3.50264e-09 1.38484e-08 0 1.84349e-10
129 3 0.001 0.00415596 0.00232101 0.0308886 2.73147e-08 3.28479e-09 1.32823e-08 0 1.84069e-10
131 3 0.001 0.00381865 0.00213288 0.0320945 2.47152e-08 3.00043e-09 1.21169e-08 0 1.83543e-10
132 3 0.001 0.00364751 0.00203741 0.0326964 2.32837e-08 2.84548e-09 1.14893e-08 0 1.83298e-10
130 3 0.001 0.00398815 0.00222743 0.0314919 2.60414e-08 3.138e-09 1.27097e-08 0 1.838e-10
133 3 0.001 0.00347482 0.00194106 0.0332979 2.17593e-08 2.71136e-09 1.08357e-08 0 1.83065e-10
134 3 0.001 0.00330066 0.00184387 0.0338987 2.0134e-08 2.56296e-09 1.01502e-08 0 1.82845e-10
136 3 0.001 0.0029482 0.00164713 0.0350988 1.67677e-08 2.2543e-09 8.71462e-09 0 1.82447e-10
135 3 0.001 0.00312509 0.00174587 0.034499 1.84179e-08 2.37761e-09 9.42251e-09 0 1.82639e-10
137 3 0.001 0.00277006 0.00154767 0.0356981 1.51289e-08 2.10669e-09 8.00296e-09 0 1.82269e-10
139 3 0.001 0.00241032 0.00134679 0.0368954 1.22197e-08 1.80455e-09 6.69272e-09 0 1.81959e-10
138 3 0.001 0.00259074 0.00144754 0.036297 1.36367e-08 1.9647e-09 7.3392e-09 0 1.82107e-10
140 3 0.001 0.00222889 0.00124545 0.0374934 1.09221e-08 1.65297e-09 6.08041e-09 0 1.81828e-10
141 3 0.001 0.00204651 0.00114358 0.038091 9.69665e-09 1.50777e-09 5.48004e-09 0 1.81712e-10
142 3 0.001 0.00186326 0.00104122 0.0386883 8.47117e-09 1.36684e-09 4.8777e-09 0 1.81613e-10
143 3 0.001 0.00167923 0.000938401 0.0392853 7.30854e-09 1.24793e-09 4.29971e-09 0 1.81531e-10
144 3 0.001 0.00149448 0.000835182 0.0398819 6.1679e-09 1.09706e-09 3.72689e-09 0 1.81466e-10
145 3 0.001 0.00130911 0.000731602 0.0404784 5.19292e-09 9.93343e-10 3.20859e-09 0 1.81418e-10
146 3 0.001 0.00112318 0.000627707 0.0410745 4.32906e-09 8.67346e-10 2.71693e-09 0 1.81387e-10
147 3 0.001 0.000936778 0.000523542 0.0416705 3.51042e-09 7.50578e-10 2.23488e-09 0 1.81375e-10
148 3 0.001 0.00074998 0.000419151 0.0422664 2.70985e-09 6.08044e-10 1.75528e-09 0 1.8138e-10
149 3 0.001 0.000562866 0.000314579 0.0428621 1.99231e-09 4.56457e-10 1.30658e-09 0 1.5893e-10
150 3 0.001 0.000375504 0.000209867 0.0434577 1.3167e-09 3.25964e-10 8.75098e-10 0 3.58548e-10
151 3 0.001 0.000187792 0.000104956 0.0440539 6.63368e-10 1.75382e-10 4.43697e-10 0 5.80561e-10
2 2 0.001 0 0 0.04465 -4.02819e-05 -1.78803e-05 0.00156191 0 2.9025e-10
