ITEM: TIMESTEP
6800000
ITEM: NUMBER OF ATOMS
151
ITEM: BOX BOUNDS ff ff ff
-1.0000000000000000e-02 1.0000000000000000e-02
-6.0000000000000001e-03 6.0000000000000001e-03
-5.2499999999999998e-02 5.2499999999999998e-02
ITEM: ATOMS id type radius x y z fx fy fz c_bendingE c_stretchingE
3 3 0.001 0.000400181 0.000326116 -0.0471364 9.075e-11 -9.30742e-11 -2.46511e-11 0 1.12601e-08
1 1 0.001 0 0 -0.0475 -0.00725246 -0.00249624 -0.0173311 0 5.61391e-09
4 3 0.001 0.000799805 0.000651103 -0.0467713 -2.14809e-10 1.99683e-10 4.43863e-11 0 1.587e-08
5 3 0.001 0.00119789 0.000973494 -0.0464033 3.12815e-10 -3.22118e-10 -7.18665e-11 0 2.08623e-08
6 3 0.001 0.00159424 0.00129247 -0.0460305 -4.38676e-10 3.98181e-10 1.08413e-10 0 2.14463e-08
7 3 0.001 0.00198826 0.00160689 -0.0456516 4.58674e-10 -4.37775e-10 -1.37369e-10 0 2.18226e-08
8 3 0.001 0.00237931 0.00191561 -0.0452649 -3.12427e-10 2.52196e-10 8.4944e-11 0 2.22708e-08
9 3 0.001 0.0027667 0.00221743 -0.0448693 -7.02278e-11 1.87021e-11 2.15451e-11 0 2.27836e-08
10 3 0.001 0.0031497 0.00251117 -0.0444636 3.54264e-10 -3.2097e-10 -1.34586e-10 0 2.3352e-08
11 3 0.001 0.00352753 0.00279562 -0.0440465 -4.93605e-10 3.76228e-10 1.57265e-10 0 2.39655e-08
12 3 0.001 0.00389937 0.00306959 -0.0436173 3.16619e-10 -3.29333e-10 -9.89581e-11 0 2.46118e-08
13 3 0.001 0.00426434 0.00333188 -0.0431752 -9.53749e-11 9.66875e-11 -1.0898e-11 0 2.52774e-08
14 3 0.001 0.00462155 0.00358131 -0.0427195 -1.8187e-10 6.99844e-11 6.88561e-11 0 2.59473e-08
15 3 0.001 0.00497007 0.00381673 -0.04225 2.95455e-10 -3.05031e-10 -1.02467e-10 0 2.66055e-08
16 3 0.001 0.00530896 0.00403701 -0.0417663 -4.60052e-10 3.8022e-10 1.18192e-10 0 2.72357e-08
17 3 0.001 0.00563726 0.00424112 -0.0412684 3.96266e-10 -4.24876e-10 -1.16605e-10 0 2.78212e-08
18 3 0.001 0.00595403 0.00442808 -0.0407566 -3.66897e-10 2.94299e-10 9.36263e-11 0 2.83459e-08
19 3 0.001 0.00625838 0.004597 -0.0402311 3.03362e-10 -3.07193e-10 -1.01011e-10 0 2.87951e-08
20 3 0.001 0.00654943 0.00474709 -0.0396927 -3.18942e-10 2.07595e-10 8.96727e-11 0 2.91554e-08
21 3 0.001 0.00682639 0.00487772 -0.0391418 7.62657e-11 -1.21717e-10 -3.36505e-11 0 2.94162e-08
22 3 0.001 0.00708855 0.00498835 -0.0385795 -8.77454e-11 3.12648e-11 1.35387e-11 0 2.95693e-08
23 3 0.001 0.00733527 0.00507862 -0.0380067 1.16226e-10 -1.63047e-10 -3.86817e-11 0 2.9583e-08
24 3 0.001 0.00756607 0.0051483 -0.0374244 -2.12753e-10 1.82113e-10 5.29348e-11 0 2.94419e-08
25 3 0.001 0.00778056 0.00519732 -0.0368338 2.2931e-10 -3.04175e-10 -7.03252e-11 0 2.92014e-08
26 3 0.001 0.0079785 0.00522567 -0.0362362 -5.10792e-10 3.82039e-10 1.34919e-10 0 2.89402e-08
27 3 0.001 0.00815979 0.00523337 -0.0356326 5.27666e-10 -4.8754e-10 -1.64524e-10 0 2.87142e-08
28 3 0.001 0.00832446 0.00522049 -0.0350244 -5.19049e-10 3.88763e-10 1.42317e-10 0 2.85427e-08
29 3 0.001 0.00847268 0.00518706 -0.0344127 3.26951e-10 -2.90404e-10 -9.66056e-11 0 2.84049e-08
30 3 0.001 0.00860475 0.00513315 -0.0337988 -2.25439e-10 5.88366e-11 4.77712e-11 0 2.82474e-08
31 3 0.001 0.00872112 0.00505886 -0.0331838 -5.11847e-11 4.68916e-11 9.77056e-12 0 2.80032e-08
32 3 0.001 0.00882234 0.00496435 -0.0325689 4.73612e-11 -1.11501e-10 -3.12906e-11 0 2.76473e-08
33 3 0.001 0.0089091 0.00484993 -0.0319551 -3.42436e-11 -8.13035e-12 6.41455e-13 0 2.72124e-08
35 3 0.001 0.00904256 0.00456314 -0.030735 2.42193e-10 -2.0284e-10 -7.45845e-11 0 2.62019e-08
34 3 0.001 0.00898221 0.00471601 -0.0313435 -1.68795e-10 6.76192e-11 3.35575e-11 0 2.67287e-08
37 3 0.001 0.00912913 0.00420326 -0.0295298 4.05643e-10 -3.17754e-10 -1.28051e-10 0 2.50526e-08
36 3 0.001 0.00909117 0.00439197 -0.0301302 -4.15089e-10 2.4232e-10 1.02149e-10 0 2.56367e-08
38 3 0.001 0.00915755 0.00399783 -0.0289345 -4.01823e-10 2.35297e-10 1.0008e-10 0 2.44764e-08
39 3 0.001 0.00917757 0.00377659 -0.0283444 1.56593e-10 -1.63952e-10 -6.67132e-11 0 2.39287e-08
40 3 0.001 0.00919027 0.00354051 -0.0277598 -2.13072e-11 2.60832e-11 1.30295e-11 0 2.34221e-08
41 3 0.001 0.00919671 0.0032906 -0.0271809 -6.16022e-11 5.96327e-12 5.33427e-12 0 2.29626e-08
42 3 0.001 0.00919784 0.00302794 -0.0266077 -4.11259e-12 -8.76132e-11 -3.97032e-11 0 2.25517e-08
43 3 0.001 0.00919454 0.00275362 -0.0260398 -5.94717e-11 6.88429e-11 3.63412e-11 0 2.21881e-08
45 3 0.001 0.00917762 0.00217454 -0.0249195 -1.13789e-10 -2.04933e-12 -1.44256e-12 0 2.15933e-08
44 3 0.001 0.00918757 0.00246877 -0.0254772 1.67829e-11 -5.21615e-11 -2.14102e-11 0 2.18695e-08
46 3 0.001 0.00916526 0.0018721 -0.0243662 8.35026e-11 -2.75631e-11 -1.36565e-11 0 2.13575e-08
48 3 0.001 0.00913517 0.00124738 -0.0232708 -2.4921e-10 4.27667e-11 2.48491e-11 0 2.10028e-08
49 3 0.001 0.00911817 0.000927499 -0.0227275 3.26146e-10 -1.10818e-10 -4.87677e-11 0 2.08831e-08
47 3 0.001 0.00915098 0.00156265 -0.0238169 -6.0892e-11 -9.61385e-12 -4.35631e-12 0 2.11609e-08
50 3 0.001 0.00910022 0.000604222 -0.0221863 -5.49951e-10 1.66803e-10 8.26786e-11 0 2.08022e-08
51 3 0.001 0.00908155 0.000278768 -0.0216463 3.42661e-10 -2.45747e-10 -1.37047e-10 0 2.07608e-08
53 3 0.001 0.00904293 -0.000373867 -0.0205676 -1.45635e-10 -1.55282e-10 -9.1699e-11 0 2.07918e-08
52 3 0.001 0.00906235 -4.76188e-05 -0.021107 -3.05075e-10 2.41962e-10 1.3872e-10 0 2.07569e-08
54 3 0.001 0.00902322 -0.00069864 -0.0200272 4.1619e-11 7.60993e-11 5.48424e-11 0 2.08678e-08
57 3 0.001 0.00896321 -0.00165187 -0.018394 -1.96292e-10 -4.12729e-11 -3.01757e-11 0 2.13262e-08
55 3 0.001 0.00900329 -0.00102071 -0.0194853 -2.55942e-10 -2.97781e-11 -2.56499e-11 0 2.09828e-08
56 3 0.001 0.00898325 -0.00133886 -0.0189411 -1.48459e-10 4.43547e-11 1.80162e-11 0 2.11361e-08
58 3 0.001 0.00894325 -0.00195854 -0.0178432 3.48902e-11 3.43621e-11 2.67915e-11 0 2.15497e-08
59 3 0.001 0.00892349 -0.00225768 -0.0172884 -5.50112e-10 3.26584e-11 5.41479e-12 0 2.18026e-08
60 3 0.001 0.00890403 -0.00254809 -0.0167289 8.405e-11 -2.91919e-11 -9.09637e-12 0 2.20801e-08
62 3 0.001 0.00886642 -0.00309814 -0.0155946 -2.13296e-10 -6.92144e-11 -3.83914e-11 0 2.26871e-08
61 3 0.001 0.00888497 -0.00282863 -0.0161645 -4.01605e-10 8.63131e-11 2.77675e-11 0 2.23769e-08
63 3 0.001 0.00884848 -0.00335554 -0.0150193 -1.317e-10 4.97469e-11 2.30903e-11 0 2.30043e-08
64 3 0.001 0.00883125 -0.00359974 -0.0144382 -4.12795e-10 5.07311e-11 1.26405e-11 0 2.3322e-08
65 3 0.001 0.00881483 -0.00382975 -0.0138513 -2.63175e-10 -9.83201e-12 -9.80658e-12 0 2.36331e-08
66 3 0.001 0.00879932 -0.00404459 -0.0132587 -2.44153e-10 2.8797e-11 6.5106e-12 0 2.39308e-08
67 3 0.001 0.00878481 -0.00424338 -0.0126605 -3.41869e-10 1.09177e-11 -4.84429e-13 0 2.42081e-08
69 3 0.001 0.00875913 -0.00458963 -0.0114484 -4.74277e-10 1.95305e-11 -2.18734e-12 0 2.4676e-08
70 3 0.001 0.00874813 -0.00473574 -0.0108352 -1.53626e-10 4.26569e-11 7.17684e-12 0 2.48553e-08
68 3 0.001 0.00877138 -0.0044253 -0.012057 -2.5087e-10 2.65643e-11 7.35385e-12 0 2.44585e-08
71 3 0.001 0.00873844 -0.0048631 -0.0102178 -4.96682e-10 1.40841e-11 -3.91752e-12 0 2.49919e-08
72 3 0.001 0.00873013 -0.0049713 -0.00959674 -2.91016e-10 -2.73493e-11 -1.19067e-12 0 2.50824e-08
73 3 0.001 0.00872326 -0.00506003 -0.0089726 -2.50101e-10 9.66627e-11 1.49233e-11 0 2.51079e-08
74 3 0.001 0.00871785 -0.00512914 -0.00834597 -6.57878e-10 -1.04176e-11 -3.66739e-12 0 2.50515e-08
75 3 0.001 0.00871396 -0.00517854 -0.00771746 1.78547e-11 -5.2268e-12 1.41874e-12 0 2.49453e-08
76 3 0.001 0.00871161 -0.00520823 -0.00708769 -6.45156e-10 7.84176e-11 1.00733e-12 0 2.48506e-08
77 3 0.001 0.0087108 -0.00521822 -0.0064573 -3.06252e-10 -2.41994e-11 1.99899e-12 0 2.48136e-08
78 3 0.001 0.00871154 -0.00520853 -0.0058269 -2.91572e-10 3.7402e-11 2.74071e-12 0 2.48509e-08
79 3 0.001 0.00871384 -0.00517914 -0.00519712 -4.35133e-10 2.15429e-11 5.39656e-12 0 2.49463e-08
80 3 0.001 0.00871767 -0.00513004 -0.00456859 -3.71863e-10 3.31282e-11 1.90493e-12 0 2.50542e-08
81 3 0.001 0.00872302 -0.00506123 -0.00394192 -2.83319e-10 -1.0615e-11 5.10135e-12 0 2.51132e-08
82 3 0.001 0.00872984 -0.00497279 -0.00331774 -4.61366e-10 4.97787e-11 -2.0494e-12 0 2.50901e-08
83 3 0.001 0.00873809 -0.00486488 -0.00269664 -2.33887e-10 4.38791e-11 -5.3202e-12 0 2.50016e-08
84 3 0.001 0.00874773 -0.00473779 -0.00207919 -4.7108e-10 -2.55172e-11 1.76467e-11 0 2.48669e-08
85 3 0.001 0.00875868 -0.00459195 -0.00146591 -2.44186e-10 1.68483e-11 6.3698e-12 0 2.46894e-08
86 3 0.001 0.00877089 -0.00442787 -0.000857276 -3.03833e-10 9.19372e-11 -1.96902e-11 0 2.44735e-08
87 3 0.001 0.00878427 -0.00424619 -0.000253669 -4.61323e-10 -3.46405e-11 1.94567e-11 0 2.42245e-08
88 3 0.001 0.00879875 -0.00404762 0.000344587 -6.6178e-11 3.67982e-11 -9.23105e-12 0 2.39485e-08
89 3 0.001 0.00881423 -0.00383299 0.00093726 -5.42928e-10 1.3639e-11 1.39208e-11 0 2.3652e-08
90 3 0.001 0.00883062 -0.00360318 0.00152421 -8.08685e-11 1.03372e-11 3.29756e-12 0 2.33418e-08
91 3 0.001 0.00884783 -0.00335914 0.00210539 -4.05586e-10 4.42797e-11 -6.39203e-12 0 2.30249e-08
92 3 0.001 0.00886576 -0.0031019 0.00268084 -1.85128e-10 9.75286e-12 -1.00089e-13 0 2.27083e-08
93 3 0.001 0.0088843 -0.00283251 0.00325071 -1.91608e-10 2.41e-11 -3.99791e-12 0 2.23985e-08
94 3 0.001 0.00890335 -0.00255208 0.00381523 -3.21308e-10 -3.89325e-11 3.51706e-11 0 2.21021e-08
95 3 0.001 0.00892281 -0.00226176 0.00437473 -2.10621e-10 8.61881e-11 -3.48697e-11 0 2.18249e-08
96 3 0.001 0.00894258 -0.00196269 0.00492961 -9.75841e-11 -1.71877e-11 1.37581e-11 0 2.15722e-08
97 3 0.001 0.00896255 -0.00165606 0.00548037 -1.72392e-10 -3.78618e-12 1.09084e-11 0 2.13488e-08
98 3 0.001 0.00898261 -0.00134308 0.00602755 -3.35856e-10 1.50501e-11 6.03741e-12 0 2.11588e-08
99 3 0.001 0.00900267 -0.00102494 0.00657175 4.22044e-11 1.57525e-11 -1.10515e-11 0 2.10055e-08
100 3 0.001 0.00902263 -0.000702852 0.00711365 -2.18704e-10 5.77219e-12 3.89962e-12 0 2.08907e-08
101 3 0.001 0.00904238 -0.000378048 0.00765394 -1.17529e-10 -2.29955e-11 1.97787e-11 0 2.08149e-08
102 3 0.001 0.00906183 -5.17497e-05 0.00819334 -4.1279e-11 1.05661e-12 4.61963e-12 0 2.07803e-08
103 3 0.001 0.00908107 0.0002747 0.00873265 -1.77782e-10 7.5425e-11 -3.50687e-11 0 2.07846e-08
104 3 0.001 0.00909978 0.000600237 0.00927254 3.51255e-12 -1.08999e-10 6.61497e-11 0 2.08263e-08
105 3 0.001 0.00911778 0.000923612 0.00981374 -1.36694e-10 5.40347e-11 -3.01595e-11 0 2.09077e-08
106 3 0.001 0.00913485 0.00124361 0.010357 2.65624e-11 -4.52795e-11 2.41705e-11 0 2.10278e-08
107 3 0.001 0.00915072 0.00155901 0.0109029 -1.03556e-10 4.91679e-11 -2.20717e-11 0 2.11864e-08
108 3 0.001 0.00916509 0.0018686 0.0114522 -5.21853e-11 -6.54621e-11 4.31584e-11 0 2.13836e-08
109 3 0.001 0.00917754 0.0021712 0.0120054 6.27309e-11 2.7681e-11 -1.28267e-11 0 2.16199e-08
110 3 0.001 0.0091876 0.00246559 0.012563 -1.68671e-10 -5.01889e-11 2.76254e-11 0 2.18966e-08
111 3 0.001 0.0091947 0.00275063 0.0131255 9.80246e-11 1.93479e-11 -1.09538e-11 0 2.22158e-08
112 3 0.001 0.00919815 0.00302514 0.0136932 -8.82343e-11 -1.72872e-11 1.20222e-11 0 2.25799e-08
113 3 0.001 0.00919719 0.003288 0.0142664 -3.74851e-11 -4.84048e-11 2.57836e-11 0 2.29915e-08
114 3 0.001 0.00919094 0.00353811 0.0148452 4.89868e-11 3.39547e-11 -8.33219e-12 0 2.34517e-08
115 3 0.001 0.00917844 0.00377441 0.0154297 -6.85338e-11 -8.7432e-11 3.47639e-11 0 2.39594e-08
116 3 0.001 0.00915865 0.00399587 0.0160197 -4.86401e-11 5.54465e-11 -2.04675e-11 0 2.45087e-08
117 3 0.001 0.00913047 0.00420152 0.016615 -3.31881e-11 -2.36747e-11 1.25464e-11 0 2.5087e-08
118 3 0.001 0.00909279 0.00439046 0.0172153 1.02122e-10 -1.08909e-10 4.5997e-11 0 2.56741e-08
119 3 0.001 0.00904445 0.00456186 0.01782 -1.88931e-10 6.59194e-11 -3.04448e-11 0 2.62432e-08
120 3 0.001 0.00898439 0.00471495 0.0184286 4.90965e-11 -1.70836e-11 1.44533e-11 0 2.67739e-08
121 3 0.001 0.00891159 0.0048491 0.0190402 -7.84532e-11 -6.57319e-11 9.03975e-12 0 2.72614e-08
123 3 0.001 0.00872419 0.00505846 0.0202688 -2.97397e-10 1.71612e-10 -6.57213e-11 0 2.806e-08
122 3 0.001 0.00882512 0.00496374 0.0196539 9.69883e-11 -4.91708e-11 3.10732e-11 0 2.77001e-08
124 3 0.001 0.00860809 0.00513297 0.0208838 4.0399e-10 -4.20301e-10 1.33022e-10 0 2.83081e-08
125 3 0.001 0.00847628 0.00518708 0.0214978 -5.66597e-10 4.81862e-10 -1.56808e-10 0 2.84689e-08
126 3 0.001 0.0083283 0.0052207 0.0221095 4.0823e-10 -3.91572e-10 1.31021e-10 0 2.86095e-08
127 3 0.001 0.00816384 0.00523376 0.0227178 -2.94425e-10 1.37045e-10 -7.28891e-11 0 2.87838e-08
128 3 0.001 0.00798274 0.00522623 0.0233214 1.95313e-10 -1.55064e-10 7.12613e-11 0 2.90128e-08
130 3 0.001 0.00757058 0.00514917 0.0245098 1.91246e-10 -2.65221e-10 5.97734e-11 0 2.95223e-08
129 3 0.001 0.00778495 0.00519804 0.0239191 -3.01784e-10 2.12441e-10 -7.35093e-11 0 2.92776e-08
131 3 0.001 0.00733987 0.00507961 0.0250921 -1.12049e-10 9.45769e-11 -1.67749e-11 0 2.96677e-08
132 3 0.001 0.0070932 0.00498946 0.0256649 -1.00662e-11 -1.59776e-11 1.59031e-11 0 2.96576e-08
133 3 0.001 0.00683105 0.00487892 0.0262273 -4.41586e-11 -7.82895e-11 -1.55835e-11 0 2.95067e-08
136 3 0.001 0.0059585 0.00442946 0.0278419 -1.63459e-10 6.31102e-11 -4.81949e-11 0 2.84388e-08
135 3 0.001 0.00626295 0.00459834 0.0273166 6.57614e-11 -9.02162e-11 3.70691e-11 0 2.8888e-08
134 3 0.001 0.00655407 0.00474838 0.0267781 -4.14499e-11 2.97727e-11 9.1319e-12 0 2.92476e-08
138 3 0.001 0.00531313 0.0040384 0.0288514 -1.94374e-10 6.80705e-11 -7.07428e-11 0 2.73265e-08
139 3 0.001 0.00497405 0.00381809 0.029335 1.22912e-10 -7.60808e-11 8.63599e-11 0 2.66944e-08
137 3 0.001 0.00564159 0.00424251 0.0283537 1.41717e-10 -1.25148e-10 7.28743e-11 0 2.79133e-08
143 3 0.001 0.0035305 0.00279673 0.0311306 -4.0486e-11 2.61443e-11 1.97684e-11 0 2.40438e-08
142 3 0.001 0.00390262 0.00307078 0.0307017 4.35364e-11 -7.38472e-11 2.68179e-11 0 2.4693e-08
141 3 0.001 0.00426785 0.00333315 0.0302598 -4.03874e-11 1.75369e-11 9.5888e-12 0 2.53614e-08
140 3 0.001 0.00462531 0.00358263 0.0298044 -8.59232e-11 -2.6298e-11 -4.63152e-11 0 2.60339e-08
146 3 0.001 0.00238135 0.00191639 0.0323478 2.18358e-11 3.86639e-11 7.90687e-11 0 2.23411e-08
144 3 0.001 0.00315237 0.00251217 0.0315472 -3.56614e-11 -3.93621e-11 -2.72104e-11 0 2.34275e-08
145 3 0.001 0.00276907 0.00221833 0.0319526 -1.00245e-11 -2.75994e-11 -4.40745e-12 0 2.28564e-08
148 3 0.001 0.00159561 0.00129301 0.0331125 -3.19326e-10 3.37503e-10 -2.9185e-11 0 2.15128e-08
149 3 0.001 0.00119892 0.000973901 0.0334848 4.93995e-10 -4.7533e-10 1.3588e-10 0 2.0927e-08
150 3 0.001 0.000800498 0.000651376 0.0338523 -4.5883e-10 3.95966e-10 -1.39342e-10 0 1.59254e-08
147 3 0.001 0.00198997 0.00160756 0.032734 5.41793e-11 -1.75897e-10 -6.27227e-11 0 2.18908e-08
151 3 0.001 0.000400529 0.000326253 0.0342169 2.38959e-10 -2.10117e-10 7.82479e-11 0 1.13071e-08
2 2 0.001 0 0 0.03458 -0.00727116 -0.00250752 0.0173597 0 5.63742e-09
