ITEM: TIMESTEP
5500000
ITEM: NUMBER OF ATOMS
151
ITEM: BOX BOUNDS ff ff ff
-1.0000000000000000e-02 1.0000000000000000e-02
-6.0000000000000001e-03 6.0000000000000001e-03
-5.2499999999999998e-02 5.2499999999999998e-02
ITEM: ATOMS id type radius x y z fx fy fz c_bendingE c_stretchingE
3 3 0.001 0.00034189 0.000307076 -0.047066 1.60252e-12 -9.32783e-13 -1.8086e-12 0 4.54322e-09
1 1 0.001 0 0 -0.0475 -0.00445196 -0.000461146 -0.01305 0 2.26627e-09
4 3 0.001 0.000683419 0.000613129 -0.0466309 2.249e-12 -1.00114e-11 3.85768e-12 0 7.66641e-09
5 3 0.001 0.00102387 0.000916816 -0.0461944 -3.29075e-12 -2.99218e-12 2.54916e-12 0 1.10299e-08
6 3 0.001 0.00136319 0.00121741 -0.0457549 6.08293e-12 -1.36645e-11 1.91192e-12 0 1.13461e-08
7 3 0.001 0.00170104 0.00151391 -0.0453115 7.44887e-12 -1.89812e-11 3.5589e-12 0 1.14912e-08
8 3 0.001 0.00203699 0.00180527 -0.0448633 -1.15499e-11 -5.69182e-12 9.01239e-12 0 1.16655e-08
9 3 0.001 0.00237063 0.00209046 -0.0444094 1.74751e-11 -2.9446e-11 2.05906e-12 0 1.18667e-08
10 3 0.001 0.00270153 0.00236844 -0.0439492 -3.65744e-12 -1.80588e-11 8.88416e-12 0 1.20925e-08
11 3 0.001 0.00302921 0.00263819 -0.0434818 6.35363e-12 -2.63983e-11 7.65968e-12 0 1.234e-08
12 3 0.001 0.00335319 0.00289866 -0.0430067 -2.65835e-12 -2.45341e-11 1.16531e-11 0 1.26059e-08
13 3 0.001 0.00367296 0.00314883 -0.0425233 9.15529e-12 -3.34719e-11 7.99527e-12 0 1.28865e-08
14 3 0.001 0.00398799 0.00338769 -0.0420311 -6.25949e-14 -3.09619e-11 1.25522e-11 0 1.31774e-08
15 3 0.001 0.00429772 0.00361425 -0.0415299 3.07791e-13 -3.66045e-11 1.52686e-11 0 1.34742e-08
16 3 0.001 0.0046016 0.00382754 -0.0410195 2.05472e-12 -3.54819e-11 1.25014e-11 0 1.37719e-08
17 3 0.001 0.00489903 0.00402663 -0.0404996 4.11376e-12 -4.43155e-11 1.57058e-11 0 1.40654e-08
18 3 0.001 0.00518943 0.00421063 -0.0399702 -9.79211e-12 -3.65506e-11 1.91703e-11 0 1.43493e-08
19 3 0.001 0.0054722 0.0043787 -0.0394316 4.66268e-12 -4.9632e-11 1.62239e-11 0 1.46183e-08
20 3 0.001 0.00574677 0.00453006 -0.0388838 -6.20765e-12 -4.65169e-11 2.08629e-11 0 1.4867e-08
21 3 0.001 0.00601256 0.00466401 -0.0383273 -1.04972e-11 -4.57726e-11 2.19674e-11 0 1.50905e-08
22 3 0.001 0.00626901 0.00477991 -0.0377624 1.37071e-12 -5.58904e-11 1.92562e-11 0 1.5284e-08
23 3 0.001 0.0065156 0.00487722 -0.0371897 -1.81788e-11 -4.79078e-11 2.44629e-11 0 1.54435e-08
24 3 0.001 0.00675184 0.0049555 -0.0366098 -8.52018e-12 -5.82996e-11 2.30046e-11 0 1.55654e-08
25 3 0.001 0.00697729 0.00501439 -0.0360233 -1.44584e-11 -5.55219e-11 2.34808e-11 0 1.56461e-08
26 3 0.001 0.00719154 0.00505365 -0.0354311 -1.47948e-11 -5.88028e-11 2.43264e-11 0 1.56821e-08
27 3 0.001 0.00739426 0.00507315 -0.0348338 -2.5231e-11 -5.43516e-11 2.57955e-11 0 1.56795e-08
28 3 0.001 0.00758518 0.00507286 -0.0342323 -1.66471e-11 -6.67626e-11 2.27813e-11 0 1.56502e-08
29 3 0.001 0.0077641 0.0050528 -0.0336275 -2.56603e-11 -5.52753e-11 2.40472e-11 0 1.55945e-08
30 3 0.001 0.00793086 0.00501312 -0.0330201 -3.01987e-11 -5.85233e-11 2.45274e-11 0 1.55017e-08
31 3 0.001 0.00808542 0.00495404 -0.0324111 -2.52417e-11 -6.67942e-11 2.10316e-11 0 1.5367e-08
32 3 0.001 0.00822779 0.00487588 -0.0318013 -3.22997e-11 -5.42444e-11 2.16187e-11 0 1.51955e-08
33 3 0.001 0.00835807 0.00477906 -0.0311914 -3.85883e-11 -5.52117e-11 2.17522e-11 0 1.49915e-08
34 3 0.001 0.00847641 0.00466411 -0.0305822 -3.14745e-11 -5.70729e-11 1.7889e-11 0 1.47595e-08
37 3 0.001 0.00876268 0.00421698 -0.0287654 -3.61764e-11 -4.59383e-11 1.4075e-11 0 1.39444e-08
36 3 0.001 0.00867837 0.00438235 -0.0293687 -4.05245e-11 -4.82111e-11 1.63524e-11 0 1.42307e-08
35 3 0.001 0.00858307 0.00453165 -0.0299745 -3.84944e-11 -5.20502e-11 1.79665e-11 0 1.45042e-08
39 3 0.001 0.00890027 0.00384137 -0.0275682 -3.21264e-11 -4.1011e-11 8.9146e-12 0 1.33542e-08
38 3 0.001 0.00883648 0.00403636 -0.0281651 -4.69983e-11 -3.75854e-11 1.57403e-11 0 1.36504e-08
40 3 0.001 0.00895463 0.00363294 -0.0269748 -4.31263e-11 -2.90872e-11 1.23484e-11 0 1.30607e-08
42 3 0.001 0.0090376 0.00317959 -0.0257995 -3.06775e-11 -2.21114e-11 7.49641e-12 0 1.24982e-08
41 3 0.001 0.00900018 0.00341202 -0.0263852 -4.09159e-11 -2.68213e-11 9.04764e-12 0 1.27747e-08
45 3 0.001 0.00910833 0.00242348 -0.0240646 -2.37629e-11 -2.44772e-12 6.05755e-12 0 1.17645e-08
44 3 0.001 0.00909094 0.00268429 -0.0246393 -3.00351e-11 -1.28883e-11 4.31545e-12 0 1.19869e-08
43 3 0.001 0.00906761 0.00293667 -0.0252175 -4.0047e-11 -1.30524e-11 8.90696e-12 0 1.22335e-08
47 3 0.001 0.00912824 0.00188075 -0.0229246 -1.48264e-11 3.26422e-12 2.52248e-12 0 1.14078e-08
46 3 0.001 0.00912053 0.00215528 -0.0234931 -3.50749e-11 6.10109e-12 7.07094e-12 0 1.15708e-08
50 3 0.001 0.00913081 0.00102966 -0.0212324 -1.67731e-11 2.28721e-11 1.86556e-12 0 1.11056e-08
49 3 0.001 0.00913278 0.00131689 -0.0217947 -1.84105e-11 2.17437e-11 4.475e-12 0 1.1176e-08
48 3 0.001 0.00913211 0.00160094 -0.0223586 -2.03784e-11 1.79831e-11 5.74474e-12 0 1.12764e-08
52 3 0.001 0.00912093 0.000449893 -0.0201106 -2.82561e-12 2.52848e-11 -2.80268e-12 0 1.10491e-08
51 3 0.001 0.0091267 0.000740309 -0.0206712 -1.0102e-11 4.64813e-11 1.18941e-11 0 1.10639e-08
53 3 0.001 0.00911397 0.000159447 -0.0195499 -1.71061e-11 5.5996e-11 1.01302e-11 0 1.10588e-08
55 3 0.001 0.00909755 -0.000417465 -0.0184267 -3.11618e-13 6.11319e-11 7.79759e-12 0 1.11473e-08
54 3 0.001 0.0091061 -0.000130035 -0.0189888 -1.62574e-12 4.94383e-11 3.69102e-12 0 1.10917e-08
57 3 0.001 0.00907928 -0.000981943 -0.0172972 2.33251e-12 7.24812e-11 8.79861e-12 0 1.13201e-08
56 3 0.001 0.00908854 -0.000701784 -0.017863 -8.04534e-12 6.20816e-11 5.37106e-12 0 1.1224e-08
58 3 0.001 0.00906991 -0.0012569 -0.0167289 -3.71515e-12 7.66935e-11 7.55672e-12 0 1.14344e-08
60 3 0.001 0.0090514 -0.00178707 -0.015583 9.21446e-14 8.82122e-11 9.5082e-12 0 1.17105e-08
59 3 0.001 0.00906059 -0.00152562 -0.0161576 3.26608e-12 8.06936e-11 8.14583e-12 0 1.15651e-08
63 3 0.001 0.00902543 -0.00251775 -0.013836 -1.28753e-12 9.98976e-11 9.46648e-12 0 1.22152e-08
62 3 0.001 0.00903376 -0.00228413 -0.0144224 3.18188e-12 9.94484e-11 1.08962e-11 0 1.20378e-08
61 3 0.001 0.00904243 -0.00204024 -0.0150047 2.37859e-12 9.01222e-11 9.12173e-12 0 1.18688e-08
65 3 0.001 0.00901 -0.00295036 -0.01265 -3.56452e-12 1.12868e-10 1.28419e-11 0 1.25854e-08
64 3 0.001 0.0090175 -0.00274013 -0.0132452 9.03634e-12 1.06181e-10 1.14116e-11 0 1.23987e-08
66 3 0.001 0.00900295 -0.00314752 -0.0120503 8.84686e-12 1.09142e-10 1.03084e-11 0 1.27726e-08
67 3 0.001 0.00899641 -0.00333075 -0.0114462 -2.37117e-13 1.23054e-10 1.34786e-11 0 1.29573e-08
68 3 0.001 0.00899039 -0.00349924 -0.0108379 8.27877e-12 1.16766e-10 1.10122e-11 0 1.31366e-08
69 3 0.001 0.00898492 -0.00365222 -0.0102255 -2.71656e-12 1.24337e-10 1.26285e-11 0 1.33074e-08
70 3 0.001 0.00898003 -0.00378899 -0.00960928 4.90044e-12 1.3115e-10 1.40789e-11 0 1.34666e-08
72 3 0.001 0.00897207 -0.00401139 -0.00836674 -1.56099e-11 1.35376e-10 1.38328e-11 0 1.3739e-08
71 3 0.001 0.00897574 -0.0039089 -0.00898957 1.23892e-11 1.23403e-10 1.22104e-11 0 1.36113e-08
73 3 0.001 0.00896905 -0.00409595 -0.00774124 2.20486e-11 1.31293e-10 1.2393e-11 0 1.38471e-08
74 3 0.001 0.00896667 -0.00416219 -0.00711354 -6.35424e-12 1.33057e-10 1.29684e-11 0 1.39336e-08
75 3 0.001 0.00896496 -0.00420977 -0.00648415 2.38595e-12 1.39451e-10 1.35587e-11 0 1.39968e-08
76 3 0.001 0.00896392 -0.00423846 -0.00585362 2.11687e-12 1.32989e-10 1.31358e-11 0 1.40355e-08
77 3 0.001 0.00896357 -0.00424811 -0.00522252 7.79722e-12 1.38588e-10 1.30393e-11 0 1.40489e-08
78 3 0.001 0.00896389 -0.00423869 -0.00459141 -2.56943e-12 1.37796e-10 1.28852e-11 0 1.40368e-08
79 3 0.001 0.00896489 -0.00421022 -0.00396087 -3.4501e-12 1.35325e-10 1.34748e-11 0 1.39994e-08
80 3 0.001 0.00896657 -0.00416286 -0.00333146 6.3189e-12 1.3693e-10 1.24457e-11 0 1.39374e-08
81 3 0.001 0.00896892 -0.00409684 -0.00270373 8.71425e-12 1.34382e-10 1.35048e-11 0 1.38521e-08
82 3 0.001 0.00897192 -0.00401249 -0.0020782 -1.6541e-11 1.36841e-10 1.27805e-11 0 1.37451e-08
83 3 0.001 0.00897556 -0.0039102 -0.00145535 1.2888e-11 1.31478e-10 1.26047e-11 0 1.36186e-08
84 3 0.001 0.00897982 -0.00379049 -0.000835602 -6.87675e-12 1.29498e-10 1.35187e-11 0 1.34749e-08
85 3 0.001 0.00898468 -0.0036539 -0.000219344 6.48171e-12 1.30523e-10 1.22157e-11 0 1.33166e-08
86 3 0.001 0.00899013 -0.0035011 0.000393101 -5.94522e-12 1.23842e-10 1.40492e-11 0 1.31467e-08
87 3 0.001 0.00899613 -0.00333277 0.00100147 -2.85366e-12 1.25567e-10 1.28403e-11 0 1.29683e-08
88 3 0.001 0.00900265 -0.00314968 0.00160558 1.05508e-12 1.20443e-10 1.27959e-11 0 1.27842e-08
89 3 0.001 0.00900968 -0.00295266 0.00220529 2.61229e-12 1.11976e-10 1.58071e-11 0 1.25977e-08
90 3 0.001 0.00901717 -0.00274255 0.00280056 -7.45646e-12 1.17774e-10 1.17469e-11 0 1.24115e-08
91 3 0.001 0.0090251 -0.00252027 0.0033914 -4.07268e-12 1.07102e-10 1.53682e-11 0 1.22286e-08
92 3 0.001 0.00903342 -0.00228674 0.00397789 7.09002e-12 1.02406e-10 1.5838e-11 0 1.20516e-08
93 3 0.001 0.00904209 -0.00204293 0.0045602 -1.01165e-11 1.01465e-10 1.3345e-11 0 1.1883e-08
94 3 0.001 0.00905105 -0.00178982 0.00513853 -4.46669e-12 9.50332e-11 1.59791e-11 0 1.17251e-08
95 3 0.001 0.00906025 -0.00152841 0.00571317 7.04255e-12 8.7538e-11 1.68406e-11 0 1.15801e-08
96 3 0.001 0.00906959 -0.00125973 0.00628446 -1.49732e-11 8.69621e-11 1.60004e-11 0 1.14497e-08
97 3 0.001 0.00907897 -0.000984786 0.00685277 4.64623e-12 7.68839e-11 1.74182e-11 0 1.13357e-08
98 3 0.001 0.00908826 -0.000704629 0.00741854 -5.68433e-12 7.19483e-11 1.83407e-11 0 1.12398e-08
99 3 0.001 0.00909731 -0.000420297 0.00798224 -5.26255e-12 6.87104e-11 1.70533e-11 0 1.11634e-08
100 3 0.001 0.00910591 -0.00013284 0.00854436 7.51007e-13 6.09103e-11 1.7915e-11 0 1.11081e-08
101 3 0.001 0.00911384 0.000156683 0.00910544 -1.10259e-11 5.28279e-11 2.10499e-11 0 1.10754e-08
102 3 0.001 0.00912087 0.000447183 0.00966602 5.37667e-13 5.04322e-11 1.80985e-11 0 1.10659e-08
103 3 0.001 0.00912673 0.000737665 0.0102266 -8.50982e-12 4.04845e-11 2.03035e-11 0 1.10809e-08
104 3 0.001 0.00913094 0.00102709 0.0107878 3.72106e-12 3.28696e-11 2.11499e-11 0 1.11228e-08
105 3 0.001 0.00913304 0.00131441 0.01135 -1.47353e-11 3.34563e-11 1.72567e-11 0 1.11934e-08
106 3 0.001 0.00913252 0.00159856 0.0119139 -1.06599e-12 1.76974e-11 2.30723e-11 0 1.1294e-08
107 3 0.001 0.0091288 0.00187848 0.0124798 -3.32175e-12 1.87335e-11 1.92265e-11 0 1.14257e-08
108 3 0.001 0.00912129 0.00215314 0.0130483 -2.56278e-12 6.36091e-12 2.09763e-11 0 1.1589e-08
109 3 0.001 0.0091093 0.00242146 0.0136197 -1.19664e-11 5.06726e-12 1.81626e-11 0 1.17833e-08
110 3 0.001 0.00909214 0.00268241 0.0141944 3.3832e-12 -6.06774e-12 2.08812e-11 0 1.20064e-08
111 3 0.001 0.00906906 0.00293494 0.0147725 -4.85565e-12 -9.66742e-12 1.88259e-11 0 1.22541e-08
112 3 0.001 0.00903933 0.00317801 0.0153544 -3.14644e-12 -1.19991e-11 1.66463e-11 0 1.25203e-08
113 3 0.001 0.00900219 0.0034106 0.0159401 3.07346e-12 -2.72165e-11 1.95573e-11 0 1.27984e-08
114 3 0.001 0.00895694 0.00363169 0.0165297 -2.10199e-12 -2.46091e-11 1.51963e-11 0 1.3086e-08
115 3 0.001 0.00890289 0.00384029 0.017123 -1.32044e-13 -2.9418e-11 1.44364e-11 0 1.33813e-08
116 3 0.001 0.00883941 0.00403545 0.0177199 9.58753e-12 -4.13416e-11 1.62946e-11 0 1.36794e-08
117 3 0.001 0.00876593 0.00421625 0.0183202 7.8222e-12 -3.8444e-11 1.25473e-11 0 1.39753e-08
118 3 0.001 0.00868192 0.0043818 0.0189234 4.7666e-12 -4.70615e-11 1.17998e-11 0 1.42638e-08
121 3 0.001 0.00836249 0.00477905 0.0207462 1.96389e-11 -5.99359e-11 1.05644e-11 0 1.50312e-08
119 3 0.001 0.00858693 0.00453128 0.0195292 1.66296e-11 -5.16212e-11 1.16073e-11 0 1.45395e-08
120 3 0.001 0.00848056 0.00466393 0.020137 9.98821e-12 -4.5322e-11 8.13974e-12 0 1.4797e-08
122 3 0.001 0.00823248 0.00487604 0.0213561 1.93212e-11 -5.74682e-11 8.19421e-12 0 1.52373e-08
123 3 0.001 0.00809035 0.00495437 0.021966 2.01153e-11 -5.39169e-11 5.30942e-12 0 1.54109e-08
124 3 0.001 0.007936 0.00501362 0.022575 2.47704e-11 -6.38802e-11 6.3311e-12 0 1.55475e-08
125 3 0.001 0.00776942 0.00505346 0.0231824 2.77164e-11 -5.85267e-11 5.82888e-12 0 1.5642e-08
126 3 0.001 0.00759067 0.00507366 0.0237873 2.52863e-11 -5.79381e-11 4.04648e-12 0 1.56993e-08
127 3 0.001 0.00739988 0.0050741 0.0243888 3.19811e-11 -5.98822e-11 5.95238e-12 0 1.57303e-08
128 3 0.001 0.00719726 0.00505473 0.0249861 3.36243e-11 -6.2304e-11 4.01479e-12 0 1.57346e-08
130 3 0.001 0.00675765 0.00495681 0.0261649 3.40841e-11 -5.52754e-11 5.11856e-12 0 1.56214e-08
131 3 0.001 0.00652141 0.00487863 0.0267448 4.01027e-11 -6.24357e-11 5.43895e-12 0 1.55007e-08
129 3 0.001 0.00698307 0.00501559 0.0255784 2.84887e-11 -5.21951e-11 2.72892e-12 0 1.57006e-08
132 3 0.001 0.00627478 0.0047814 0.0273175 3.53989e-11 -4.75065e-11 5.47582e-12 0 1.53421e-08
133 3 0.001 0.00601825 0.00466556 0.0278824 2.59888e-11 -5.0029e-11 8.59673e-13 0 1.51491e-08
136 3 0.001 0.00519471 0.00421227 0.0295251 2.49454e-11 -3.98195e-11 3.32939e-12 0 1.44078e-08
135 3 0.001 0.00547765 0.00438033 0.0289865 3.9203e-11 -4.79183e-11 6.72291e-12 0 1.46771e-08
134 3 0.001 0.00575236 0.00453166 0.0284389 4.33672e-11 -5.38154e-11 7.49451e-12 0 1.49259e-08
137 3 0.001 0.00490411 0.00402826 0.0300543 4.34374e-11 -4.99911e-11 8.43621e-12 0 1.41234e-08
138 3 0.001 0.00460646 0.00382914 0.0305741 2.37258e-11 -3.72389e-11 1.47023e-12 0 1.38292e-08
139 3 0.001 0.00430234 0.00361581 0.0310844 3.82835e-11 -3.71134e-11 1.03872e-11 0 1.35306e-08
142 3 0.001 0.00335693 0.0029 0.0325604 2.76476e-11 -3.34236e-11 5.11942e-12 0 1.26593e-08
141 3 0.001 0.00367701 0.00315026 0.0320773 2.56704e-11 -2.94034e-11 6.57241e-12 0 1.29409e-08
140 3 0.001 0.00399233 0.00338919 0.0315854 2.99828e-11 -4.00975e-11 4.02564e-12 0 1.32329e-08
143 3 0.001 0.00303262 0.00263943 0.0330352 2.34693e-11 -2.58664e-11 5.40695e-12 0 1.23923e-08
144 3 0.001 0.00270459 0.00236957 0.0335023 2.30779e-11 -2.34481e-11 6.72299e-12 0 1.21438e-08
145 3 0.001 0.00237334 0.00209147 0.0339622 1.80825e-11 -2.3716e-11 2.40402e-12 0 1.19171e-08
148 3 0.001 0.00136478 0.00121802 0.0353065 1.2273e-11 -1.50374e-11 1.98817e-12 0 1.13946e-08
149 3 0.001 0.00102506 0.000917273 0.0357456 7.4857e-12 -8.12176e-12 1.51696e-12 0 1.10777e-08
147 3 0.001 0.001703 0.00151465 0.0348635 1.21467e-11 -1.19568e-11 4.51524e-12 0 1.15402e-08
146 3 0.001 0.00203933 0.00180615 0.0344157 1.98641e-11 -2.06138e-11 5.57351e-12 0 1.17151e-08
150 3 0.001 0.000684216 0.000613435 0.0361818 7.03265e-12 -6.33852e-12 2.75464e-12 0 7.70534e-09
151 3 0.001 0.00034229 0.00030723 0.0366164 3.29036e-12 -4.92485e-12 4.5698e-13 0 4.57399e-09
2 2 0.001 0 0 0.03705 -0.00446556 -0.000470197 0.0130787 0 2.28169e-09
