ITEM: TIMESTEP
3700000
ITEM: NUMBER OF ATOMS
151
ITEM: BOX BOUNDS ff ff ff
-1.0000000000000000e-02 1.0000000000000000e-02
-6.0000000000000001e-03 6.0000000000000001e-03
-5.2499999999999998e-02 5.2499999999999998e-02
ITEM: ATOMS id type radius x y z fx fy fz c_bendingE c_stretchingE
3 3 0.001 0.000401859 0.000224025 -0.0470675 -4.71773e-05 7.24146e-05 5.69388e-06 0 1.04797e-08
1 1 0.001 0 0 -0.0475 -0.00581831 -0.00328036 -0.0154671 0 5.23316e-09
4 3 0.001 0.000802923 0.000447613 -0.046634 4.06178e-05 -9.65608e-05 1.20287e-05 0 1.48799e-08
5 3 0.001 0.00120199 0.000670084 -0.046199 -3.59631e-05 0.000116656 -2.57958e-05 0 1.95945e-08
6 3 0.001 0.00159865 0.000891221 -0.0457613 4.37339e-05 -0.000120715 2.14133e-05 0 1.99903e-08
7 3 0.001 0.00199215 0.00111058 -0.0453198 -3.50136e-05 8.87928e-05 -1.37098e-05 0 2.01419e-08
8 3 0.001 0.00238166 0.00132773 -0.0448737 3.81344e-05 -7.01587e-05 7.07068e-07 0 2.03222e-08
9 3 0.001 0.0027664 0.00154221 -0.0444223 -4.60446e-05 6.08831e-05 1.07775e-05 0 2.05262e-08
10 3 0.001 0.00314555 0.00175357 -0.0439647 1.98436e-05 -3.44e-05 -4.58389e-07 0 2.07509e-08
11 3 0.001 0.00351831 0.00196137 -0.0435003 2.027e-05 -4.00771e-06 -1.42465e-05 0 2.09934e-08
12 3 0.001 0.00388386 0.00216516 -0.0430285 -4.75618e-05 6.04986e-05 1.07191e-05 0 2.12484e-08
13 3 0.001 0.00424141 0.00236448 -0.0425487 6.11468e-05 -0.000115049 1.98789e-06 0 2.15109e-08
14 3 0.001 0.00459017 0.0025589 -0.0420606 -6.20821e-05 0.000126634 -6.29309e-06 0 2.17759e-08
15 3 0.001 0.00492936 0.00274799 -0.0415637 4.5697e-05 -9.17567e-05 3.30631e-06 0 2.20378e-08
16 3 0.001 0.00525824 0.00293132 -0.0410578 -1.98546e-05 4.2722e-05 -2.26186e-06 0 2.22901e-08
17 3 0.001 0.00557606 0.00310849 -0.0405427 6.34857e-06 -1.77419e-05 2.98188e-06 0 2.25265e-08
18 3 0.001 0.00588216 0.00327912 -0.0400185 1.05939e-05 1.682e-06 -6.01232e-06 0 2.2743e-08
19 3 0.001 0.00617587 0.00344285 -0.039485 -3.47281e-05 2.43018e-05 1.03482e-05 0 2.29368e-08
20 3 0.001 0.00645661 0.00359934 -0.0389425 1.93432e-05 -3.52339e-07 -1.07668e-05 0 2.31031e-08
21 3 0.001 0.00672385 0.00374831 -0.0383911 1.96215e-05 -5.0994e-05 4.40415e-06 0 2.3235e-08
22 3 0.001 0.00697711 0.00388948 -0.0378312 -2.39025e-05 2.56896e-05 4.92674e-06 0 2.33281e-08
23 3 0.001 0.00721602 0.00402265 -0.037263 1.50281e-05 3.66607e-05 -1.3019e-05 0 2.33814e-08
24 3 0.001 0.00744025 0.00414763 -0.0366871 -1.8729e-05 -4.51438e-05 1.60992e-05 0 2.33966e-08
25 3 0.001 0.00764959 0.00426431 -0.0361039 1.72908e-05 5.61323e-06 -9.11294e-06 0 2.33752e-08
26 3 0.001 0.0078439 0.00437262 -0.0355139 -9.02226e-06 4.30334e-05 -5.24648e-06 0 2.33147e-08
27 3 0.001 0.00802314 0.00447252 -0.0349176 -1.58695e-05 -4.27608e-05 1.19356e-05 0 2.32128e-08
28 3 0.001 0.00818738 0.00456406 -0.0343157 5.24418e-05 -2.16026e-05 -8.51455e-06 0 2.30715e-08
29 3 0.001 0.00833678 0.00464732 -0.0337088 -5.87533e-05 7.06794e-05 6.08245e-06 0 2.28968e-08
30 3 0.001 0.00847158 0.00472244 -0.0330974 2.84438e-05 -8.65172e-05 2.10013e-06 0 2.26988e-08
31 3 0.001 0.00859213 0.00478962 -0.0324821 -1.09467e-05 0.000104437 -1.09566e-05 0 2.2482e-08
32 3 0.001 0.00869889 0.00484911 -0.0318634 3.09194e-05 -9.31066e-05 3.63943e-06 0 2.22443e-08
33 3 0.001 0.00879238 0.0049012 -0.0312419 -3.99226e-05 5.40954e-05 3.04083e-06 0 2.19879e-08
34 3 0.001 0.00887321 0.00494623 -0.0306181 1.00506e-05 -2.70862e-05 1.74579e-06 0 2.1722e-08
35 3 0.001 0.00894209 0.0049846 -0.0299924 8.85393e-06 1.06449e-07 -1.61086e-06 0 2.14569e-08
36 3 0.001 0.00899978 0.00501673 -0.0293652 7.26764e-06 2.78852e-05 -3.17221e-06 0 2.11978e-08
37 3 0.001 0.00904712 0.00504309 -0.0287368 -1.49852e-05 -3.89065e-05 2.03662e-06 0 2.09388e-08
38 3 0.001 0.00908501 0.00506417 -0.0281076 -8.04006e-06 3.57081e-05 3.79096e-07 0 2.0678e-08
39 3 0.001 0.00911437 0.00508049 -0.0274777 4.376e-05 -1.51105e-05 -2.13622e-08 0 2.04297e-08
40 3 0.001 0.00913617 0.00509257 -0.0268475 -6.45792e-05 1.16157e-05 9.16006e-07 0 2.02116e-08
41 3 0.001 0.00915132 0.00510091 -0.026217 3.11072e-05 -6.02185e-05 -1.75767e-06 0 2.00328e-08
42 3 0.001 0.00916073 0.00510601 -0.0255863 3.65445e-05 7.19918e-05 -4.86582e-07 0 1.98913e-08
43 3 0.001 0.00916525 0.00510832 -0.0249555 -6.55637e-05 -7.01889e-06 1.57029e-06 0 1.97834e-08
44 3 0.001 0.00916566 0.00510827 -0.0243247 3.92959e-05 -2.48468e-05 4.64869e-07 0 1.97084e-08
45 3 0.001 0.00916266 0.00510625 -0.023694 1.39334e-05 1.38495e-06 -4.21304e-07 0 1.96633e-08
46 3 0.001 0.00915689 0.00510261 -0.0230632 -6.25729e-05 2.37881e-05 -1.35445e-06 0 1.96415e-08
47 3 0.001 0.00914888 0.00509764 -0.0224325 7.77885e-05 -4.68876e-05 7.78905e-07 0 1.96346e-08
48 3 0.001 0.00913912 0.00509163 -0.0218018 -4.62565e-05 5.07014e-05 4.85211e-07 0 1.96367e-08
49 3 0.001 0.009128 0.00508479 -0.0211712 1.21809e-06 -3.83021e-05 -2.34026e-07 0 1.96452e-08
50 3 0.001 0.00911587 0.00507732 -0.0205405 1.16864e-05 4.15333e-05 2.37652e-07 0 1.96588e-08
51 3 0.001 0.009103 0.0050694 -0.0199099 2.05423e-06 -4.80885e-05 -9.96458e-07 0 1.96741e-08
52 3 0.001 0.00908961 0.00506114 -0.0192793 -1.16117e-05 7.95507e-05 1.04727e-06 0 1.96879e-08
53 3 0.001 0.00907588 0.00505266 -0.0186488 -2.20881e-05 -0.000173008 -2.3532e-06 0 1.9699e-08
54 3 0.001 0.00906196 0.00504405 -0.0180182 0.000173903 0.000415463 9.68878e-06 0 1.97081e-08
55 3 0.001 0.00904798 0.00503539 -0.0173876 -0.000296837 -0.000588752 -1.48917e-05 0 1.97157e-08
56 3 0.001 0.00903399 0.00502673 -0.0167571 0.000198258 0.000390841 9.49245e-06 0 1.97217e-08
57 3 0.001 0.00902012 0.00501814 -0.0161265 -7.87965e-05 -0.000134328 -3.83216e-06 0 1.97258e-08
58 3 0.001 0.00900641 0.00500966 -0.0154959 5.35076e-05 3.18229e-05 1.54088e-06 0 1.97281e-08
59 3 0.001 0.00899295 0.00500132 -0.0148653 -1.07607e-05 3.12565e-06 3.26648e-07 0 1.97287e-08
60 3 0.001 0.0089798 0.00499317 -0.0142347 -3.05196e-05 -5.07744e-07 8.13924e-09 0 1.97283e-08
61 3 0.001 0.00896701 0.00498525 -0.0136041 1.91297e-05 -1.02028e-05 1.13712e-08 0 1.9729e-08
62 3 0.001 0.00895465 0.00497759 -0.0129735 -3.95623e-06 3.28576e-05 -7.41151e-07 0 1.97319e-08
63 3 0.001 0.00894278 0.00497024 -0.0123429 1.94237e-05 -5.14344e-05 -6.6585e-07 0 1.97351e-08
64 3 0.001 0.00893146 0.00496323 -0.0117122 -3.09834e-05 5.25983e-05 9.70612e-07 0 1.97359e-08
65 3 0.001 0.00892075 0.0049566 -0.0110816 1.89838e-05 -3.0274e-05 1.10332e-06 0 1.97347e-08
66 3 0.001 0.00891068 0.00495036 -0.0104509 5.91599e-06 -5.28305e-06 -1.89043e-07 0 1.9735e-08
67 3 0.001 0.00890132 0.00494456 -0.00982023 -1.32215e-05 9.13159e-06 -1.32364e-06 0 1.97382e-08
68 3 0.001 0.00889271 0.00493923 -0.00918953 3.56733e-06 1.83673e-05 -3.97192e-07 0 1.97419e-08
69 3 0.001 0.00888488 0.00493438 -0.00855882 -5.74035e-06 -1.26486e-05 5.71128e-07 0 1.9743e-08
70 3 0.001 0.00887788 0.00493005 -0.00792809 1.4127e-05 -1.9716e-05 9.74975e-07 0 1.97422e-08
71 3 0.001 0.00887175 0.00492625 -0.00729735 -2.35156e-05 1.92826e-05 -2.00182e-07 0 1.97423e-08
72 3 0.001 0.0088665 0.00492299 -0.0066666 2.6072e-05 3.74142e-06 -7.31149e-07 0 1.97448e-08
73 3 0.001 0.00886216 0.00492031 -0.00603584 1.01497e-05 -2.01628e-05 -4.78954e-07 0 1.97476e-08
74 3 0.001 0.00885877 0.00491821 -0.00540507 -4.08389e-05 2.33638e-05 6.92553e-07 0 1.97481e-08
75 3 0.001 0.00885632 0.00491669 -0.0047743 1.85332e-05 -2.14776e-06 1.21391e-06 0 1.97463e-08
76 3 0.001 0.00885484 0.00491578 -0.00414352 -4.05156e-06 -6.70079e-06 -1.69602e-07 0 1.97458e-08
77 3 0.001 0.00885433 0.00491547 -0.00351274 1.83591e-05 -2.59973e-05 -1.73957e-06 0 1.97488e-08
78 3 0.001 0.0088548 0.00491575 -0.00288196 -1.98414e-05 4.96172e-05 -1.33706e-06 0 1.97531e-08
79 3 0.001 0.00885624 0.00491664 -0.00225118 9.28875e-06 -3.81885e-05 1.28474e-06 0 1.97535e-08
80 3 0.001 0.00885864 0.00491813 -0.0016204 1.56371e-05 5.23429e-06 2.67094e-06 0 1.97485e-08
81 3 0.001 0.00886199 0.00492021 -0.000989635 -5.80946e-05 2.78876e-05 9.12312e-07 0 1.97442e-08
82 3 0.001 0.00886629 0.00492287 -0.000358874 7.24879e-05 -3.08795e-05 -3.19488e-06 0 1.97469e-08
83 3 0.001 0.0088715 0.0049261 0.000271877 -4.73351e-05 2.61737e-05 -2.46997e-06 0 1.97538e-08
84 3 0.001 0.0088776 0.00492988 0.000902617 8.91845e-06 -3.44499e-05 1.27301e-06 0 1.97557e-08
85 3 0.001 0.00888456 0.0049342 0.00153334 2.6965e-05 2.95702e-05 2.93906e-06 0 1.97495e-08
86 3 0.001 0.00889236 0.00493902 0.00216406 -3.18301e-05 -2.56543e-05 1.70339e-06 0 1.97433e-08
87 3 0.001 0.00890095 0.00494434 0.00279476 2.141e-05 3.39919e-05 -3.1965e-06 0 1.97448e-08
88 3 0.001 0.00891028 0.00495013 0.00342545 -1.31117e-05 -3.9989e-05 -1.99219e-06 0 1.97509e-08
89 3 0.001 0.00892033 0.00495635 0.00405612 -1.12036e-05 6.4819e-05 2.30444e-07 0 1.97529e-08
90 3 0.001 0.00893102 0.00496298 0.00468677 1.52244e-05 -6.80206e-05 3.06909e-06 0 1.97482e-08
91 3 0.001 0.00894233 0.00496998 0.00531741 1.24712e-05 -1.37653e-06 8.46653e-07 0 1.97432e-08
92 3 0.001 0.00895418 0.00497732 0.00594804 -1.77033e-05 6.95447e-05 -1.86272e-06 0 1.97433e-08
93 3 0.001 0.00896653 0.00498497 0.00657865 -1.03575e-06 -8.27783e-05 -6.08684e-07 0 1.97468e-08
94 3 0.001 0.00897931 0.00499289 0.00720925 6.16817e-06 5.83713e-05 -9.47344e-07 0 1.97488e-08
95 3 0.001 0.00899247 0.00500104 0.00783985 -2.83561e-06 -1.66056e-05 1.43835e-06 0 1.97473e-08
96 3 0.001 0.00900594 0.00500938 0.00847043 6.48988e-06 5.45628e-07 6.21506e-07 0 1.97446e-08
97 3 0.001 0.00901965 0.00501788 0.009101 -3.98493e-06 -1.21126e-05 -2.47296e-07 0 1.97434e-08
98 3 0.001 0.00903355 0.00502648 0.00973157 -2.20169e-05 3.58052e-05 -8.96303e-07 0 1.97427e-08
99 3 0.001 0.00904754 0.00503515 0.0103621 4.06418e-05 -5.43858e-05 -6.91897e-08 0 1.97395e-08
100 3 0.001 0.00906155 0.00504382 0.0109927 -1.60765e-05 2.80548e-05 9.44979e-07 0 1.97316e-08
101 3 0.001 0.0090755 0.00505244 0.0116233 4.45762e-06 -1.07672e-05 4.25307e-07 0 1.9721e-08
102 3 0.001 0.00908925 0.00506094 0.0122539 -2.67772e-05 4.80645e-05 -9.73353e-07 0 1.97107e-08
103 3 0.001 0.00910268 0.00506922 0.0128844 2.08938e-05 -6.82385e-05 -5.2893e-07 0 1.97004e-08
104 3 0.001 0.0091156 0.00507718 0.013515 -4.92791e-07 4.28718e-05 -1.4698e-07 0 1.96879e-08
105 3 0.001 0.00912779 0.00508468 0.0141457 -4.15225e-06 -2.36307e-05 1.57988e-06 0 1.96735e-08
106 3 0.001 0.00913897 0.00509155 0.0147763 1.89633e-05 1.06385e-05 -5.26197e-08 0 1.96625e-08
107 3 0.001 0.00914882 0.00509762 0.015407 -3.55563e-05 1.65016e-05 -5.8996e-07 0 1.96608e-08
108 3 0.001 0.00915692 0.00510264 0.0160377 3.87622e-05 -3.0229e-05 -1.08879e-06 0 1.96713e-08
109 3 0.001 0.00916281 0.00510634 0.0166685 -3.42994e-05 2.84518e-05 5.37982e-07 0 1.96959e-08
110 3 0.001 0.00916594 0.00510844 0.0172992 2.38999e-05 -2.88472e-05 9.35508e-07 0 1.97396e-08
111 3 0.001 0.00916568 0.00510857 0.01793 -8.76812e-06 1.06331e-05 2.19356e-07 0 1.98112e-08
112 3 0.001 0.00916133 0.00510635 0.0185608 -3.10787e-05 3.40007e-05 -7.9778e-07 0 1.99178e-08
113 3 0.001 0.0091521 0.00510136 0.0191914 7.15438e-05 -5.87321e-05 3.29318e-07 0 2.00627e-08
114 3 0.001 0.00913716 0.00509313 0.019822 -6.52591e-05 2.61368e-05 -1.62567e-06 0 2.02459e-08
115 3 0.001 0.00911559 0.00508118 0.0204522 3.72554e-05 2.47877e-05 2.12541e-06 0 2.04646e-08
116 3 0.001 0.00908648 0.00506499 0.0210821 -1.18764e-05 -3.83591e-05 -1.03344e-06 0 2.07106e-08
117 3 0.001 0.00904886 0.00504405 0.0217113 -2.05092e-05 3.01622e-05 1.25474e-07 0 2.09715e-08
118 3 0.001 0.00900179 0.00501785 0.0223397 4.12278e-05 -3.02454e-05 2.12739e-06 0 2.12348e-08
119 3 0.001 0.00894438 0.00498587 0.0229669 -3.83907e-05 3.39531e-05 -2.67447e-06 0 2.14999e-08
120 3 0.001 0.00887579 0.00494766 0.0235927 2.63649e-05 -3.67556e-05 -3.6317e-07 0 2.1769e-08
122 3 0.001 0.00870203 0.00485084 0.0248381 1.17591e-06 -1.07676e-05 2.6828e-07 0 2.22905e-08
121 3 0.001 0.00879524 0.00490278 0.0242166 -7.36792e-06 3.27331e-05 1.83772e-06 0 2.20348e-08
125 3 0.001 0.00834068 0.00464947 0.0266837 1.54227e-05 -8.07032e-05 -6.82757e-06 0 2.29614e-08
124 3 0.001 0.00847524 0.00472446 0.0260722 -7.54649e-06 5.66455e-05 4.46597e-06 0 2.27594e-08
123 3 0.001 0.00859555 0.0047915 0.0254568 -5.92236e-06 -2.14186e-05 -3.44204e-06 0 2.25334e-08
127 3 0.001 0.00802745 0.0044749 0.0278926 -4.62334e-07 -1.33458e-05 -1.52103e-06 0 2.32716e-08
126 3 0.001 0.0081915 0.00456633 0.0272907 -4.62119e-06 5.76296e-05 7.94144e-06 0 2.3133e-08
128 3 0.001 0.00784837 0.00437508 0.0284889 -4.93854e-06 3.75627e-06 -2.06433e-06 0 2.3377e-08
129 3 0.001 0.00765419 0.00426685 0.029079 6.45971e-06 -4.18783e-06 -1.686e-07 0 2.34469e-08
130 3 0.001 0.00744496 0.00415023 0.0296623 9.61577e-06 -3.20827e-05 -3.03845e-06 0 2.34752e-08
132 3 0.001 0.00698193 0.00389214 0.0308064 2.80421e-05 -0.000108226 -1.28997e-05 0 2.33995e-08
133 3 0.001 0.00672867 0.00375096 0.0313664 -2.01707e-05 5.98189e-05 4.25634e-06 0 2.33066e-08
131 3 0.001 0.0072208 0.00402528 0.0302383 -2.83081e-05 8.92618e-05 1.09808e-05 0 2.34581e-08
134 3 0.001 0.0064614 0.00360198 0.0319177 9.68809e-06 1.37764e-05 6.93298e-06 0 2.31809e-08
135 3 0.001 0.0061806 0.00344545 0.0324602 1.69785e-05 -5.72712e-05 -7.6709e-06 0 2.30196e-08
138 3 0.001 0.00526257 0.0029337 0.0340326 -7.36988e-05 9.05973e-05 -1.6528e-05 0 2.23629e-08
137 3 0.001 0.00558056 0.00311097 0.0335177 6.72456e-05 -9.04827e-05 1.19307e-05 0 2.26011e-08
136 3 0.001 0.00588678 0.00328167 0.0329935 -4.64841e-05 7.34434e-05 -1.09468e-06 0 2.28238e-08
140 3 0.001 0.0045941 0.00256106 0.035035 3.33448e-05 -2.8204e-05 1.2611e-05 0 2.18569e-08
139 3 0.001 0.00493351 0.00275027 0.0345383 3.386e-05 -3.79165e-05 4.9013e-06 0 2.21155e-08
141 3 0.001 0.0042451 0.00236651 0.035523 -6.28257e-05 4.19662e-05 -2.58219e-05 0 2.1588e-08
142 3 0.001 0.00388728 0.00216704 0.0360025 5.38663e-05 -3.51699e-05 2.8533e-05 0 2.13187e-08
143 3 0.001 0.00352144 0.0019631 0.036474 -4.04214e-05 4.45848e-05 -1.29557e-05 0 2.10607e-08
144 3 0.001 0.00314838 0.00175513 0.0369381 2.60088e-05 -3.77358e-05 8.59885e-07 0 2.08208e-08
145 3 0.001 0.00276891 0.00154359 0.0373953 -1.83126e-05 2.43442e-05 -5.60146e-06 0 2.05987e-08
147 3 0.001 0.00199398 0.00111159 0.038292 -1.67419e-05 3.09846e-05 2.59986e-06 0 2.02106e-08
148 3 0.001 0.00160013 0.000892029 0.0387331 -2.88215e-05 6.52439e-07 -2.52217e-05 0 2.00566e-08
146 3 0.001 0.00238384 0.00132892 0.0378464 2.5975e-05 -3.1737e-05 8.50671e-06 0 2.03937e-08
151 3 0.001 0.00040223 0.000224233 0.0400379 4.30108e-05 -3.31003e-05 2.20266e-05 0 1.05295e-08
150 3 0.001 0.00080367 0.000448022 0.0396049 -7.28296e-05 5.44956e-05 -4.02402e-05 0 1.49362e-08
149 3 0.001 0.0012031 0.000670697 0.0391704 7.05878e-05 -4.10859e-05 4.30826e-05 0 1.96592e-08
2 2 0.001 0 0 0.04047 -0.00586644 -0.00325559 0.0154854 0 5.25858e-09
