ITEM: TIMESTEP
8700000
ITEM: NUMBER OF ATOMS
151
ITEM: BOX BOUNDS ff ff ff
-1.0000000000000000e-02 1.0000000000000000e-02
-6.0000000000000001e-03 6.0000000000000001e-03
-5.2499999999999998e-02 5.2499999999999998e-02
ITEM: ATOMS id type radius x y z fx fy fz c_bendingE c_stretchingE
3 3 0.001 0.000451304 0.000321017 -0.0471962 6.52941e-12 1.86624e-13 -1.13308e-11 0 8.47403e-09
1 1 0.001 0 0 -0.0475 -0.00679544 -0.00228349 -0.0172369 0 4.21827e-09
4 3 0.001 0.000901923 0.000641044 -0.0468904 -8.27509e-12 3.33122e-12 8.3942e-12 0 1.25963e-08
5 3 0.001 0.00135069 0.000958751 -0.0465809 5.97915e-12 -7.40133e-12 -2.55822e-12 0 1.70935e-08
6 3 0.001 0.00179732 0.00127344 -0.0462653 -9.12797e-12 1.18175e-11 9.66702e-13 0 1.77129e-08
7 3 0.001 0.00224106 0.00158409 -0.0459419 1.93654e-11 -2.2027e-11 -5.78006e-12 0 1.81749e-08
8 3 0.001 0.00268109 0.00188962 -0.0456087 -3.15511e-11 4.05507e-11 2.94472e-12 0 1.87295e-08
9 3 0.001 0.00311649 0.00218895 -0.0452641 3.1069e-11 -4.57591e-11 -1.30615e-12 0 1.93696e-08
10 3 0.001 0.00354631 0.00248092 -0.0449064 -4.39716e-11 5.64068e-11 3.79126e-12 0 2.00862e-08
11 3 0.001 0.00396949 0.00276437 -0.0445344 6.85759e-11 -7.73735e-11 -2.00277e-11 0 2.08682e-08
12 3 0.001 0.0043849 0.0030381 -0.0441468 -9.06346e-11 9.86031e-11 2.62237e-11 0 2.17019e-08
13 3 0.001 0.00479134 0.00330088 -0.0437425 6.03344e-11 -6.96164e-11 -1.8224e-11 0 2.25713e-08
14 3 0.001 0.00518754 0.00355148 -0.0433207 -1.52877e-11 1.90249e-11 6.09729e-13 0 2.3458e-08
15 3 0.001 0.00557219 0.00378866 -0.042881 -1.12254e-11 5.94145e-12 5.53545e-12 0 2.43418e-08
16 3 0.001 0.00594391 0.00401123 -0.042423 -1.43126e-11 2.19031e-11 -1.49435e-12 0 2.52008e-08
17 3 0.001 0.00630135 0.004218 -0.0419466 3.11401e-11 -4.23532e-11 -7.2085e-12 0 2.60121e-08
18 3 0.001 0.00664313 0.00440785 -0.0414522 -3.62098e-11 3.23969e-11 1.01052e-11 0 2.67528e-08
19 3 0.001 0.00696793 0.00457977 -0.04094 6.75146e-12 -1.57332e-12 -5.12108e-12 0 2.74012e-08
20 3 0.001 0.00727446 0.00473282 -0.040411 -8.78826e-13 -9.79389e-12 2.26443e-12 0 2.79369e-08
21 3 0.001 0.00756155 0.00486619 -0.0398659 -3.40531e-11 3.42998e-11 8.40143e-12 0 2.8343e-08
22 3 0.001 0.00782814 0.00497921 -0.0393061 3.25877e-11 -4.48892e-11 -9.20697e-12 0 2.86059e-08
23 3 0.001 0.0080733 0.00507138 -0.0387329 -2.51094e-11 2.43015e-11 6.09769e-12 0 2.86934e-08
24 3 0.001 0.00829628 0.00514237 -0.0381477 -9.11253e-12 2.35086e-12 2.82071e-12 0 2.85862e-08
25 3 0.001 0.00849653 0.00519198 -0.0375521 -2.36685e-11 1.56517e-11 6.87929e-12 0 2.83342e-08
26 3 0.001 0.00867368 0.00522014 -0.0369479 2.86786e-11 -4.60942e-11 -6.72882e-12 0 2.80182e-08
27 3 0.001 0.00882757 0.00522684 -0.0363367 -5.67856e-11 5.72169e-11 1.39238e-11 0 2.7697e-08
28 3 0.001 0.00895825 0.0052121 -0.0357202 5.67292e-12 -1.17102e-11 -1.50111e-12 0 2.73912e-08
29 3 0.001 0.00906598 0.00517598 -0.0351002 -8.37813e-12 -1.72248e-11 1.72578e-12 0 2.7056e-08
30 3 0.001 0.00915121 0.00511858 -0.0344783 5.38618e-12 -9.91987e-12 -1.17428e-12 0 2.66079e-08
31 3 0.001 0.00921457 0.00504004 -0.0338561 -5.97839e-11 5.2065e-11 1.44225e-11 0 2.60238e-08
32 3 0.001 0.00925679 0.00494064 -0.033235 5.38683e-12 -2.51072e-11 -3.05988e-12 0 2.53838e-08
33 3 0.001 0.00927861 0.00482076 -0.0326164 4.00343e-12 -1.6984e-11 -2.32378e-12 0 2.47912e-08
34 3 0.001 0.00928079 0.00468092 -0.0320016 -6.39515e-11 5.74342e-11 1.51787e-11 0 2.42957e-08
36 3 0.001 0.00922889 0.0043441 -0.0307878 -7.37335e-11 6.01518e-11 1.36714e-11 0 2.35673e-08
37 3 0.001 0.00917597 0.00414875 -0.0301906 1.00012e-11 -1.67463e-11 -3.39765e-12 0 2.32494e-08
35 3 0.001 0.00926401 0.00452178 -0.0313917 4.69303e-11 -6.7032e-11 -1.45548e-11 0 2.38982e-08
38 3 0.001 0.00910579 0.00393672 -0.0296009 -4.36565e-11 2.23664e-11 2.22992e-12 0 2.28832e-08
39 3 0.001 0.00901886 0.00370904 -0.0290193 4.50138e-11 -4.26048e-11 -1.03845e-11 0 2.24255e-08
42 3 0.001 0.00866379 0.00294366 -0.0273267 -2.94637e-11 2.41428e-11 1.24348e-13 0 2.07981e-08
40 3 0.001 0.00891577 0.00346685 -0.0284462 -8.41698e-11 6.64827e-11 1.23977e-11 0 2.18997e-08
41 3 0.001 0.00879717 0.00321131 -0.027882 3.58302e-11 -3.48683e-11 -1.23646e-11 0 2.1352e-08
45 3 0.001 0.00818331 0.00208043 -0.0257133 -2.29956e-11 3.33619e-11 -5.13678e-13 0 1.92152e-08
44 3 0.001 0.00835598 0.00237697 -0.0262426 6.09592e-12 4.37545e-12 -4.74937e-12 0 1.97191e-08
43 3 0.001 0.00851644 0.00266512 -0.0267803 6.1507e-12 -1.87297e-12 -6.73689e-12 0 2.02502e-08
47 3 0.001 0.00780513 0.00146721 -0.0246777 -3.05466e-11 4.49808e-11 -2.47855e-12 0 1.83236e-08
48 3 0.001 0.00760158 0.00115296 -0.0241699 2.45185e-11 1.926e-11 -5.53086e-13 0 1.79505e-08
46 3 0.001 0.00799937 0.00177677 -0.0251919 6.46041e-11 -4.30305e-11 -1.60615e-11 0 1.87474e-08
50 3 0.001 0.00717061 0.0005151 -0.0231701 -6.79121e-14 5.9589e-11 9.44647e-12 0 1.73776e-08
49 3 0.001 0.00738973 0.000835202 -0.0236677 7.3355e-11 -4.70187e-11 -2.32563e-11 0 1.76336e-08
51 3 0.001 0.00694524 0.000193788 -0.0226761 4.99897e-11 -3.19476e-11 -2.98568e-11 0 1.71858e-08
53 3 0.001 0.00648007 -0.000448055 -0.0216942 4.30377e-11 -3.06993e-11 -3.99536e-11 0 1.70039e-08
54 3 0.001 0.00624243 -0.000766477 -0.021204 1.23415e-10 4.17778e-12 1.76951e-11 0 1.70144e-08
52 3 0.001 0.0067147 -0.000127622 -0.0221845 6.24716e-11 4.58367e-11 2.23475e-11 0 1.70609e-08
57 3 0.001 0.00552194 -0.00169904 -0.0197228 8.66323e-11 -1.33092e-11 -1.97285e-11 0 1.74506e-08
55 3 0.001 0.00600283 -0.00108184 -0.0207129 -1.39174e-11 3.58337e-11 -3.14989e-11 0 1.70925e-08
56 3 0.001 0.0057623 -0.00139306 -0.0202195 1.52715e-10 -1.16123e-11 1.69671e-11 0 1.72384e-08
60 3 0.001 0.0048131 -0.00257504 -0.0182023 3.94923e-11 3.9618e-11 -1.86402e-11 0 1.84507e-08
59 3 0.001 0.0050462 -0.00229109 -0.0187152 2.02595e-10 -4.81215e-11 8.43386e-12 0 1.8061e-08
58 3 0.001 0.00528286 -0.00199874 -0.0192217 4.51977e-11 4.0208e-11 -9.52894e-12 0 1.7726e-08
62 3 0.001 0.00436229 -0.00311357 -0.0171543 1.73371e-10 -3.31107e-11 -1.94986e-12 0 1.93695e-08
63 3 0.001 0.00414693 -0.00336607 -0.0166179 1.00568e-10 1.9002e-11 -8.63713e-12 0 1.98833e-08
61 3 0.001 0.00458474 -0.00284955 -0.0176823 1.35138e-10 6.01252e-12 1.66538e-12 0 1.88892e-08
64 3 0.001 0.00393986 -0.00360603 -0.0160726 1.55511e-10 7.12849e-12 4.32276e-12 0 2.04212e-08
65 3 0.001 0.00374225 -0.00383246 -0.015518 1.43229e-10 -1.40864e-12 -7.0812e-12 0 2.09728e-08
68 3 0.001 0.00321772 -0.00442114 -0.013799 1.70464e-10 -5.90508e-13 1.84859e-13 0 2.25926e-08
66 3 0.001 0.00355527 -0.00404439 -0.0149542 1.86409e-10 -2.28928e-11 -1.12721e-13 0 2.15268e-08
67 3 0.001 0.00338006 -0.0042409 -0.0143811 1.40565e-10 1.68657e-11 -1.23055e-12 0 2.20709e-08
69 3 0.001 0.00306929 -0.00458431 -0.0132083 1.77911e-10 -5.81691e-12 -7.85855e-13 0 2.30795e-08
70 3 0.001 0.00293578 -0.0047297 -0.0126094 1.84299e-10 -3.56914e-12 3.07362e-13 0 2.35191e-08
72 3 0.001 0.002717 -0.0049648 -0.0113902 1.70172e-10 1.82368e-11 1.67346e-12 0 2.42122e-08
71 3 0.001 0.00281807 -0.0048567 -0.0120031 1.78461e-10 -6.41344e-12 -2.00817e-12 0 2.39001e-08
73 3 0.001 0.00263326 -0.00505361 -0.0107717 2.11405e-10 -2.53628e-11 6.22319e-13 0 2.44329e-08
74 3 0.001 0.00256747 -0.00512288 -0.0101485 1.77401e-10 1.03569e-11 3.90742e-13 0 2.4539e-08
75 3 0.001 0.00252008 -0.00517245 -0.00952171 2.00272e-10 -1.88213e-11 -4.69475e-13 0 2.45536e-08
76 3 0.001 0.00249144 -0.00520226 -0.00889258 1.67284e-10 3.33624e-11 6.48152e-13 0 2.4533e-08
77 3 0.001 0.00248176 -0.00521229 -0.00826224 2.27663e-10 -3.34347e-11 5.95437e-13 0 2.45212e-08
78 3 0.001 0.0024911 -0.00520254 -0.0076319 1.67942e-10 -9.50855e-13 1.15831e-12 0 2.45344e-08
79 3 0.001 0.00251941 -0.005173 -0.00700274 1.8382e-10 2.79335e-11 -1.36851e-12 0 2.45568e-08
80 3 0.001 0.00256647 -0.0051237 -0.00637595 2.18084e-10 -4.07713e-11 8.74596e-13 0 2.45448e-08
81 3 0.001 0.00263195 -0.00505471 -0.00575267 1.60217e-10 2.99536e-11 -2.75218e-13 0 2.44418e-08
82 3 0.001 0.00271537 -0.00496616 -0.00513402 2.01062e-10 -2.11036e-11 1.49486e-12 0 2.42241e-08
83 3 0.001 0.00281615 -0.00485832 -0.00452103 1.56643e-10 1.23246e-11 2.74153e-12 0 2.39145e-08
84 3 0.001 0.00293358 -0.00473157 -0.00391463 2.00907e-10 -1.41338e-12 -4.09251e-12 0 2.35356e-08
85 3 0.001 0.00306683 -0.00458642 -0.00331565 1.69534e-10 -1.75362e-11 5.46394e-12 0 2.30978e-08
86 3 0.001 0.00321501 -0.00442348 -0.00272477 1.47768e-10 2.16415e-11 -1.32763e-13 0 2.26126e-08
87 3 0.001 0.00337713 -0.00424345 -0.00214255 1.7849e-10 -8.75489e-12 4.56927e-13 0 2.2092e-08
88 3 0.001 0.00355214 -0.00404713 -0.00156935 1.31804e-10 1.05718e-11 6.88963e-12 0 2.15488e-08
89 3 0.001 0.00373894 -0.00383538 -0.00100541 1.98785e-10 -2.58345e-11 -4.64271e-12 0 2.09956e-08
90 3 0.001 0.00393639 -0.00360912 -0.000450774 9.7232e-11 2.22028e-11 1.14595e-11 0 2.04443e-08
91 3 0.001 0.00414333 -0.0033693 9.46759e-05 1.26636e-10 1.61305e-11 7.17305e-13 0 1.99064e-08
92 3 0.001 0.00435857 -0.00311693 0.000631212 1.83161e-10 -2.78572e-11 -2.61174e-12 0 1.93925e-08
93 3 0.001 0.00458094 -0.00285302 0.00115926 5.4585e-11 3.17204e-11 1.96736e-11 0 1.8912e-08
94 3 0.001 0.00480924 -0.0025786 0.00167941 1.64867e-10 -1.95542e-11 -4.99459e-12 0 1.84731e-08
95 3 0.001 0.00504229 -0.00229472 0.00219235 8.08198e-11 2.20354e-11 6.41673e-12 0 1.80829e-08
96 3 0.001 0.00527893 -0.00200243 0.00269891 8.22236e-11 2.03639e-12 1.55841e-11 0 1.77473e-08
97 3 0.001 0.00551801 -0.00170278 0.00320002 1.27911e-10 -3.40487e-12 -4.4867e-12 0 1.74712e-08
98 3 0.001 0.00575839 -0.00139682 0.0036967 4.9027e-11 1.35074e-11 1.92248e-11 0 1.72585e-08
99 3 0.001 0.00599895 -0.00108561 0.00419004 8.14911e-11 2.09466e-11 -4.89833e-12 0 1.7112e-08
100 3 0.001 0.00623862 -0.000770241 0.00468118 5.36821e-11 -1.42382e-11 2.71519e-11 0 1.70334e-08
101 3 0.001 0.00647633 -0.000451797 0.00517128 8.67901e-11 3.55787e-12 -3.08846e-12 0 1.70225e-08
102 3 0.001 0.00671106 -0.000131328 0.0056615 1.48348e-11 4.37164e-11 2.29805e-12 0 1.70793e-08
103 3 0.001 0.00694172 0.000190132 0.006153 4.70875e-11 -1.70899e-11 2.29362e-11 0 1.7204e-08
104 3 0.001 0.00716721 0.000511508 0.00664692 5.15763e-11 1.00027e-11 8.47846e-13 0 1.73958e-08
105 3 0.001 0.00738649 0.000831689 0.00714439 2.42206e-11 -9.7288e-13 1.60021e-11 0 1.7652e-08
106 3 0.001 0.00759851 0.00114954 0.00764645 -8.7205e-12 4.86919e-11 -5.18932e-12 0 1.79692e-08
107 3 0.001 0.00780224 0.0014639 0.00815409 4.88883e-11 -3.46329e-11 2.19688e-11 0 1.83429e-08
108 3 0.001 0.00799667 0.00177358 0.00866817 -2.23328e-11 4.07476e-11 -5.38679e-13 0 1.87676e-08
109 3 0.001 0.00818082 0.00207737 0.00918946 3.41974e-11 -1.53318e-11 1.02766e-11 0 1.92364e-08
110 3 0.001 0.00835371 0.00237405 0.0097186 -1.69979e-11 2.37366e-11 2.46978e-12 0 1.97416e-08
111 3 0.001 0.00851441 0.00266237 0.0102561 -1.85035e-11 6.69633e-12 8.70168e-12 0 2.02742e-08
112 3 0.001 0.008662 0.00294107 0.0108023 -1.25833e-12 1.19803e-11 -7.56349e-15 0 2.0824e-08
113 3 0.001 0.00879563 0.0032089 0.0113575 5.53543e-12 -9.58164e-12 8.35556e-12 0 2.13798e-08
114 3 0.001 0.0089145 0.00346463 0.0119216 -3.91558e-11 2.33036e-11 6.64975e-13 0 2.19297e-08
115 3 0.001 0.00901786 0.00370702 0.0124945 -1.64317e-11 1.26747e-11 -2.16023e-12 0 2.2458e-08
116 3 0.001 0.00910506 0.0039349 0.013076 4.69756e-13 -1.58673e-11 6.90086e-12 0 2.29186e-08
117 3 0.001 0.00917552 0.00414715 0.0136656 -3.37749e-11 2.03516e-11 -2.60995e-12 0 2.32871e-08
118 3 0.001 0.00922871 0.0043427 0.0142627 -1.42675e-12 -2.97115e-12 7.69613e-13 0 2.36066e-08
119 3 0.001 0.00926412 0.0045206 0.0148666 -6.05045e-11 3.25696e-11 -7.03457e-12 0 2.39385e-08
120 3 0.001 0.00928118 0.00467996 0.0154764 3.82182e-11 -4.09021e-11 8.1955e-12 0 2.43367e-08
121 3 0.001 0.00927929 0.00482001 0.0160911 -3.72885e-11 2.51706e-11 -6.53479e-12 0 2.48332e-08
122 3 0.001 0.00925774 0.0049401 0.0167096 -4.27395e-11 2.73542e-11 -7.08665e-12 0 2.54277e-08
123 3 0.001 0.00921581 0.00503971 0.0173307 1.931e-11 -3.65497e-11 6.39313e-12 0 2.60711e-08
124 3 0.001 0.00915273 0.00511844 0.017953 -2.28239e-11 1.86586e-11 -5.15341e-12 0 2.666e-08
125 3 0.001 0.00906777 0.00517604 0.0185749 -1.54136e-11 8.14141e-12 -3.22014e-12 0 2.71139e-08
126 3 0.001 0.0089603 0.00521234 0.0191949 -2.03812e-11 4.62955e-12 -4.01871e-12 0 2.74539e-08
127 3 0.001 0.00882986 0.00522726 0.0198114 9.21636e-12 -1.7648e-11 2.69145e-12 0 2.77637e-08
128 3 0.001 0.00867619 0.00522072 0.0204227 -2.42101e-11 1.97173e-11 -4.87383e-12 0 2.8089e-08
130 3 0.001 0.00829915 0.00514324 0.0216226 1.82428e-11 -1.79997e-11 6.04558e-12 0 2.86667e-08
131 3 0.001 0.00807629 0.00507238 0.0222078 -4.22873e-11 2.91515e-11 -1.2348e-11 0 2.87791e-08
129 3 0.001 0.00849923 0.00519272 0.021027 -1.09868e-11 -1.54022e-13 -2.39579e-12 0 2.84097e-08
132 3 0.001 0.00783123 0.00498031 0.0227811 8.09568e-12 -5.6829e-12 4.81883e-12 0 2.86956e-08
133 3 0.001 0.00756471 0.00486738 0.023341 1.48589e-11 -1.85107e-11 6.02626e-12 0 2.84353e-08
136 3 0.001 0.00664627 0.00440919 0.0249272 3.94326e-11 -6.68125e-11 4.97308e-12 0 2.6847e-08
135 3 0.001 0.0069711 0.00458108 0.0244151 -1.76383e-11 4.32111e-11 3.89437e-12 0 2.74957e-08
134 3 0.001 0.00727764 0.00473408 0.0238861 -2.74406e-11 8.98556e-12 -1.08995e-11 0 2.80309e-08
140 3 0.001 0.00519022 0.00355273 0.0267954 4.05925e-11 -2.62647e-11 2.38622e-11 0 2.3543e-08
137 3 0.001 0.00630441 0.00421934 0.0254217 -3.33394e-11 4.56634e-11 -2.79162e-12 0 2.6105e-08
138 3 0.001 0.00594687 0.00401256 0.0258979 2.0674e-11 -2.41049e-11 8.5691e-12 0 2.52916e-08
139 3 0.001 0.00557502 0.00378997 0.0263558 -4.2828e-11 3.41851e-11 -1.74973e-11 0 2.443e-08
143 3 0.001 0.00397161 0.00276541 0.0280083 -1.64679e-11 2.52044e-11 2.20443e-12 0 2.09422e-08
141 3 0.001 0.00479385 0.00330207 0.0272169 -2.20809e-11 1.10177e-11 -1.23294e-11 0 2.26527e-08
142 3 0.001 0.00438722 0.00303922 0.027621 1.36067e-11 -1.2889e-11 8.41715e-12 0 2.17796e-08
148 3 0.001 0.0017983 0.00127393 0.0297373 6.61391e-12 4.37078e-13 1.20615e-11 0 1.7772e-08
147 3 0.001 0.00224228 0.0015847 0.0294143 -2.28051e-11 2.6874e-11 -3.78371e-12 0 1.82362e-08
144 3 0.001 0.00354821 0.00248186 0.02838 8.20161e-12 -2.39122e-11 -7.41664e-12 0 2.01566e-08
145 3 0.001 0.00311817 0.00218978 0.0287373 -1.33549e-11 3.33955e-11 1.25864e-11 0 1.94365e-08
146 3 0.001 0.00268254 0.00189035 0.0290815 2.54643e-11 -4.00398e-11 -1.92779e-12 0 1.87934e-08
151 3 0.001 0.000451549 0.000321141 0.0306667 6.37413e-12 -1.59529e-11 -8.12996e-12 0 8.5133e-09
2 2 0.001 0 0 0.03097 -0.00681571 -0.00229541 0.0172656 0 4.23786e-09
149 3 0.001 0.00135142 0.000959123 0.0300524 3.71674e-12 -1.83199e-11 -1.25064e-11 0 1.71503e-08
150 3 0.001 0.000902413 0.000641293 0.0303614 -7.45127e-12 2.38916e-11 1.33377e-11 0 1.26438e-08
