ITEM: TIMESTEP
2800000
ITEM: NUMBER OF ATOMS
151
ITEM: BOX BOUNDS ff ff ff
-1.0000000000000000e-02 1.0000000000000000e-02
-6.0000000000000001e-03 6.0000000000000001e-03
-5.2499999999999998e-02 5.2499999999999998e-02
ITEM: ATOMS id type radius x y z fx fy fz c_bendingE c_stretchingE
3 3 0.001 0.000327891 0.000182537 -0.0469911 -2.86181e-05 5.6088e-05 -1.93567e-06 0 3.16375e-09
1 1 0.001 0 0 -0.0475 -0.00297437 -0.00167266 -0.0103628 0 1.5809e-09
4 3 0.001 0.000655308 0.000364812 -0.0464818 5.36951e-05 -9.54509e-05 -4.06672e-07 0 5.84478e-09
5 3 0.001 0.000981442 0.000546367 -0.0459722 -5.31878e-05 8.25944e-05 4.7442e-06 0 8.71074e-09
6 3 0.001 0.00130614 0.000727125 -0.0454615 2.03522e-05 -4.26812e-05 1.99595e-06 0 8.90971e-09
7 3 0.001 0.00162894 0.000906831 -0.0449492 7.58494e-06 1.28969e-05 -9.50411e-06 0 8.9367e-09
8 3 0.001 0.00194939 0.00108523 -0.044435 -1.68114e-05 1.48321e-05 5.65953e-06 0 8.96865e-09
9 3 0.001 0.00226702 0.00126205 -0.0439185 2.16984e-05 -4.37744e-05 2.32679e-06 0 9.00481e-09
10 3 0.001 0.00258136 0.00143704 -0.0433993 -1.37184e-05 6.01593e-05 -1.17017e-05 0 9.04557e-09
11 3 0.001 0.00289196 0.00160995 -0.0428773 -1.31563e-05 -3.02052e-05 1.64713e-05 0 9.09162e-09
12 3 0.001 0.00319836 0.00178052 -0.042352 4.60984e-05 -4.47023e-05 -1.34678e-05 0 9.14195e-09
13 3 0.001 0.00350012 0.00194851 -0.0418232 -5.62212e-05 9.50235e-05 2.7091e-06 0 9.19361e-09
14 3 0.001 0.00379679 0.00211366 -0.0412906 3.29102e-05 -9.00034e-05 1.11231e-05 0 9.24522e-09
15 3 0.001 0.00408795 0.00227575 -0.0407541 -1.53307e-05 7.28767e-05 -1.29922e-05 0 9.29835e-09
16 3 0.001 0.00437317 0.00243453 -0.0402134 1.92536e-05 -4.86417e-05 2.80013e-06 0 9.35446e-09
17 3 0.001 0.00465206 0.00258978 -0.0396684 -7.92389e-06 -1.23835e-05 5.68361e-06 0 9.4122e-09
18 3 0.001 0.0049242 0.00274127 -0.039119 -2.77326e-05 6.64407e-05 -4.27193e-06 0 9.46781e-09
19 3 0.001 0.00518924 0.00288881 -0.0385651 4.79766e-05 -6.68304e-05 -2.88246e-06 0 9.51885e-09
20 3 0.001 0.0054468 0.00303219 -0.0380065 -4.15156e-05 4.27648e-05 8.99081e-06 0 9.56705e-09
21 3 0.001 0.00569654 0.00317121 -0.0374433 3.07744e-05 -2.8176e-05 -7.86315e-06 0 9.61488e-09
22 3 0.001 0.00593815 0.00330571 -0.0368755 -1.90359e-05 3.21501e-05 -1.07242e-06 0 9.66113e-09
23 3 0.001 0.00617133 0.00343551 -0.0363032 5.31918e-06 -3.33736e-05 5.00884e-06 0 9.70222e-09
24 3 0.001 0.00639581 0.00356046 -0.0357262 1.98695e-05 -1.8334e-05 -2.50344e-06 0 9.73606e-09
25 3 0.001 0.00661134 0.00368044 -0.0351449 -5.67074e-05 0.000100148 1.55258e-06 0 9.76329e-09
26 3 0.001 0.00681772 0.00379532 -0.0345592 6.7937e-05 -0.00012339 8.00878e-08 0 9.78582e-09
27 3 0.001 0.00701477 0.003905 -0.0339693 -5.72854e-05 8.83882e-05 1.47419e-06 0 9.80405e-09
28 3 0.001 0.00720232 0.00400939 -0.0333753 4.96696e-05 -4.57363e-05 -7.85971e-06 0 9.81613e-09
29 3 0.001 0.00738028 0.00410844 -0.0327775 -1.98412e-05 -5.33132e-06 6.9402e-06 0 9.82045e-09
30 3 0.001 0.00754855 0.0042021 -0.0321761 -2.22099e-05 4.55815e-05 -5.52508e-07 0 9.81734e-09
31 3 0.001 0.0077071 0.00429035 -0.0315712 4.51705e-05 -5.34618e-05 -3.50121e-06 0 9.80755e-09
32 3 0.001 0.00785592 0.00437318 -0.030963 -4.77747e-05 3.67575e-05 6.23317e-06 0 9.79179e-09
33 3 0.001 0.00799504 0.0044506 -0.0303519 7.58644e-06 1.39894e-05 -3.82774e-06 0 9.77035e-09
34 3 0.001 0.00812452 0.00452267 -0.029738 5.0148e-05 -7.60596e-05 -1.24076e-06 0 9.74258e-09
35 3 0.001 0.00824447 0.00458942 -0.0291215 -6.50148e-05 9.95571e-05 2.24829e-06 0 9.70865e-09
36 3 0.001 0.00835504 0.00465096 -0.0285028 4.19758e-05 -7.09324e-05 -5.59032e-07 0 9.67006e-09
37 3 0.001 0.00845641 0.00470736 -0.027882 -1.57092e-05 3.28214e-05 -1.0246e-06 0 9.62795e-09
38 3 0.001 0.00854879 0.00475877 -0.0272594 2.76811e-06 -1.96298e-05 6.73065e-07 0 9.58231e-09
39 3 0.001 0.00863243 0.0048053 -0.0266351 1.44841e-05 -1.18112e-05 -5.37974e-07 0 9.53249e-09
40 3 0.001 0.00870762 0.00484713 -0.0260094 -3.74334e-05 6.35303e-05 1.18204e-06 0 9.47899e-09
41 3 0.001 0.00877467 0.00488443 -0.0253825 4.26534e-05 -7.494e-05 3.8618e-08 0 9.42409e-09
42 3 0.001 0.00883393 0.0049174 -0.0247546 -3.71909e-05 5.73959e-05 -4.48103e-07 0 9.3698e-09
43 3 0.001 0.00888578 0.00494624 -0.0241258 2.95404e-05 -5.33065e-05 -8.20486e-07 0 9.31608e-09
44 3 0.001 0.00893062 0.00497117 -0.0234963 -2.97159e-05 7.61364e-05 -4.72938e-07 0 9.2618e-09
45 3 0.001 0.0089689 0.00499245 -0.0228663 4.45293e-05 -9.63767e-05 1.42343e-06 0 9.20731e-09
46 3 0.001 0.00900105 0.00501032 -0.0222357 -4.7549e-05 7.0248e-05 6.44201e-07 0 9.15466e-09
47 3 0.001 0.00902756 0.00502505 -0.0216049 3.75312e-05 -3.08254e-05 -1.10154e-06 0 9.10429e-09
48 3 0.001 0.00904893 0.00503691 -0.0209737 -4.15972e-05 1.57311e-05 4.5023e-07 0 9.05592e-09
49 3 0.001 0.00906566 0.00504619 -0.0203424 4.26117e-05 -9.70952e-06 -9.70372e-07 0 9.01056e-09
50 3 0.001 0.00907826 0.00505315 -0.019711 -1.4758e-05 -2.21303e-06 5.8738e-07 0 8.96967e-09
51 3 0.001 0.00908724 0.00505809 -0.0190794 -2.26803e-05 1.45337e-05 3.78415e-07 0 8.93484e-09
52 3 0.001 0.00909307 0.00506125 -0.0184479 3.55224e-05 -9.51004e-06 -1.50841e-08 0 8.90688e-09
53 3 0.001 0.00909621 0.00506289 -0.0178163 -1.75713e-05 -4.5144e-06 2.94012e-08 0 8.8858e-09
54 3 0.001 0.00909708 0.00506323 -0.0171846 5.14551e-06 1.81209e-05 -4.1278e-07 0 8.87123e-09
55 3 0.001 0.00909608 0.0050625 -0.016553 -6.08201e-06 -3.24988e-05 -4.84848e-07 0 8.86206e-09
56 3 0.001 0.00909355 0.00506088 -0.0159214 -1.15358e-05 3.0963e-05 2.19144e-07 0 8.85648e-09
57 3 0.001 0.00908982 0.00505856 -0.0152898 1.75922e-05 -1.06797e-05 8.15432e-07 0 8.85307e-09
58 3 0.001 0.00908516 0.00505569 -0.0146582 3.19082e-05 -2.73637e-05 4.67055e-07 0 8.85184e-09
59 3 0.001 0.00907983 0.00505241 -0.0140266 -0.000114324 8.62577e-05 -1.20083e-06 0 8.85332e-09
60 3 0.001 0.00907402 0.00504885 -0.013395 0.000213292 -0.000149391 2.58501e-07 0 8.85679e-09
61 3 0.001 0.00906794 0.0050451 -0.0127634 -0.000428831 0.000259607 -2.57369e-06 0 8.86012e-09
62 3 0.001 0.00906172 0.00504128 -0.0121318 0.00055808 -0.000320019 4.60876e-06 0 8.86192e-09
63 3 0.001 0.00905551 0.00503744 -0.0115003 -0.000334931 0.000191931 -1.46674e-06 0 8.86315e-09
64 3 0.001 0.0090494 0.00503366 -0.0108687 9.46325e-05 -4.62299e-05 6.2177e-08 0 8.86556e-09
65 3 0.001 0.0090435 0.00502999 -0.0102371 -2.38242e-05 -2.46681e-05 -1.3528e-06 0 8.86909e-09
66 3 0.001 0.00903788 0.00502649 -0.0096055 -2.26493e-05 7.31906e-05 6.71086e-08 0 8.87195e-09
67 3 0.001 0.0090326 0.00502319 -0.00897391 6.10754e-05 -9.02936e-05 7.61344e-07 0 8.87303e-09
68 3 0.001 0.0090277 0.00502012 -0.00834231 -6.85363e-05 9.45266e-05 4.11667e-07 0 8.87333e-09
69 3 0.001 0.00902324 0.00501731 -0.00771071 5.25889e-05 -8.9768e-05 -2.46263e-07 0 8.8742e-09
70 3 0.001 0.00901923 0.00501479 -0.0070791 -3.48485e-05 6.83493e-05 -3.01892e-07 0 8.8756e-09
71 3 0.001 0.00901572 0.00501257 -0.0064475 5.40069e-06 -3.48786e-05 -4.909e-08 0 8.87663e-09
72 3 0.001 0.00901271 0.00501066 -0.00581588 2.58355e-05 2.11757e-07 2.21674e-07 0 8.87714e-09
73 3 0.001 0.00901022 0.00500909 -0.00518427 -1.68626e-05 1.55852e-05 -2.29389e-07 0 8.87776e-09
74 3 0.001 0.00900827 0.00500785 -0.00455265 -3.02016e-05 -1.72246e-05 -2.88579e-07 0 8.87857e-09
75 3 0.001 0.00900687 0.00500696 -0.00392103 5.49241e-05 2.12603e-05 3.7067e-07 0 8.87895e-09
76 3 0.001 0.00900602 0.00500642 -0.00328941 -4.1965e-05 -3.59502e-05 3.71794e-07 0 8.87876e-09
77 3 0.001 0.00900572 0.00500623 -0.00265779 3.13307e-05 2.78586e-05 -1.06841e-08 0 8.87875e-09
78 3 0.001 0.00900599 0.0050064 -0.00202617 -2.6932e-05 4.71728e-05 -4.81428e-07 0 8.87947e-09
79 3 0.001 0.00900681 0.00500693 -0.00139454 1.6253e-05 -9.88317e-05 -1.61686e-07 0 8.88035e-09
80 3 0.001 0.00900818 0.0050078 -0.000762925 -1.58727e-06 6.00977e-05 1.4287e-07 0 8.88058e-09
81 3 0.001 0.0090101 0.00500902 -0.000131307 -9.17473e-06 -1.94914e-05 3.59743e-07 0 8.88032e-09
82 3 0.001 0.00901255 0.00501057 0.000500308 8.45336e-06 2.5132e-05 -9.66644e-08 0 8.88018e-09
83 3 0.001 0.00901554 0.00501246 0.00113192 -2.89183e-06 -3.59409e-05 5.5578e-08 0 8.88026e-09
84 3 0.001 0.00901903 0.00501466 0.00176353 -7.71132e-06 1.43412e-05 3.20707e-09 0 8.88023e-09
85 3 0.001 0.00902301 0.00501717 0.00239513 2.12852e-05 2.74579e-06 -3.37469e-07 0 8.88013e-09
86 3 0.001 0.00902746 0.00501997 0.00302673 -1.52497e-05 4.52091e-06 -1.92928e-07 0 8.88008e-09
87 3 0.001 0.00903233 0.00502303 0.00365833 -1.32463e-05 1.09793e-05 2.82356e-07 0 8.87946e-09
88 3 0.001 0.0090376 0.00502633 0.00428992 2.28673e-05 -1.43469e-05 6.38047e-07 0 8.87769e-09
89 3 0.001 0.00904322 0.00502983 0.00492151 2.47347e-05 -4.95314e-05 3.05903e-07 0 8.87561e-09
90 3 0.001 0.00904912 0.0050335 0.00555309 -0.000127431 0.00016839 -7.79118e-07 0 8.87471e-09
91 3 0.001 0.00905523 0.00503728 0.00618467 0.000405014 -0.000428796 -2.68562e-06 0 8.87485e-09
92 3 0.001 0.00906147 0.00504112 0.00681625 -0.000648983 0.000636912 2.85265e-06 0 8.87364e-09
93 3 0.001 0.00906769 0.00504497 0.00744783 0.000487339 -0.000501946 2.09837e-07 0 8.86957e-09
94 3 0.001 0.00907381 0.00504873 0.00807941 -0.000221926 0.000299992 1.61947e-06 0 8.86482e-09
95 3 0.001 0.00907966 0.00505232 0.008711 0.000102712 -0.000197894 -1.18124e-06 0 8.86336e-09
96 3 0.001 0.00908505 0.00505563 0.00934259 -5.05375e-05 0.000111206 -2.64731e-06 0 8.86598e-09
97 3 0.001 0.00908977 0.00505854 0.00997419 4.62972e-05 -7.32223e-05 -4.46711e-07 0 8.86932e-09
98 3 0.001 0.00909359 0.00506091 0.0106058 -4.69394e-05 6.99572e-05 2.33263e-06 0 8.8708e-09
99 3 0.001 0.00909622 0.00506258 0.0112374 3.63866e-05 -7.34361e-05 2.17854e-06 0 8.87318e-09
101 3 0.001 0.00909661 0.00506312 0.0125007 -6.26714e-06 -1.14393e-05 -2.51769e-06 0 8.90027e-09
100 3 0.001 0.00909734 0.00506339 0.011869 -1.61009e-05 6.30475e-05 -6.7589e-07 0 8.8822e-09
102 3 0.001 0.00909363 0.00506158 0.0131323 1.44388e-05 -4.00437e-05 -1.29918e-06 0 8.92481e-09
103 3 0.001 0.00908798 0.00505852 0.0137638 -7.66653e-06 3.62678e-05 1.51932e-06 0 8.95265e-09
104 3 0.001 0.00907921 0.00505371 0.0143954 -1.01117e-05 1.4298e-05 2.0635e-06 0 8.98452e-09
105 3 0.001 0.00906684 0.00504686 0.0150268 3.36044e-05 -7.1718e-05 5.19919e-08 0 9.02389e-09
106 3 0.001 0.00905036 0.00503772 0.0156582 -3.01153e-05 5.89263e-05 -1.5972e-06 0 9.07178e-09
107 3 0.001 0.00902926 0.00502601 0.0162893 2.56883e-07 1.5005e-05 -9.83784e-07 0 9.12437e-09
108 3 0.001 0.00900304 0.00501144 0.0169202 7.52472e-06 -5.02823e-05 -4.73137e-07 0 9.1765e-09
109 3 0.001 0.00897119 0.00499374 0.0175507 -1.98998e-06 6.05733e-05 3.42125e-06 0 9.22726e-09
110 3 0.001 0.00893323 0.00497264 0.0181808 2.73332e-05 -8.98847e-05 -6.99421e-07 0 9.27965e-09
111 3 0.001 0.0088887 0.00494787 0.0188103 -5.08486e-05 7.42654e-05 -2.12851e-06 0 9.33592e-09
113 3 0.001 0.00877824 0.00488644 0.0200671 3.06012e-05 -6.92479e-05 -3.18245e-07 0 9.45165e-09
112 3 0.001 0.00883718 0.00491922 0.0194392 1.92235e-05 7.91946e-06 6.2531e-07 0 9.39463e-09
114 3 0.001 0.00871152 0.00484932 0.020694 -4.01471e-05 6.96124e-05 1.44071e-06 0 9.50509e-09
116 3 0.001 0.00855334 0.0047613 0.0219441 -1.68893e-05 1.05093e-05 -2.79711e-06 0 9.60809e-09
115 3 0.001 0.00863666 0.00480766 0.0213198 2.75641e-05 -4.73026e-05 8.54138e-07 0 9.55659e-09
119 3 0.001 0.0082499 0.00459244 0.0238064 -3.59651e-05 5.82749e-05 9.98419e-07 0 9.74102e-09
117 3 0.001 0.00846126 0.00471007 0.0225668 -1.52975e-05 4.13311e-05 -2.77526e-07 0 9.65827e-09
118 3 0.001 0.00836019 0.00465382 0.0231876 5.23184e-05 -7.27883e-05 2.52909e-06 0 9.70316e-09
120 3 0.001 0.0081302 0.00452583 0.0244229 -2.16779e-06 -2.29133e-05 -2.80088e-06 0 9.77403e-09
121 3 0.001 0.00800095 0.0044539 0.0250369 -4.47683e-06 2.12529e-05 1.36279e-07 0 9.80405e-09
122 3 0.001 0.00786205 0.00437659 0.0256481 1.8384e-05 -3.9699e-05 -1.91364e-06 0 9.82918e-09
123 3 0.001 0.00771342 0.00429386 0.0262563 7.15709e-07 1.36769e-05 3.02523e-06 0 9.84599e-09
126 3 0.001 0.00720904 0.00401313 0.0280606 2.23634e-05 -2.57366e-05 1.16416e-06 0 9.85347e-09
124 3 0.001 0.00755503 0.00420571 0.0268613 -2.07251e-05 2.4497e-05 -2.28909e-07 0 9.85394e-09
125 3 0.001 0.00738689 0.00411212 0.0274628 4.55143e-06 -4.42198e-06 8.33467e-07 0 9.85578e-09
127 3 0.001 0.00702156 0.00390877 0.0286546 -7.40725e-06 2.18737e-06 -3.28539e-06 0 9.84583e-09
128 3 0.001 0.00682457 0.00379912 0.0292445 -1.0136e-05 3.51567e-05 3.39495e-06 0 9.83048e-09
129 3 0.001 0.0066182 0.00368425 0.0298302 4.9879e-06 -3.98166e-05 -5.23667e-06 0 9.80693e-09
130 3 0.001 0.00640264 0.00356426 0.0304115 -2.23567e-05 4.27387e-05 1.04523e-06 0 9.77698e-09
131 3 0.001 0.00617811 0.00343928 0.0309884 3.70576e-05 -6.97533e-05 -6.48397e-07 0 9.74217e-09
134 3 0.001 0.00545324 0.00303576 0.0326916 6.2328e-06 6.52909e-06 3.61908e-06 0 9.61345e-09
132 3 0.001 0.00594485 0.00330943 0.0315608 -2.37208e-05 7.55589e-05 7.67989e-06 0 9.70288e-09
133 3 0.001 0.00570313 0.00317487 0.0321285 5.8957e-06 -3.94214e-05 -7.4199e-06 0 9.65972e-09
135 3 0.001 0.0051955 0.00289229 0.03325 -9.71184e-06 1.97801e-06 -4.22701e-06 0 9.56381e-09
136 3 0.001 0.00493026 0.00274464 0.0338038 2.03482e-05 -1.80014e-05 6.07035e-06 0 9.51033e-09
139 3 0.001 0.00409323 0.00227868 0.0354384 -2.25113e-05 5.66226e-05 3.15447e-06 0 9.34458e-09
137 3 0.001 0.00465788 0.00259301 0.0343531 -2.33458e-05 4.542e-05 2.20832e-06 0 9.45423e-09
138 3 0.001 0.00437874 0.00243762 0.0348979 8.97488e-06 -5.57201e-05 -1.20574e-05 0 9.39846e-09
140 3 0.001 0.00380176 0.00211642 0.0359747 4.3905e-05 -5.80102e-05 6.05029e-06 0 9.29118e-09
141 3 0.001 0.00350475 0.00195108 0.036507 -3.07795e-05 6.07595e-05 3.01867e-06 0 9.23712e-09
142 3 0.001 0.00320265 0.0017829 0.0370355 7.31288e-06 -5.91114e-05 -1.38802e-05 0 9.18418e-09
145 3 0.001 0.00227014 0.00126378 0.0386011 7.11851e-05 -0.000128817 -6.18773e-07 0 9.05055e-09
144 3 0.001 0.00258489 0.00143899 0.0380823 -5.85997e-05 8.89203e-05 -6.45524e-06 0 9.09091e-09
143 3 0.001 0.00289587 0.00161212 0.0375605 2.12484e-05 4.56994e-06 1.36321e-05 0 9.13514e-09
146 3 0.001 0.00195209 0.00108672 0.0391173 -5.25085e-05 0.00010292 3.78791e-06 0 9.01336e-09
147 3 0.001 0.00163121 0.000908091 0.0396311 3.48587e-05 -5.94046e-05 1.67781e-06 0 8.98053e-09
148 3 0.001 0.00130796 0.000728139 0.040143 -1.81188e-05 5.74452e-06 -1.01013e-05 0 8.95405e-09
150 3 0.001 0.000656228 0.000365323 0.0411626 4.69211e-05 -6.12032e-05 8.71282e-06 0 5.88097e-09
149 3 0.001 0.000982818 0.000547132 0.0406534 -2.16143e-05 5.00851e-05 3.27699e-06 0 8.75574e-09
151 3 0.001 0.000328352 0.000182794 0.0416715 -2.66818e-05 2.7361e-05 -6.43896e-06 0 3.19094e-09
2 2 0.001 0 0 0.04218 -0.00298855 -0.00166898 0.0103928 0 1.59442e-09
