ITEM: TIMESTEP
1700000
ITEM: NUMBER OF ATOMS
151
ITEM: BOX BOUNDS ff ff ff
-1.0000000000000000e-02 1.0000000000000000e-02
-6.0000000000000001e-03 6.0000000000000001e-03
-5.2499999999999998e-02 5.2499999999999998e-02
ITEM: ATOMS id type radius x y z fx fy fz c_bendingE c_stretchingE
3 3 0.001 0.000212643 0.000118251 -0.0469152 -1.36659e-10 2.16979e-10 -1.95409e-12 0 1.07091e-12
1 1 0.001 0 0 -0.0475 -0.000682015 -0.000379455 -0.0040438 0 5.36478e-13
4 3 0.001 0.000425153 0.000236429 -0.0463304 6.93167e-11 -2.03115e-10 3.7893e-13 0 6.06459e-10
5 3 0.001 0.000637179 0.000354337 -0.0457461 -2.13532e-11 -4.72765e-11 -6.23737e-12 0 1.27712e-09
6 3 0.001 0.000848793 0.000472016 -0.0451616 -1.36049e-10 9.83202e-11 -1.05552e-12 0 1.34267e-09
7 3 0.001 0.00105988 0.000589401 -0.0445768 4.28503e-11 -2.3019e-10 -6.98964e-12 0 1.34331e-09
8 3 0.001 0.0012703 0.000706416 -0.0439918 -1.29588e-10 3.18021e-11 -4.55971e-12 0 1.34409e-09
9 3 0.001 0.00147992 0.00082299 -0.0434063 -1.28843e-10 -4.98058e-12 -5.15009e-12 0 1.345e-09
10 3 0.001 0.00168862 0.000939049 -0.0428205 -3.88396e-13 -2.59731e-10 -6.59594e-12 0 1.34604e-09
11 3 0.001 0.00189626 0.00105452 -0.0422341 -2.41697e-10 1.373e-10 -5.41517e-12 0 1.3472e-09
12 3 0.001 0.00210272 0.00116934 -0.0416472 8.41875e-11 -4.65923e-10 -7.57719e-12 0 1.34848e-09
13 3 0.001 0.00230787 0.00128342 -0.0410597 -3.80268e-10 3.02452e-10 -1.17431e-12 0 1.34987e-09
14 3 0.001 0.00251158 0.00139671 -0.0404715 4.34841e-11 -4.53011e-10 -6.58481e-12 0 1.35137e-09
15 3 0.001 0.00271373 0.00150912 -0.0398827 -3.08454e-10 1.27175e-10 -2.09993e-12 0 1.35297e-09
16 3 0.001 0.00291419 0.0016206 -0.0392931 6.27797e-11 -5.6724e-10 -1.68125e-12 0 1.35465e-09
17 3 0.001 0.00311284 0.00173108 -0.0387026 -5.52189e-10 5.16276e-10 -2.86032e-13 0 1.35642e-09
18 3 0.001 0.00330956 0.00184048 -0.0381114 2.0147e-10 -8.92124e-10 4.59034e-12 0 1.35826e-09
19 3 0.001 0.00350424 0.00194874 -0.0375192 -5.04332e-10 3.82859e-10 1.92676e-12 0 1.36017e-09
20 3 0.001 0.00369675 0.00205581 -0.0369261 1.96287e-11 -6.21408e-10 1.00613e-11 0 1.36214e-09
21 3 0.001 0.00388699 0.0021616 -0.0363321 -4.4129e-10 1.9619e-10 9.24177e-12 0 1.36415e-09
22 3 0.001 0.00407483 0.00226607 -0.0357371 -8.92053e-11 -4.69748e-10 1.35512e-11 0 1.3662e-09
23 3 0.001 0.00426018 0.00236915 -0.035141 -3.13163e-10 -1.00177e-10 1.83607e-11 0 1.36828e-09
24 3 0.001 0.00444292 0.00247078 -0.0345439 -2.46892e-10 -2.35021e-10 1.91389e-11 0 1.37037e-09
25 3 0.001 0.00462296 0.00257091 -0.0339457 -2.01281e-10 -3.54087e-10 2.56425e-11 0 1.37247e-09
26 3 0.001 0.00480018 0.00266947 -0.0333464 -4.15543e-10 1.21457e-11 2.76678e-11 0 1.37457e-09
27 3 0.001 0.0049745 0.00276642 -0.032746 -2.08471e-10 -4.02275e-10 3.51043e-11 0 1.37665e-09
28 3 0.001 0.00514581 0.0028617 -0.0321445 -2.93868e-10 -2.4604e-10 3.44417e-11 0 1.37871e-09
29 3 0.001 0.00531403 0.00295526 -0.0315419 -3.0677e-10 -2.72134e-10 4.17913e-11 0 1.38074e-09
30 3 0.001 0.00547907 0.00304705 -0.030938 -3.27705e-10 -2.45637e-10 4.55328e-11 0 1.38272e-09
31 3 0.001 0.00564085 0.00313703 -0.0303331 -3.82298e-10 -1.65191e-10 4.82607e-11 0 1.38465e-09
32 3 0.001 0.00579928 0.00322515 -0.0297269 -2.43543e-10 -4.5421e-10 5.54193e-11 0 1.38651e-09
33 3 0.001 0.00595429 0.00331136 -0.0291197 -3.78077e-10 -2.2396e-10 5.70292e-11 0 1.3883e-09
34 3 0.001 0.0061058 0.00339564 -0.0285112 -4.17426e-10 -1.66488e-10 6.13256e-11 0 1.39001e-09
35 3 0.001 0.00625375 0.00347793 -0.0279016 -2.45117e-10 -4.92503e-10 6.40282e-11 0 1.39163e-09
36 3 0.001 0.00639807 0.0035582 -0.0272909 -4.22265e-10 -2.02646e-10 6.80132e-11 0 1.39315e-09
37 3 0.001 0.0065387 0.00363643 -0.0266791 -4.45853e-10 -1.84714e-10 7.3132e-11 0 1.39457e-09
38 3 0.001 0.0066756 0.00371258 -0.0260661 -1.97041e-10 -6.26664e-10 7.35963e-11 0 1.39587e-09
39 3 0.001 0.0068087 0.00378662 -0.0254521 -5.95724e-10 7.17337e-11 7.58487e-11 0 1.39705e-09
40 3 0.001 0.00693796 0.00385852 -0.024837 -1.95328e-10 -6.6558e-10 7.8886e-11 0 1.3981e-09
41 3 0.001 0.00706335 0.00392827 -0.0242208 -5.56441e-10 -2.96872e-11 8.08022e-11 0 1.39903e-09
42 3 0.001 0.00718482 0.00399585 -0.0236036 -2.84479e-10 -5.1163e-10 8.00774e-11 0 1.39982e-09
43 3 0.001 0.00730234 0.00406123 -0.0229854 -4.45112e-10 -2.52423e-10 8.34367e-11 0 1.40047e-09
44 3 0.001 0.00741589 0.0041244 -0.0223662 -4.87191e-10 -1.58315e-10 8.15245e-11 0 1.40097e-09
45 3 0.001 0.00752546 0.00418535 -0.0217461 -1.75589e-10 -7.5106e-10 8.45413e-11 0 1.40133e-09
46 3 0.001 0.00763101 0.00424408 -0.0211251 -6.38537e-10 1.18446e-10 7.9412e-11 0 1.40155e-09
47 3 0.001 0.00773255 0.00430058 -0.0205032 -3.00716e-10 -5.15939e-10 8.17261e-11 0 1.40162e-09
48 3 0.001 0.00783006 0.00435483 -0.0198805 -4.4656e-10 -2.58851e-10 8.06198e-11 0 1.40154e-09
49 3 0.001 0.00792356 0.00440686 -0.0192569 -3.30218e-10 -4.27835e-10 7.62518e-11 0 1.40131e-09
50 3 0.001 0.00801303 0.00445665 -0.0186326 -4.8021e-10 -1.83161e-10 7.61252e-11 0 1.40094e-09
51 3 0.001 0.00809851 0.00450421 -0.0180076 -3.44334e-10 -4.08541e-10 7.37773e-11 0 1.40042e-09
52 3 0.001 0.00817999 0.00454956 -0.0173818 -4.21916e-10 -2.45055e-10 6.87213e-11 0 1.39977e-09
53 3 0.001 0.00825751 0.00459271 -0.0167554 -4.16486e-10 -2.65138e-10 6.78457e-11 0 1.39898e-09
54 3 0.001 0.00833109 0.00463366 -0.0161284 -2.64071e-10 -5.02881e-10 6.35725e-11 0 1.39805e-09
55 3 0.001 0.00840077 0.00467244 -0.0155008 -5.69322e-10 6.04205e-11 5.93127e-11 0 1.397e-09
56 3 0.001 0.00846657 0.00470908 -0.0148727 -1.58138e-10 -6.71428e-10 5.73555e-11 0 1.39583e-09
57 3 0.001 0.00852855 0.00474358 -0.014244 -5.30003e-10 4.60342e-11 5.1097e-11 0 1.39455e-09
58 3 0.001 0.00858676 0.00477599 -0.0136148 -2.14154e-10 -5.34722e-10 4.91405e-11 0 1.39315e-09
59 3 0.001 0.00864124 0.00480633 -0.0129853 -4.14275e-10 -1.25196e-10 4.48156e-11 0 1.39166e-09
60 3 0.001 0.00869205 0.00483463 -0.0123553 -3.8708e-10 -1.37686e-10 4.03133e-11 0 1.39008e-09
61 3 0.001 0.00873926 0.00486092 -0.011725 -1.57335e-10 -5.33416e-10 3.69924e-11 0 1.38842e-09
62 3 0.001 0.00878294 0.00488526 -0.0110943 -4.49038e-10 7.15229e-12 3.46184e-11 0 1.38668e-09
63 3 0.001 0.00882316 0.00490767 -0.0104633 -2.01293e-10 -3.78838e-10 2.97361e-11 0 1.38487e-09
64 3 0.001 0.00886 0.0049282 -0.00983204 -3.31213e-10 -1.25348e-10 2.68003e-11 0 1.38302e-09
65 3 0.001 0.00889353 0.00494689 -0.00920055 -2.73511e-10 -1.97044e-10 2.55154e-11 0 1.38112e-09
66 3 0.001 0.00892385 0.0049638 -0.00856885 -1.97241e-10 -2.97973e-10 2.19097e-11 0 1.37918e-09
67 3 0.001 0.00895105 0.00497897 -0.00793695 -3.05178e-10 -6.28912e-11 1.96976e-11 0 1.37723e-09
68 3 0.001 0.00897522 0.00499246 -0.0073049 -1.79009e-10 -2.69041e-10 1.8896e-11 0 1.37525e-09
69 3 0.001 0.00899646 0.00500432 -0.00667271 -2.04844e-10 -1.7855e-10 1.70175e-11 0 1.37327e-09
70 3 0.001 0.00901487 0.00501461 -0.0060404 -2.66868e-10 -3.45693e-11 1.63408e-11 0 1.37113e-09
71 3 0.001 0.00903057 0.00502339 -0.00540799 -1.07709e-10 -2.94321e-10 1.63644e-11 0 1.36869e-09
72 3 0.001 0.00904365 0.00503071 -0.00477551 -2.75166e-10 2.68708e-11 1.61438e-11 0 1.36604e-09
73 3 0.001 0.00905422 0.00503663 -0.00414296 -4.40643e-11 -3.34778e-10 1.58914e-11 0 1.36346e-09
74 3 0.001 0.00906238 0.00504121 -0.00351037 -2.58613e-10 3.36999e-11 1.64189e-11 0 1.36117e-09
75 3 0.001 0.0090682 0.00504447 -0.00287774 -1.23146e-10 -1.61845e-10 1.71913e-11 0 1.35941e-09
76 3 0.001 0.00907175 0.00504647 -0.00224509 -1.54534e-10 -1.00034e-10 1.84949e-11 0 1.35831e-09
77 3 0.001 0.00907307 0.0050472 -0.00161243 -1.17446e-10 -1.69621e-10 2.0158e-11 0 1.35797e-09
78 3 0.001 0.00907216 0.00504668 -0.000979764 -2.03875e-10 1.35085e-12 2.00173e-11 0 1.35844e-09
79 3 0.001 0.00906901 0.00504491 -0.000347111 -7.94975e-11 -2.33139e-10 2.07284e-11 0 1.35968e-09
80 3 0.001 0.0090636 0.00504187 0.000285522 -1.52232e-10 -1.03608e-10 2.2486e-11 0 1.36161e-09
81 3 0.001 0.00905586 0.00503752 0.000918123 -2.40049e-10 4.82423e-11 2.24997e-11 0 1.36409e-09
82 3 0.001 0.00904572 0.00503183 0.00155068 -7.54364e-11 -2.81347e-10 2.31726e-11 0 1.36692e-09
83 3 0.001 0.00903308 0.00502475 0.00218317 -1.84859e-10 -8.18473e-11 2.34443e-11 0 1.36986e-09
84 3 0.001 0.00901784 0.00501622 0.00281559 -1.90995e-10 -8.94914e-11 2.29462e-11 0 1.37263e-09
85 3 0.001 0.00899989 0.00500619 0.00344792 -1.94375e-10 -1.35465e-10 2.13202e-11 0 1.3751e-09
86 3 0.001 0.00897913 0.00499458 0.00408013 -1.45067e-10 -2.04913e-10 2.22486e-11 0 1.37737e-09
87 3 0.001 0.00895544 0.00498136 0.00471221 -2.92995e-10 2.14331e-12 1.8955e-11 0 1.37963e-09
88 3 0.001 0.00892873 0.00496645 0.00534413 -1.07251e-10 -3.43174e-10 1.84267e-11 0 1.38188e-09
89 3 0.001 0.00889891 0.00494982 0.00597586 -3.029e-10 -6.49102e-12 1.59619e-11 0 1.3841e-09
90 3 0.001 0.00886587 0.00493139 0.00660739 -2.25073e-10 -1.83875e-10 1.33606e-11 0 1.3863e-09
91 3 0.001 0.00882953 0.00491114 0.00723868 -2.03478e-10 -2.49061e-10 1.06954e-11 0 1.38845e-09
93 3 0.001 0.00874662 0.00486494 0.00850042 -2.15757e-10 -2.72708e-10 4.1738e-12 0 1.39259e-09
92 3 0.001 0.00878981 0.004889 0.0078697 -3.06204e-10 -6.83752e-11 7.85747e-12 0 1.39055e-09
94 3 0.001 0.0086999 0.00483891 0.00913081 -2.89933e-10 -1.64751e-10 1.11974e-12 0 1.39455e-09
95 3 0.001 0.00864957 0.00481087 0.00976083 -3.63451e-10 -2.46326e-11 -1.80832e-12 0 1.39644e-09
96 3 0.001 0.00859556 0.0047808 0.0103905 -1.09008e-10 -5.34271e-10 -6.32789e-12 0 1.39823e-09
97 3 0.001 0.00853783 0.00474865 0.0110197 -4.38773e-10 7.18425e-11 -8.5724e-12 0 1.39993e-09
98 3 0.001 0.00847631 0.0047144 0.0116484 -2.66187e-10 -2.77426e-10 -1.34709e-11 0 1.40151e-09
99 3 0.001 0.00841095 0.00467801 0.0122766 -2.91317e-10 -2.43653e-10 -1.64894e-11 0 1.40299e-09
100 3 0.001 0.00834171 0.00463947 0.0129043 -3.32088e-10 -1.5939e-10 -1.8675e-11 0 1.40434e-09
102 3 0.001 0.00819143 0.00455583 0.0141578 -3.73383e-10 -1.09025e-10 -2.48924e-11 0 1.40665e-09
103 3 0.001 0.00811033 0.0045107 0.0147836 -2.84084e-10 -2.94085e-10 -2.78367e-11 0 1.40761e-09
101 3 0.001 0.00826855 0.00459875 0.0135313 -2.77603e-10 -3.01614e-10 -2.3166e-11 0 1.40556e-09
104 3 0.001 0.00802523 0.00446333 0.0154087 -3.1321e-10 -2.39744e-10 -3.06632e-11 0 1.40842e-09
105 3 0.001 0.0079361 0.00441374 0.0160331 -3.61397e-10 -1.62473e-10 -3.2658e-11 0 1.40908e-09
107 3 0.001 0.00774572 0.00430781 0.0172795 -3.45836e-10 -1.94282e-10 -3.56261e-11 0 1.40997e-09
106 3 0.001 0.00784293 0.0043619 0.0166567 -2.92768e-10 -2.67785e-10 -3.22089e-11 0 1.4096e-09
108 3 0.001 0.00764447 0.00425147 0.0179015 -3.22581e-10 -2.31157e-10 -3.64861e-11 0 1.41019e-09
110 3 0.001 0.00742984 0.00413206 0.0191427 -3.38885e-10 -2.10179e-10 -3.81118e-11 0 1.41017e-09
109 3 0.001 0.00753917 0.00419289 0.0185225 -2.95568e-10 -2.56821e-10 -3.37859e-11 0 1.41025e-09
111 3 0.001 0.00731649 0.00406901 0.0197619 -2.9476e-10 -2.40432e-10 -3.36432e-11 0 1.40993e-09
112 3 0.001 0.00719915 0.00400373 0.0203801 -3.74551e-10 -1.1429e-10 -3.50085e-11 0 1.40955e-09
114 3 0.001 0.00695258 0.00386656 0.0216136 -4.40391e-10 4.7546e-11 -2.9364e-11 0 1.40837e-09
113 3 0.001 0.00707783 0.00393624 0.0209974 -2.02252e-10 -4.1913e-10 -3.41906e-11 0 1.40903e-09
115 3 0.001 0.00682341 0.00379471 0.0222287 -1.72914e-10 -4.54543e-10 -3.15141e-11 0 1.40757e-09
117 3 0.001 0.00655352 0.00364459 0.0234557 -3.57491e-10 -6.56639e-11 -2.29808e-11 0 1.40559e-09
116 3 0.001 0.00669038 0.00372071 0.0228428 -3.31395e-10 -1.49969e-10 -2.82429e-11 0 1.40664e-09
119 3 0.001 0.00626856 0.00348609 0.0246783 -4.26046e-10 6.78782e-11 -2.0169e-11 0 1.40313e-09
118 3 0.001 0.0064129 0.00356637 0.0240676 -1.44213e-10 -4.56545e-10 -2.17522e-11 0 1.40442e-09
120 3 0.001 0.00612056 0.00340377 0.0252879 -1.82204e-10 -3.53671e-10 -1.54039e-11 0 1.40175e-09
122 3 0.001 0.00581385 0.00323318 0.0265035 -2.63295e-10 -1.69078e-10 -8.26557e-12 0 1.39871e-09
121 3 0.001 0.00596896 0.00331945 0.0258963 -2.64319e-10 -1.83624e-10 -1.16729e-11 0 1.40027e-09
124 3 0.001 0.00549333 0.00305492 0.0277145 -2.70252e-10 -1.20312e-10 -9.4092e-13 0 1.39535e-09
125 3 0.001 0.00532809 0.00296301 0.0283182 -1.76627e-10 -2.72289e-10 2.15378e-12 0 1.39358e-09
123 3 0.001 0.00565528 0.00314499 0.0271096 -2.4765e-10 -1.87673e-10 -6.37941e-12 0 1.39706e-09
126 3 0.001 0.00515964 0.00286933 0.0289208 -2.58463e-10 -1.04404e-10 4.86059e-12 0 1.39177e-09
127 3 0.001 0.00498807 0.00277391 0.0295222 -2.34821e-10 -1.3781e-10 7.63819e-12 0 1.38992e-09
128 3 0.001 0.00481346 0.0026768 0.0301225 -1.31316e-10 -2.79178e-10 1.47174e-11 0 1.38804e-09
129 3 0.001 0.00463592 0.00257806 0.0307217 -2.98525e-10 1.26061e-11 1.30181e-11 0 1.38614e-09
130 3 0.001 0.00445555 0.00247775 0.0313197 -1.30974e-10 -2.49758e-10 1.72445e-11 0 1.38424e-09
131 3 0.001 0.00427243 0.00237591 0.0319167 -1.59715e-10 -1.77448e-10 2.1836e-11 0 1.38234e-09
132 3 0.001 0.00408669 0.00227262 0.0325126 -2.47858e-10 -1.02581e-11 2.1311e-11 0 1.38046e-09
133 3 0.001 0.00389842 0.00216792 0.0331074 -1.33624e-10 -1.91744e-10 2.32257e-11 0 1.3786e-09
134 3 0.001 0.00370774 0.00206188 0.0337013 -1.43315e-10 -1.3156e-10 2.87202e-11 0 1.37678e-09
135 3 0.001 0.00351476 0.00195456 0.0342941 -1.22306e-10 -1.66716e-10 2.70624e-11 0 1.37501e-09
136 3 0.001 0.00331959 0.00184602 0.0348861 -2.35767e-10 4.64523e-11 2.49234e-11 0 1.37329e-09
137 3 0.001 0.00312236 0.00173633 0.0354771 -4.30221e-11 -2.56604e-10 3.03683e-11 0 1.37164e-09
139 3 0.001 0.00272215 0.00151378 0.0366567 -1.61894e-10 -4.907e-12 2.90908e-11 0 1.36857e-09
140 3 0.001 0.00251943 0.00140104 0.0372453 -5.87907e-11 -1.70677e-10 2.76223e-11 0 1.36717e-09
138 3 0.001 0.00292317 0.00162556 0.0360673 -1.41631e-10 -5.77838e-11 2.9293e-11 0 1.37006e-09
141 3 0.001 0.00231513 0.00128743 0.0378332 -8.19557e-11 -1.04925e-10 2.68145e-11 0 1.36587e-09
142 3 0.001 0.00210938 0.00117301 0.0384204 -1.40174e-10 1.01703e-11 2.34188e-11 0 1.36467e-09
143 3 0.001 0.0019023 0.00105785 0.039007 -6.22911e-11 -7.54321e-11 2.77969e-11 0 1.36359e-09
144 3 0.001 0.00169402 0.000942031 0.0395931 -5.76633e-11 -8.04493e-11 2.24705e-11 0 1.36263e-09
145 3 0.001 0.00148467 0.000825614 0.0401786 -7.57396e-11 -3.37772e-11 1.81859e-11 0 1.3618e-09
146 3 0.001 0.00127439 0.000708677 0.0407637 -3.21954e-12 -1.30403e-10 1.81454e-11 0 1.3611e-09
147 3 0.001 0.0010633 0.000591293 0.0413485 -1.35221e-10 1.26847e-10 1.58334e-11 0 1.36053e-09
149 3 0.001 0.000639247 0.000355479 0.0425171 8.40454e-11 -2.29977e-10 6.96838e-12 0 1.29432e-09
150 3 0.001 0.000426535 0.000237192 0.0431011 -2.18878e-10 3.54621e-10 8.39278e-12 0 6.14665e-10
148 3 0.001 0.000851543 0.000473536 0.0419329 -7.39092e-12 -7.17626e-11 1.35018e-11 0 1.36011e-09
151 3 0.001 0.000213335 0.000118634 0.0436856 1.51343e-10 -2.99224e-10 2.15617e-12 0 6.23424e-13
2 2 0.001 0 0 0.04427 -0.000687443 -0.000382454 0.0040724 0 3.11254e-13
