ITEM: TIMESTEP
1400000
ITEM: NUMBER OF ATOMS
151
ITEM: BOX BOUNDS ff ff ff
-1.0000000000000000e-02 1.0000000000000000e-02
-6.0000000000000001e-03 6.0000000000000001e-03
-5.2499999999999998e-02 5.2499999999999998e-02
ITEM: ATOMS id type radius x y z fx fy fz c_bendingE c_stretchingE
3 3 0.001 0.000178948 0.000104747 -0.0469011 -1.4264e-11 -2.10887e-12 1.83197e-12 0 5.86981e-10
1 1 0.001 0 0 -0.0475 -3.73665e-05 -1.68134e-05 -0.00154028 0 2.93498e-10
4 3 0.001 0.00035782 0.00020945 -0.0463022 -1.38649e-11 2.22976e-12 -1.95483e-12 0 3.60227e-10
5 3 0.001 0.00053636 0.000313956 -0.0457038 -2.9121e-11 1.58384e-12 -7.99852e-14 0 1.55752e-10
6 3 0.001 0.000714665 0.000418321 -0.0451054 -3.76625e-11 -3.13375e-13 1.10714e-12 0 1.78051e-10
7 3 0.001 0.000892672 0.000522508 -0.0445068 -4.40206e-11 3.59959e-12 -1.25305e-12 0 1.78124e-10
8 3 0.001 0.0010703 0.00062647 -0.0439081 -5.79506e-11 2.09816e-13 1.04971e-12 0 1.78214e-10
9 3 0.001 0.00124749 0.000730164 -0.0433092 -7.00619e-11 -1.20154e-12 1.35139e-12 0 1.7832e-10
10 3 0.001 0.00142415 0.000833545 -0.0427102 -6.57775e-11 7.17968e-12 -3.07998e-12 0 1.78441e-10
11 3 0.001 0.00160021 0.000936569 -0.0421108 -8.85961e-11 -5.41645e-13 2.27255e-12 0 1.78579e-10
12 3 0.001 0.0017756 0.00103919 -0.0415112 -9.56602e-11 5.18255e-13 1.08532e-12 0 1.78731e-10
13 3 0.001 0.00195025 0.00114137 -0.0409114 -9.5823e-11 7.30259e-12 -1.96194e-12 0 1.78899e-10
14 3 0.001 0.00212408 0.00124305 -0.0403112 -1.09112e-10 3.12255e-12 -1.21453e-12 0 1.79082e-10
15 3 0.001 0.00229701 0.00134421 -0.0397106 -1.29778e-10 -2.44153e-12 4.50779e-12 0 1.7928e-10
16 3 0.001 0.00246898 0.00144478 -0.0391097 -1.21006e-10 8.28528e-12 -3.48903e-12 0 1.79491e-10
17 3 0.001 0.00263992 0.00154473 -0.0385083 -1.43319e-10 5.12934e-13 2.67478e-12 0 1.79717e-10
18 3 0.001 0.00280973 0.00164402 -0.0379066 -1.38771e-10 8.37253e-12 -2.41267e-12 0 1.79957e-10
19 3 0.001 0.00297837 0.00174261 -0.0373044 -1.57589e-10 2.79257e-12 2.68443e-13 0 1.8021e-10
20 3 0.001 0.00314575 0.00184044 -0.0367017 -1.74487e-10 -2.33564e-12 4.16941e-12 0 1.80476e-10
21 3 0.001 0.0033118 0.00193748 -0.0360985 -1.57738e-10 1.37899e-11 -5.14546e-12 0 1.80754e-10
22 3 0.001 0.00347645 0.00203368 -0.0354949 -1.88378e-10 -1.25478e-14 2.86921e-12 0 1.81045e-10
23 3 0.001 0.00363964 0.00212901 -0.0348906 -1.91136e-10 4.20731e-12 5.28722e-13 0 1.81347e-10
24 3 0.001 0.00380128 0.00222342 -0.0342859 -1.9415e-10 6.62659e-12 -1.26548e-12 0 1.8166e-10
25 3 0.001 0.00396131 0.00231686 -0.0336805 -2.10408e-10 3.1798e-12 2.13475e-12 0 1.81984e-10
26 3 0.001 0.00411966 0.00240931 -0.0330745 -2.10815e-10 6.98468e-12 -1.34442e-12 0 1.82318e-10
27 3 0.001 0.00427627 0.00250071 -0.032468 -2.21343e-10 5.56797e-12 -1.86206e-14 0 1.82662e-10
28 3 0.001 0.00443106 0.00259104 -0.0318608 -2.30452e-10 6.23438e-12 -4.91192e-13 0 1.83015e-10
29 3 0.001 0.00458396 0.00268024 -0.031253 -2.44135e-10 1.33113e-12 2.91599e-12 0 1.83376e-10
30 3 0.001 0.00473491 0.00276827 -0.0306445 -2.46269e-10 6.12727e-12 -4.33759e-13 0 1.83746e-10
31 3 0.001 0.00488384 0.00285511 -0.0300353 -2.44864e-10 1.04342e-11 -2.33662e-12 0 1.84122e-10
32 3 0.001 0.00503069 0.00294071 -0.0294255 -2.64039e-10 4.06412e-12 7.19702e-13 0 1.84506e-10
33 3 0.001 0.00517539 0.00302503 -0.0288149 -2.74756e-10 2.25738e-12 3.11472e-12 0 1.84895e-10
34 3 0.001 0.00531787 0.00310803 -0.0282037 -2.69538e-10 9.62114e-12 -2.47536e-12 0 1.8529e-10
35 3 0.001 0.00545808 0.00318969 -0.0275917 -2.85425e-10 4.50091e-12 8.70401e-13 0 1.8569e-10
36 3 0.001 0.00559595 0.00326995 -0.0269791 -2.86684e-10 7.87995e-12 -9.66082e-13 0 1.86094e-10
37 3 0.001 0.00573141 0.00334879 -0.0263657 -3.07876e-10 -4.91011e-13 3.83243e-12 0 1.86501e-10
38 3 0.001 0.00586441 0.00342617 -0.0257516 -2.91868e-10 1.2714e-11 -3.3625e-12 0 1.86911e-10
39 3 0.001 0.00599488 0.00350205 -0.0251368 -3.12911e-10 4.53203e-12 7.50452e-13 0 1.87324e-10
40 3 0.001 0.00612278 0.0035764 -0.0245212 -3.22972e-10 2.18873e-12 1.87148e-12 0 1.87738e-10
41 3 0.001 0.00624803 0.0036492 -0.0239049 -3.11138e-10 1.32368e-11 -3.30563e-12 0 1.88152e-10
42 3 0.001 0.00637058 0.00372039 -0.0232879 -3.45023e-10 -3.7752e-12 4.91753e-12 0 1.88567e-10
43 3 0.001 0.00649038 0.00378996 -0.0226702 -3.2326e-10 1.29551e-11 -3.61557e-12 0 1.88981e-10
44 3 0.001 0.00660736 0.00385786 -0.0220517 -3.43085e-10 4.67809e-12 1.19002e-12 0 1.89394e-10
45 3 0.001 0.00672148 0.00392408 -0.0214325 -3.55227e-10 7.99108e-13 1.94828e-12 0 1.89804e-10
46 3 0.001 0.00683269 0.00398858 -0.0208126 -3.46831e-10 9.233e-12 -1.31578e-12 0 1.90212e-10
47 3 0.001 0.00694092 0.00405132 -0.020192 -3.53081e-10 8.01931e-12 -1.44387e-12 0 1.90617e-10
48 3 0.001 0.00704613 0.00411229 -0.0195708 -3.69721e-10 1.61721e-12 2.5067e-12 0 1.91017e-10
49 3 0.001 0.00714828 0.00417146 -0.0189488 -3.69851e-10 4.68337e-12 2.78111e-14 0 1.91413e-10
50 3 0.001 0.0072473 0.00422879 -0.0183261 -3.69929e-10 6.99791e-12 -8.57348e-13 0 1.91803e-10
51 3 0.001 0.00734317 0.00428426 -0.0177028 -3.82721e-10 2.20952e-12 1.47945e-12 0 1.92187e-10
52 3 0.001 0.00743582 0.00433785 -0.0170788 -3.73585e-10 1.07048e-11 -2.08875e-12 0 1.92564e-10
53 3 0.001 0.00752522 0.00438953 -0.0164542 -3.95907e-10 -5.10694e-13 2.54153e-12 0 1.92934e-10
54 3 0.001 0.00761132 0.00443928 -0.015829 -3.87747e-10 6.77684e-12 -1.06091e-12 0 1.93295e-10
55 3 0.001 0.00769408 0.00448707 -0.0152032 -4.03473e-10 -2.98717e-13 1.17843e-12 0 1.93648e-10
56 3 0.001 0.00777347 0.00453289 -0.0145768 -3.87229e-10 1.19499e-11 -1.75649e-12 0 1.93991e-10
57 3 0.001 0.00784944 0.00457672 -0.0139498 -4.1165e-10 -7.8216e-13 1.40372e-12 0 1.94325e-10
58 3 0.001 0.00792196 0.00461853 -0.0133223 -4.07571e-10 3.61838e-12 4.47991e-13 0 1.94647e-10
59 3 0.001 0.00799099 0.0046583 -0.0126942 -4.01183e-10 9.40445e-12 -8.29459e-13 0 1.94959e-10
60 3 0.001 0.00805651 0.00469603 -0.0120657 -4.30056e-10 -6.46769e-12 1.65136e-12 0 1.95259e-10
61 3 0.001 0.00811846 0.00473169 -0.0114366 -3.99929e-10 1.40737e-11 -2.00517e-12 0 1.95547e-10
62 3 0.001 0.00817684 0.00476527 -0.0108072 -4.29941e-10 -3.18487e-12 1.84901e-12 0 1.95823e-10
63 3 0.001 0.0082316 0.00479675 -0.0101772 -4.24817e-10 1.93447e-12 -4.87373e-14 0 1.96085e-10
64 3 0.001 0.00828273 0.00482612 -0.00954691 -4.14121e-10 9.26579e-12 -8.33368e-13 0 1.96334e-10
65 3 0.001 0.00833019 0.00485337 -0.0089162 -4.35104e-10 -1.28457e-12 1.06513e-12 0 1.96569e-10
66 3 0.001 0.00837397 0.00487848 -0.00828514 -4.24596e-10 4.91314e-12 -9.91355e-13 0 1.96789e-10
67 3 0.001 0.00841403 0.00490145 -0.00765375 -4.37625e-10 -1.07275e-12 6.54558e-13 0 1.96995e-10
68 3 0.001 0.00845037 0.00492227 -0.00702206 -4.32753e-10 2.93253e-12 6.28645e-13 0 1.97186e-10
69 3 0.001 0.00848296 0.00494093 -0.00639009 -4.27327e-10 6.90334e-12 -1.87657e-13 0 1.97361e-10
70 3 0.001 0.00851179 0.00495743 -0.00575789 -4.47326e-10 -4.2429e-12 5.09664e-13 0 1.97521e-10
71 3 0.001 0.00853685 0.00497175 -0.00512547 -4.22612e-10 9.96351e-12 -8.55979e-13 0 1.97665e-10
72 3 0.001 0.00855811 0.0049839 -0.00449286 -4.52816e-10 -5.57048e-12 2.63458e-13 0 1.97793e-10
73 3 0.001 0.00857557 0.00499387 -0.00386011 -4.32684e-10 5.82628e-12 -2.49244e-13 0 1.97904e-10
74 3 0.001 0.00858922 0.00500166 -0.00322722 -4.4126e-10 5.80566e-13 4.86681e-13 0 1.97999e-10
75 3 0.001 0.00859906 0.00500726 -0.00259425 -4.42254e-10 1.3827e-12 7.24563e-13 0 1.98075e-10
76 3 0.001 0.00860507 0.00501069 -0.00196121 -4.32454e-10 6.55103e-12 -7.20318e-13 0 1.98134e-10
77 3 0.001 0.00860726 0.00501193 -0.00132813 -4.57752e-10 -8.17279e-12 -4.0022e-13 0 1.98187e-10
78 3 0.001 0.00860562 0.00501099 -0.000695059 -4.23018e-10 1.22656e-11 5.02739e-13 0 1.98239e-10
79 3 0.001 0.00860016 0.00500788 -6.20127e-05 -4.47125e-10 -2.07022e-12 1.13035e-13 0 1.98285e-10
80 3 0.001 0.00859087 0.00500258 0.000570975 -4.52394e-10 -4.84673e-12 -1.59659e-13 0 1.98316e-10
81 3 0.001 0.00857776 0.0049951 0.00120387 -4.1591e-10 1.51701e-11 6.20877e-13 0 1.98328e-10
82 3 0.001 0.00856084 0.00498543 0.00183665 -4.50697e-10 -4.62803e-12 -5.57781e-13 0 1.98322e-10
83 3 0.001 0.00854012 0.00497359 0.00246928 -4.44842e-10 -2.42737e-12 -1.03881e-12 0 1.983e-10
84 3 0.001 0.0085156 0.00495956 0.00310172 -4.2983e-10 6.38793e-12 7.00517e-13 0 1.98262e-10
85 3 0.001 0.00848729 0.00494336 0.00373396 -4.31387e-10 3.93417e-12 7.08682e-13 0 1.98208e-10
86 3 0.001 0.00845522 0.004925 0.00436596 -4.36248e-10 1.71061e-12 -2.81024e-13 0 1.98137e-10
87 3 0.001 0.00841939 0.00490446 0.00499769 -4.40192e-10 -3.27843e-12 -8.05626e-13 0 1.98051e-10
88 3 0.001 0.00837982 0.00488177 0.00562912 -4.11129e-10 1.43042e-11 8.46647e-13 0 1.9795e-10
89 3 0.001 0.00833653 0.00485694 0.00626023 -4.40966e-10 -5.64973e-12 -1.11392e-12 0 1.97833e-10
90 3 0.001 0.00828955 0.00482996 0.00689098 -4.25943e-10 3.36647e-12 1.52573e-13 0 1.97702e-10
91 3 0.001 0.00823889 0.00480086 0.00752136 -4.18841e-10 5.07365e-12 5.08039e-13 0 1.97556e-10
92 3 0.001 0.00818458 0.00476963 0.00815133 -4.20036e-10 3.55239e-12 6.45684e-14 0 1.97396e-10
93 3 0.001 0.00812665 0.00473631 0.00878087 -4.15534e-10 4.46716e-12 -7.08891e-13 0 1.97222e-10
94 3 0.001 0.00806511 0.00470089 0.00940996 -4.20341e-10 -3.63756e-14 -5.45336e-13 0 1.97035e-10
95 3 0.001 0.00800001 0.0046634 0.0100386 -4.05443e-10 7.10231e-12 8.7301e-13 0 1.96835e-10
96 3 0.001 0.00793138 0.00462385 0.0106667 -4.09092e-10 3.29061e-12 -7.40562e-13 0 1.96623e-10
97 3 0.001 0.00785924 0.00458226 0.0112942 -4.03233e-10 4.46341e-12 9.94531e-13 0 1.964e-10
98 3 0.001 0.00778363 0.00453864 0.0119213 -4.03238e-10 2.53552e-12 -1.36507e-12 0 1.96165e-10
99 3 0.001 0.00770458 0.00449302 0.0125477 -3.92955e-10 6.34565e-12 3.18714e-13 0 1.95919e-10
100 3 0.001 0.00762215 0.00444541 0.0131736 -3.92213e-10 4.82121e-12 -1.67025e-13 0 1.95663e-10
102 3 0.001 0.00744724 0.00434432 0.0144236 -3.84798e-10 4.17859e-12 2.47015e-14 0 1.95124e-10
101 3 0.001 0.00753635 0.00439584 0.0137989 -3.90152e-10 3.31802e-12 -3.59234e-13 0 1.95398e-10
104 3 0.001 0.00725924 0.00423556 0.0156709 -3.75907e-10 3.94713e-12 -7.58987e-13 0 1.94551e-10
103 3 0.001 0.00735486 0.00429089 0.0150476 -3.74056e-10 7.8591e-12 5.92556e-13 0 1.94841e-10
105 3 0.001 0.00716045 0.00417836 0.0162936 -3.70585e-10 4.82847e-12 -6.25273e-13 0 1.94254e-10
107 3 0.001 0.00695348 0.00405846 0.017537 -3.63336e-10 3.18219e-12 -1.19371e-12 0 1.93642e-10
106 3 0.001 0.00705851 0.00411932 0.0169157 -3.61022e-10 6.60868e-12 1.12974e-12 0 1.93951e-10
108 3 0.001 0.00684541 0.00399581 0.0181576 -3.49976e-10 7.38845e-12 -3.13626e-13 0 1.93328e-10
109 3 0.001 0.00673435 0.00393139 0.0187776 -3.47022e-10 6.31358e-12 1.0328e-12 0 1.9301e-10
110 3 0.001 0.00662035 0.00386525 0.0193968 -3.47727e-10 2.41664e-12 -1.50648e-12 0 1.92689e-10
111 3 0.001 0.00650346 0.0037974 0.0200153 -3.26251e-10 1.11879e-11 1.81899e-12 0 1.92364e-10
112 3 0.001 0.00638373 0.00372787 0.020633 -3.36675e-10 2.30057e-12 -1.57849e-12 0 1.92038e-10
114 3 0.001 0.00613601 0.00358394 0.0218663 -3.17616e-10 5.81675e-12 1.38949e-13 0 1.91382e-10
113 3 0.001 0.00626123 0.00365671 0.02125 -3.23121e-10 6.36213e-12 -2.70101e-13 0 1.9171e-10
117 3 0.001 0.00574459 0.0033563 0.0237108 -3.0703e-10 6.32515e-13 -3.50535e-12 0 1.90401e-10
115 3 0.001 0.00600812 0.00350959 0.0224819 -3.12733e-10 5.07696e-12 -1.11913e-12 0 1.91054e-10
116 3 0.001 0.00587763 0.0034337 0.0230967 -2.9599e-10 1.08147e-11 3.05393e-12 0 1.90727e-10
119 3 0.001 0.00547111 0.00319711 0.0249368 -2.87222e-10 4.03609e-12 -6.34606e-13 0 1.89756e-10
118 3 0.001 0.00560906 0.00327743 0.0243242 -2.86919e-10 7.99867e-12 7.85377e-13 0 1.90077e-10
122 3 0.001 0.00504332 0.00294792 0.0267704 -2.63868e-10 5.00934e-12 -2.90413e-13 0 1.88819e-10
120 3 0.001 0.00533079 0.0031154 0.0255487 -2.67383e-10 1.15486e-11 1.79641e-12 0 1.89439e-10
121 3 0.001 0.00518818 0.00303232 0.0261599 -2.76813e-10 1.06312e-12 -1.66952e-12 0 1.89127e-10
123 3 0.001 0.0048963 0.00286222 0.0273801 -2.45058e-10 1.06616e-11 1.33319e-12 0 1.88517e-10
124 3 0.001 0.00474717 0.00277527 0.0279892 -2.58274e-10 -4.96035e-13 -3.32919e-12 0 1.88221e-10
125 3 0.001 0.004596 0.00268711 0.0285977 -2.27936e-10 1.18854e-11 3.65392e-12 0 1.87933e-10
126 3 0.001 0.00444285 0.00259777 0.0292054 -2.36257e-10 2.03865e-12 -1.66096e-12 0 1.87652e-10
127 3 0.001 0.0042878 0.0025073 0.0298125 -2.22204e-10 6.26136e-12 -6.49317e-13 0 1.87379e-10
128 3 0.001 0.00413092 0.00241574 0.030419 -2.16329e-10 4.45162e-12 -2.05536e-13 0 1.87115e-10
129 3 0.001 0.00397226 0.00232312 0.0310248 -2.08498e-10 3.89879e-12 -1.11775e-12 0 1.86861e-10
130 3 0.001 0.00381191 0.00222949 0.0316301 -1.90159e-10 1.0303e-11 3.05414e-12 0 1.86616e-10
131 3 0.001 0.00364992 0.00213489 0.0322347 -1.98763e-10 -8.02372e-13 -3.19863e-12 0 1.86383e-10
132 3 0.001 0.00348638 0.00203936 0.0328388 -1.79395e-10 6.44222e-12 1.07662e-12 0 1.8616e-10
133 3 0.001 0.00332135 0.00194294 0.0334423 -1.71147e-10 5.64973e-12 1.34123e-13 0 1.85949e-10
134 3 0.001 0.0031549 0.00184567 0.0340454 -1.64641e-10 4.10022e-12 -2.09009e-13 0 1.8575e-10
136 3 0.001 0.00281805 0.00164878 0.0352499 -1.51006e-10 1.57639e-12 -1.416e-12 0 1.8539e-10
135 3 0.001 0.00298711 0.00174761 0.0346479 -1.56193e-10 3.89219e-12 -4.80654e-13 0 1.85564e-10
137 3 0.001 0.00264779 0.00154924 0.0358515 -1.30596e-10 8.22524e-12 3.33146e-12 0 1.85231e-10
139 3 0.001 0.00230396 0.00134818 0.0370534 -1.17298e-10 5.02951e-12 7.50698e-13 0 1.84954e-10
138 3 0.001 0.0024764 0.00144902 0.0364527 -1.35934e-10 -2.98003e-13 -3.0511e-12 0 1.85085e-10
140 3 0.001 0.00213055 0.00124675 0.0376538 -1.08883e-10 4.14858e-12 4.0316e-13 0 1.84837e-10
141 3 0.001 0.00195622 0.00114478 0.0382538 -1.07666e-10 -1.11052e-13 -1.99174e-12 0 1.84735e-10
142 3 0.001 0.00178107 0.00104232 0.0388535 -8.77201e-11 5.60957e-12 2.4503e-12 0 1.84649e-10
143 3 0.001 0.00160516 0.000939401 0.0394528 -8.49976e-11 2.0714e-12 -1.64324e-13 0 1.84578e-10
144 3 0.001 0.00142857 0.000836077 0.040052 -8.16223e-11 -2.79543e-12 -3.43794e-12 0 1.84524e-10
145 3 0.001 0.00125138 0.000732391 0.0406508 -5.65062e-11 7.87274e-12 3.23221e-12 0 1.84485e-10
146 3 0.001 0.00107365 0.000628387 0.0412495 -5.97406e-11 -1.13164e-12 -1.25338e-12 0 1.84463e-10
147 3 0.001 0.000895472 0.000524111 0.041848 -4.77436e-11 1.25648e-12 -3.65568e-13 0 1.84458e-10
148 3 0.001 0.000716912 0.000419608 0.0424463 -3.00395e-11 5.10809e-12 2.81027e-12 0 1.8447e-10
149 3 0.001 0.000538049 0.000314923 0.0430445 -3.63517e-11 -3.74288e-12 -2.80659e-12 0 1.61818e-10
150 3 0.001 0.000358949 0.000210096 0.0436426 -1.68034e-11 1.20666e-12 3.93543e-13 0 3.57146e-10
151 3 0.001 0.000179512 0.000105071 0.0442413 -1.0709e-11 -4.06058e-14 -1.07402e-12 0 5.75073e-10
2 2 0.001 0 0 0.04484 -4.07685e-05 -1.88193e-05 0.00156893 0 2.87505e-10
