ITEM: TIMESTEP
200000
ITEM: NUMBER OF ATOMS
151
ITEM: BOX BOUNDS ff ff ff
-1.0000000000000000e-02 1.0000000000000000e-02
-6.0000000000000001e-03 6.0000000000000001e-03
-5.2499999999999998e-02 5.2499999999999998e-02
ITEM: ATOMS id type radius x y z fx fy fz c_bendingE c_stretchingE
3 3 0.001 4.51713e-06 -4.14767e-05 -0.0468692 3.66744e-09 7.47105e-09 -1.508e-09 0 3.79861e-09
1 1 0.001 0 0 -0.0475 -3.88473e-05 0.000342387 -0.0109642 0 1.8993e-09
4 3 0.001 9.02646e-06 -8.2879e-05 -0.0462383 5.6449e-10 1.17748e-08 -3.10974e-09 0 6.6663e-09
5 3 0.001 1.35155e-05 -0.00012409 -0.0456081 -1.25004e-08 2.9442e-08 -3.69141e-09 0 9.72284e-09
6 3 0.001 1.7981e-05 -0.000165075 -0.0449779 9.20238e-09 2.49016e-08 -5.95163e-09 0 9.91179e-09
7 3 0.001 2.24155e-05 -0.000205765 -0.0443478 -1.95192e-08 3.95674e-08 -6.61154e-09 0 9.91201e-09
8 3 0.001 2.68112e-05 -0.000246084 -0.0437175 1.41111e-08 4.69066e-08 -8.15986e-09 0 9.91227e-09
9 3 0.001 3.11606e-05 -0.000285962 -0.0430873 -2.96663e-08 4.941e-08 -9.39226e-09 0 9.91257e-09
10 3 0.001 3.54562e-05 -0.000325327 -0.042457 1.5299e-08 6.23865e-08 -1.04589e-08 0 9.91292e-09
11 3 0.001 3.96906e-05 -0.000364107 -0.0418267 -1.5372e-08 6.66869e-08 -1.14516e-08 0 9.9133e-09
12 3 0.001 4.38565e-05 -0.000402233 -0.0411963 -9.62119e-09 7.20007e-08 -1.25461e-08 0 9.91373e-09
13 3 0.001 4.79466e-05 -0.000439637 -0.0405659 -4.98206e-09 8.54308e-08 -1.30887e-08 0 9.91418e-09
14 3 0.001 5.19538e-05 -0.00047625 -0.0399355 -2.35288e-08 8.10193e-08 -1.44315e-08 0 9.91467e-09
15 3 0.001 5.58714e-05 -0.000512007 -0.039305 1.34499e-08 1.02463e-07 -1.4519e-08 0 9.91518e-09
16 3 0.001 5.96925e-05 -0.000546844 -0.0386744 -3.65912e-08 9.27701e-08 -1.56727e-08 0 9.91572e-09
17 3 0.001 6.34105e-05 -0.000580697 -0.0380438 1.33291e-08 1.12646e-07 -1.56606e-08 0 9.91628e-09
18 3 0.001 6.7019e-05 -0.000613505 -0.0374131 -3.13904e-08 1.09575e-07 -1.62131e-08 0 9.91686e-09
19 3 0.001 7.05117e-05 -0.00064521 -0.0367824 -2.34952e-09 1.18925e-07 -1.64264e-08 0 9.91745e-09
20 3 0.001 7.38827e-05 -0.000675753 -0.0361517 -2.49912e-08 1.25919e-07 -1.63785e-08 0 9.91805e-09
21 3 0.001 7.7126e-05 -0.000705079 -0.0355208 -1.68334e-09 1.27567e-07 -1.66694e-08 0 9.91865e-09
22 3 0.001 8.02362e-05 -0.000733135 -0.0348899 -2.58734e-08 1.38036e-07 -1.61616e-08 0 9.91926e-09
23 3 0.001 8.32079e-05 -0.00075987 -0.034259 -1.99168e-09 1.36617e-07 -1.62508e-08 0 9.91987e-09
24 3 0.001 8.60358e-05 -0.000785235 -0.033628 -3.06082e-08 1.44273e-07 -1.55956e-08 0 9.92047e-09
25 3 0.001 8.87152e-05 -0.000809183 -0.0329969 -5.55943e-09 1.53257e-07 -1.50708e-08 0 9.92106e-09
26 3 0.001 9.12415e-05 -0.000831672 -0.0323658 -1.43759e-08 1.4908e-07 -1.47501e-08 0 9.92163e-09
27 3 0.001 9.36102e-05 -0.000852659 -0.0317346 -4.37223e-08 1.52245e-07 -1.39247e-08 0 9.9222e-09
28 3 0.001 9.58173e-05 -0.000872107 -0.0311034 2.8133e-08 1.68169e-07 -1.29517e-08 0 9.92274e-09
29 3 0.001 9.7859e-05 -0.000889978 -0.0304721 -7.20297e-08 1.64213e-07 -1.19124e-08 0 9.92326e-09
30 3 0.001 9.97319e-05 -0.000906241 -0.0298408 3.44217e-08 1.60588e-07 -1.13383e-08 0 9.92375e-09
31 3 0.001 0.000101433 -0.000920864 -0.0292095 -6.00775e-08 1.76566e-07 -9.68659e-09 0 9.92421e-09
32 3 0.001 0.000102958 -0.00093382 -0.0285781 4.03983e-09 1.66951e-07 -8.95298e-09 0 9.92464e-09
33 3 0.001 0.000104307 -0.000945085 -0.0279466 -1.65162e-08 1.7545e-07 -7.52397e-09 0 9.92504e-09
34 3 0.001 0.000105475 -0.000954638 -0.0273152 -4.13151e-08 1.79234e-07 -6.12941e-09 0 9.9254e-09
35 3 0.001 0.000106461 -0.000962459 -0.0266837 4.28123e-09 1.75275e-07 -4.85876e-09 0 9.92572e-09
36 3 0.001 0.000107264 -0.000968534 -0.0260522 -4.49539e-08 1.77943e-07 -3.33771e-09 0 9.926e-09
37 3 0.001 0.000107882 -0.000972851 -0.0254207 6.94281e-09 1.83317e-07 -1.95504e-09 0 9.92624e-09
38 3 0.001 0.000108314 -0.000975399 -0.0247892 -4.21145e-08 1.76457e-07 -5.22485e-10 0 9.92644e-09
39 3 0.001 0.00010856 -0.000976173 -0.0241577 9.34774e-11 1.84951e-07 9.53153e-10 0 9.92659e-09
40 3 0.001 0.000108618 -0.000975171 -0.0235262 -3.41566e-08 1.78186e-07 2.50156e-09 0 9.9267e-09
41 3 0.001 0.00010849 -0.000972392 -0.0228946 -2.0729e-08 1.81052e-07 4.02076e-09 0 9.92677e-09
42 3 0.001 0.000108175 -0.000967839 -0.0222631 -8.68275e-09 1.79047e-07 5.48934e-09 0 9.9268e-09
43 3 0.001 0.000107674 -0.000961521 -0.0216316 -2.77595e-08 1.8304e-07 6.7841e-09 0 9.92678e-09
44 3 0.001 0.000106988 -0.000953445 -0.0210002 -1.93454e-08 1.78991e-07 8.17033e-09 0 9.92672e-09
45 3 0.001 0.000106118 -0.000943625 -0.0203687 -2.13267e-08 1.65163e-07 9.78897e-09 0 9.92662e-09
46 3 0.001 0.000105066 -0.000932077 -0.0197373 -8.79694e-09 1.88632e-07 1.06843e-08 0 9.92649e-09
47 3 0.001 0.000103834 -0.00091882 -0.0191059 -3.12633e-08 1.63777e-07 1.23254e-08 0 9.92631e-09
48 3 0.001 0.000102424 -0.000903876 -0.0184746 -1.69871e-08 1.72261e-07 1.32268e-08 0 9.9261e-09
49 3 0.001 0.000100838 -0.000887269 -0.0178433 -1.25962e-08 1.71087e-07 1.41914e-08 0 9.92586e-09
50 3 0.001 9.90791e-05 -0.000869029 -0.017212 -1.96813e-08 1.55902e-07 1.55047e-08 0 9.92559e-09
51 3 0.001 9.7151e-05 -0.000849185 -0.0165808 -1.91654e-08 1.63833e-07 1.60768e-08 0 9.9253e-09
52 3 0.001 9.50568e-05 -0.000827772 -0.0159496 -1.49684e-08 1.61696e-07 1.68241e-08 0 9.92497e-09
53 3 0.001 9.28003e-05 -0.000804825 -0.0153185 -3.28475e-08 1.47363e-07 1.78181e-08 0 9.92463e-09
54 3 0.001 9.03855e-05 -0.000780385 -0.0146875 7.3648e-09 1.55927e-07 1.80033e-08 0 9.92428e-09
55 3 0.001 8.78167e-05 -0.000754493 -0.0140565 -2.82376e-08 1.38024e-07 1.87939e-08 0 9.92391e-09
56 3 0.001 8.50984e-05 -0.000727193 -0.0134256 -2.04058e-08 1.38438e-07 1.89043e-08 0 9.92352e-09
57 3 0.001 8.22355e-05 -0.000698533 -0.0127947 1.25192e-10 1.39794e-07 1.89118e-08 0 9.92314e-09
58 3 0.001 7.9233e-05 -0.000668562 -0.0121639 -3.62262e-08 1.27478e-07 1.9187e-08 0 9.92275e-09
59 3 0.001 7.60962e-05 -0.000637331 -0.0115332 1.1695e-08 1.23144e-07 1.93493e-08 0 9.92236e-09
60 3 0.001 7.28307e-05 -0.000604895 -0.0109025 -3.81854e-08 1.21041e-07 1.86681e-08 0 9.92199e-09
61 3 0.001 6.94423e-05 -0.00057131 -0.0102719 1.25526e-08 1.10836e-07 1.87837e-08 0 9.92162e-09
62 3 0.001 6.59369e-05 -0.000536633 -0.0096413 -4.05491e-08 1.03327e-07 1.81311e-08 0 9.92126e-09
63 3 0.001 6.23208e-05 -0.000500926 -0.00901079 8.97593e-09 1.01294e-07 1.76846e-08 0 9.92092e-09
64 3 0.001 5.86002e-05 -0.000464249 -0.00838035 -1.85981e-08 9.03741e-08 1.71796e-08 0 9.9206e-09
65 3 0.001 5.47818e-05 -0.000426666 -0.00774995 -8.42946e-09 9.29988e-08 1.58857e-08 0 9.92031e-09
66 3 0.001 5.08723e-05 -0.000388244 -0.00711961 -4.35881e-09 7.44909e-08 1.56748e-08 0 9.92005e-09
67 3 0.001 4.68785e-05 -0.000349048 -0.00648931 -1.70119e-08 7.73294e-08 1.39672e-08 0 9.91982e-09
68 3 0.001 4.28075e-05 -0.000309146 -0.00585907 1.66512e-09 5.89826e-08 1.37635e-08 0 9.91962e-09
69 3 0.001 3.86664e-05 -0.000268609 -0.00522886 -2.54294e-08 5.26656e-08 1.24452e-08 0 9.91946e-09
70 3 0.001 3.44626e-05 -0.000227506 -0.00459869 1.9309e-08 6.47467e-08 1.02471e-08 0 9.91934e-09
71 3 0.001 3.02033e-05 -0.00018591 -0.00396855 -3.33024e-08 3.09597e-08 1.02893e-08 0 9.91926e-09
72 3 0.001 2.5896e-05 -0.000143892 -0.00333844 2.43534e-08 4.18891e-08 8.05269e-09 0 9.91923e-09
73 3 0.001 2.15484e-05 -0.000101527 -0.00270835 -2.21927e-08 2.2191e-08 7.1292e-09 0 9.91925e-09
74 3 0.001 1.7168e-05 -5.88873e-05 -0.00207828 7.53405e-10 1.27461e-08 6.00561e-09 0 9.91931e-09
75 3 0.001 1.27625e-05 -1.60485e-05 -0.00144823 2.32941e-09 2.53411e-08 3.19951e-09 0 9.91942e-09
76 3 0.001 8.33973e-06 2.69148e-05 -0.000818181 -3.21862e-08 -8.87719e-09 3.26644e-09 0 9.91959e-09
77 3 0.001 3.90829e-06 6.99241e-05 -0.000188139 6.42262e-08 2.01191e-09 1.1201e-09 0 9.9198e-09
78 3 0.001 -5.24074e-07 0.00011292 0.000441905 -7.21735e-08 -1.69034e-08 -6.25248e-10 0 9.92005e-09
79 3 0.001 -4.95037e-06 0.000155814 0.00107196 6.56745e-08 -1.66548e-08 -1.67737e-09 0 9.92037e-09
80 3 0.001 -9.363e-06 0.000198532 0.00170202 -6.01625e-08 -3.82018e-08 -3.0363e-09 0 9.92074e-09
81 3 0.001 -1.37543e-05 0.000240999 0.0023321 7.30986e-08 -2.38158e-08 -5.00235e-09 0 9.92116e-09
82 3 0.001 -1.81165e-05 0.000283139 0.0029622 -6.92889e-08 -5.80431e-08 -5.64059e-09 0 9.92162e-09
83 3 0.001 -2.2442e-05 0.000324881 0.00359233 5.76361e-08 -4.19014e-08 -7.74215e-09 0 9.92214e-09
84 3 0.001 -2.67233e-05 0.000366148 0.00422249 -2.06281e-08 -6.67573e-08 -8.42491e-09 0 9.9227e-09
85 3 0.001 -3.09529e-05 0.00040687 0.00485268 3.15233e-09 -7.16198e-08 -9.59556e-09 0 9.9233e-09
86 3 0.001 -3.51234e-05 0.000446975 0.00548292 3.51382e-08 -6.58331e-08 -1.12838e-08 0 9.92395e-09
87 3 0.001 -3.92274e-05 0.000486391 0.0061132 -3.5639e-08 -9.5247e-08 -1.14051e-08 0 9.92464e-09
88 3 0.001 -4.32579e-05 0.000525049 0.00674352 5.98559e-08 -7.85121e-08 -1.32693e-08 0 9.92536e-09
89 3 0.001 -4.72077e-05 0.00056288 0.0073739 -5.01297e-08 -1.03245e-07 -1.37715e-08 0 9.92612e-09
90 3 0.001 -5.107e-05 0.000599819 0.00800433 6.91067e-08 -1.0505e-07 -1.40583e-08 0 9.92691e-09
91 3 0.001 -5.4838e-05 0.000635799 0.00863482 -3.84701e-08 -1.12379e-07 -1.52172e-08 0 9.92773e-09
92 3 0.001 -5.85052e-05 0.000670757 0.00926536 4.25577e-08 -1.14388e-07 -1.54483e-08 0 9.92857e-09
93 3 0.001 -6.2065e-05 0.00070463 0.00989597 3.22049e-09 -1.2937e-07 -1.56485e-08 0 9.92943e-09
94 3 0.001 -6.55114e-05 0.000737359 0.0105266 -4.96195e-09 -1.28164e-07 -1.64158e-08 0 9.93031e-09
95 3 0.001 -6.88383e-05 0.000768884 0.0111574 4.77822e-08 -1.36286e-07 -1.61737e-08 0 9.9312e-09
96 3 0.001 -7.20399e-05 0.00079915 0.0117882 -3.77496e-08 -1.46672e-07 -1.63335e-08 0 9.9321e-09
97 3 0.001 -7.51105e-05 0.000828103 0.012419 7.7933e-08 -1.41212e-07 -1.6091e-08 0 9.93301e-09
98 3 0.001 -7.80449e-05 0.000855691 0.0130499 -4.52624e-08 -1.63188e-07 -1.57187e-08 0 9.93391e-09
99 3 0.001 -8.08379e-05 0.000881864 0.0136809 6.71129e-08 -1.49697e-07 -1.56956e-08 0 9.93482e-09
100 3 0.001 -8.34846e-05 0.000906575 0.0143119 -1.8456e-08 -1.61718e-07 -1.53034e-08 0 9.93572e-09
101 3 0.001 -8.59805e-05 0.00092978 0.014943 1.00973e-08 -1.77284e-07 -1.41875e-08 0 9.93661e-09
102 3 0.001 -8.83211e-05 0.000951437 0.0155742 5.29716e-08 -1.66745e-07 -1.37998e-08 0 9.93748e-09
103 3 0.001 -9.05025e-05 0.000971507 0.0162054 -2.48169e-08 -1.78249e-07 -1.29482e-08 0 9.93834e-09
104 3 0.001 -9.25208e-05 0.000989952 0.0168366 5.5508e-08 -1.75059e-07 -1.19663e-08 0 9.93917e-09
105 3 0.001 -9.43725e-05 0.00100674 0.0174679 -1.36088e-08 -1.85348e-07 -1.10268e-08 0 9.93999e-09
106 3 0.001 -9.60543e-05 0.00102184 0.0180992 2.78174e-08 -1.8458e-07 -9.96304e-09 0 9.94078e-09
107 3 0.001 -9.75635e-05 0.00103522 0.0187306 3.49699e-08 -1.89346e-07 -8.73013e-09 0 9.94153e-09
108 3 0.001 -9.88974e-05 0.00104686 0.019362 -2.40046e-09 -1.91611e-07 -7.50397e-09 0 9.94226e-09
109 3 0.001 -0.000100054 0.00105674 0.0199935 2.77809e-08 -1.92425e-07 -6.08256e-09 0 9.94295e-09
110 3 0.001 -0.00010103 0.00106484 0.020625 1.35698e-08 -1.9113e-07 -4.76481e-09 0 9.94361e-09
111 3 0.001 -0.000101826 0.00107113 0.0212564 2.08983e-08 -2.00593e-07 -3.34283e-09 0 9.94422e-09
112 3 0.001 -0.000102439 0.00107562 0.021888 1.84523e-08 -1.97002e-07 -2.01898e-09 0 9.9448e-09
113 3 0.001 -0.000102868 0.00107829 0.0225195 1.48304e-08 -1.9161e-07 -5.38327e-10 0 9.94534e-09
114 3 0.001 -0.000103113 0.00107913 0.023151 3.61467e-08 -2.00621e-07 1.03826e-09 0 9.94584e-09
115 3 0.001 -0.000103173 0.00107815 0.0237825 -9.65628e-10 -2.04313e-07 2.52967e-09 0 9.9463e-09
116 3 0.001 -0.000103049 0.00107533 0.024414 4.33268e-08 -1.89541e-07 4.07384e-09 0 9.94672e-09
117 3 0.001 -0.00010274 0.00107069 0.0250455 -1.16184e-08 -2.0434e-07 5.40047e-09 0 9.94709e-09
118 3 0.001 -0.000102247 0.00106423 0.025677 4.16771e-08 -1.91425e-07 6.84091e-09 0 9.94743e-09
119 3 0.001 -0.000101571 0.00105596 0.0263085 3.04396e-09 -1.89836e-07 8.29535e-09 0 9.94772e-09
120 3 0.001 -0.000100714 0.00104589 0.0269399 2.12357e-08 -2.05978e-07 9.34643e-09 0 9.94798e-09
121 3 0.001 -9.96771e-05 0.00103405 0.0275713 4.44949e-08 -1.81314e-07 1.10735e-08 0 9.9482e-09
122 3 0.001 -9.84618e-05 0.00102044 0.0282027 -2.72083e-08 -1.9413e-07 1.21629e-08 0 9.94839e-09
123 3 0.001 -9.70707e-05 0.0010051 0.028834 7.06321e-08 -1.85841e-07 1.31424e-08 0 9.94854e-09
124 3 0.001 -9.55062e-05 0.000988041 0.0294653 -2.6191e-08 -1.80176e-07 1.44321e-08 0 9.94867e-09
125 3 0.001 -9.37711e-05 0.000969299 0.0300966 4.0471e-08 -1.79124e-07 1.51477e-08 0 9.94876e-09
126 3 0.001 -9.18687e-05 0.000948902 0.0307278 6.35341e-09 -1.79981e-07 1.60197e-08 0 9.94884e-09
127 3 0.001 -8.98024e-05 0.000926887 0.0313589 1.62837e-08 -1.71708e-07 1.69733e-08 0 9.94889e-09
128 3 0.001 -8.75758e-05 0.000903289 0.03199 2.36337e-08 -1.70301e-07 1.74919e-08 0 9.94892e-09
129 3 0.001 -8.5193e-05 0.000878148 0.032621 1.30876e-08 -1.5809e-07 1.83142e-08 0 9.94894e-09
130 3 0.001 -8.26583e-05 0.000851508 0.0332519 1.47084e-08 -1.66762e-07 1.80783e-08 0 9.94895e-09
131 3 0.001 -7.99763e-05 0.000823412 0.0338828 1.89691e-08 -1.49592e-07 1.88899e-08 0 9.94895e-09
132 3 0.001 -7.71516e-05 0.000793909 0.0345137 1.30668e-08 -1.43841e-07 1.9201e-08 0 9.94895e-09
133 3 0.001 -7.41895e-05 0.000763049 0.0351444 9.45414e-09 -1.50321e-07 1.86925e-08 0 9.94895e-09
134 3 0.001 -7.10951e-05 0.000730884 0.0357751 1.5905e-08 -1.39662e-07 1.87572e-08 0 9.94895e-09
135 3 0.001 -6.78741e-05 0.000697469 0.0364057 1.06145e-09 -1.2272e-07 1.91682e-08 0 9.94896e-09
136 3 0.001 -6.45322e-05 0.000662861 0.0370363 3.99492e-08 -1.27308e-07 1.80207e-08 0 9.94899e-09
137 3 0.001 -6.10754e-05 0.000627119 0.0376668 -2.80793e-08 -1.2182e-07 1.78726e-08 0 9.94903e-09
138 3 0.001 -5.75098e-05 0.000590304 0.0382973 5.56509e-08 -1.02338e-07 1.75866e-08 0 9.9491e-09
139 3 0.001 -5.38418e-05 0.000552478 0.0389276 -2.14673e-08 -1.14284e-07 1.6193e-08 0 9.94918e-09
140 3 0.001 -5.00779e-05 0.000513707 0.0395579 1.93067e-08 -9.12396e-08 1.60998e-08 0 9.9493e-09
141 3 0.001 -4.62249e-05 0.000474056 0.0401882 1.68533e-08 -8.55804e-08 1.50955e-08 0 9.94945e-09
142 3 0.001 -4.22897e-05 0.000433594 0.0408184 -1.33497e-08 -9.12747e-08 1.34068e-08 0 9.94963e-09
143 3 0.001 -3.82792e-05 0.00039239 0.0414486 3.35448e-08 -6.44199e-08 1.32465e-08 0 9.94985e-09
144 3 0.001 -3.42005e-05 0.000350513 0.0420787 -2.90617e-08 -7.64751e-08 1.11299e-08 0 9.95011e-09
145 3 0.001 -3.0061e-05 0.000308037 0.0427088 3.88409e-08 -4.88375e-08 1.07348e-08 0 9.95042e-09
146 3 0.001 -2.5868e-05 0.000265032 0.0433388 -8.48927e-09 -5.72072e-08 8.58572e-09 0 9.95077e-09
147 3 0.001 -2.1629e-05 0.000221574 0.0439688 2.248e-09 -3.89339e-08 7.8121e-09 0 9.95116e-09
148 3 0.001 -1.73515e-05 0.000177737 0.0445988 2.40974e-08 -2.77522e-08 6.41327e-09 0 9.95161e-09
149 3 0.001 -1.30432e-05 0.000133595 0.0452288 -3.38514e-08 -3.59007e-08 4.14373e-09 0 9.7629e-09
150 3 0.001 -8.71136e-06 8.92212e-05 0.0458588 3.91654e-08 -7.56893e-09 3.50138e-09 0 6.69909e-09
151 3 0.001 -4.35956e-06 4.46489e-05 0.0464894 -2.9751e-08 -1.58949e-08 1.23653e-09 0 3.82443e-09
2 2 0.001 0 0 0.04712 3.65096e-05 -0.000388688 0.0109867 0 1.91231e-09
