ITEM: TIMESTEP
5200000
ITEM: NUMBER OF ATOMS
151
ITEM: BOX BOUNDS ff ff ff
-1.0000000000000000e-02 1.0000000000000000e-02
-6.0000000000000001e-03 6.0000000000000001e-03
-5.2499999999999998e-02 5.2499999999999998e-02
ITEM: ATOMS id type radius x y z fx fy fz c_bendingE c_stretchingE
3 3 0.001 0.000351959 0.000300965 -0.0470699 1.29377e-11 -7.38469e-12 -6.62085e-12 0 5.35973e-09
1 1 0.001 0 0 -0.0475 -0.00466891 -0.000976786 -0.0134745 0 2.6742e-09
4 3 0.001 0.000703492 0.000600969 -0.0466388 1.8068e-11 -9.58033e-12 -1.07874e-11 0 8.69536e-09
5 3 0.001 0.0010538 0.000898743 -0.0462061 2.33431e-11 -1.26335e-11 -1.35731e-11 0 1.22843e-08
6 3 0.001 0.00140281 0.00119362 -0.0457705 3.82719e-11 -1.81553e-11 -2.30889e-11 0 1.26157e-08
7 3 0.001 0.00175006 0.00148465 -0.0453309 4.36747e-11 -2.2927e-11 -2.57653e-11 0 1.27647e-08
8 3 0.001 0.00209512 0.00177087 -0.0448865 5.91705e-11 -3.28559e-11 -3.14474e-11 0 1.29431e-08
9 3 0.001 0.00243749 0.0020513 -0.0444363 5.13931e-11 -2.3397e-11 -3.31362e-11 0 1.31487e-08
10 3 0.001 0.00277668 0.00232499 -0.0439797 7.84109e-11 -4.25982e-11 -4.26924e-11 0 1.33788e-08
11 3 0.001 0.00311217 0.00259096 -0.0435159 7.1347e-11 -3.28237e-11 -4.35368e-11 0 1.36302e-08
12 3 0.001 0.00344342 0.00284824 -0.0430442 8.78424e-11 -4.5524e-11 -4.81426e-11 0 1.38993e-08
13 3 0.001 0.00376988 0.00309588 -0.0425641 8.53282e-11 -4.22792e-11 -5.00346e-11 0 1.4182e-08
14 3 0.001 0.00409096 0.00333295 -0.0420751 1.04981e-10 -5.00756e-11 -5.81682e-11 0 1.44738e-08
15 3 0.001 0.00440607 0.00355851 -0.041577 9.42201e-11 -4.443e-11 -5.48724e-11 0 1.47699e-08
16 3 0.001 0.00471462 0.00377167 -0.0410694 1.08934e-10 -5.26639e-11 -6.14388e-11 0 1.5065e-08
17 3 0.001 0.00501599 0.00397157 -0.0405522 1.13441e-10 -5.0009e-11 -6.40131e-11 0 1.53539e-08
18 3 0.001 0.00530958 0.00415737 -0.0400253 1.15502e-10 -5.18907e-11 -6.56305e-11 0 1.5631e-08
19 3 0.001 0.00559477 0.00432832 -0.039489 1.16544e-10 -5.32803e-11 -6.51813e-11 0 1.5891e-08
20 3 0.001 0.00587098 0.00448369 -0.0389433 1.23883e-10 -5.11006e-11 -7.08452e-11 0 1.61284e-08
21 3 0.001 0.00613762 0.00462285 -0.0383886 1.19908e-10 -4.54653e-11 -6.94207e-11 0 1.63385e-08
22 3 0.001 0.00639416 0.0047452 -0.0378252 1.25906e-10 -5.38684e-11 -7.1241e-11 0 1.65165e-08
23 3 0.001 0.00664008 0.00485027 -0.0372537 1.21432e-10 -4.32098e-11 -7.09052e-11 0 1.66588e-08
24 3 0.001 0.00687491 0.00493766 -0.0366746 1.26075e-10 -4.36843e-11 -7.45507e-11 0 1.67619e-08
25 3 0.001 0.00709824 0.00500706 -0.0360885 1.20682e-10 -3.81466e-11 -7.26339e-11 0 1.68234e-08
26 3 0.001 0.0073097 0.00505826 -0.0354963 1.15102e-10 -3.26547e-11 -7.22743e-11 0 1.6836e-08
27 3 0.001 0.00750902 0.00509117 -0.0348985 1.25746e-10 -3.50668e-11 -7.65232e-11 0 1.68041e-08
28 3 0.001 0.00769595 0.00510576 -0.034296 1.06641e-10 -1.96439e-11 -7.17954e-11 0 1.67472e-08
29 3 0.001 0.00787036 0.00510208 -0.0336896 1.13062e-10 -1.89946e-11 -7.53638e-11 0 1.66781e-08
30 3 0.001 0.00803216 0.00508024 -0.0330801 1.01722e-10 -8.60095e-12 -7.31155e-11 0 1.65948e-08
31 3 0.001 0.00818137 0.00504041 -0.0324683 1.05282e-10 -6.83188e-12 -7.59401e-11 0 1.64827e-08
32 3 0.001 0.00831804 0.00498281 -0.031855 8.48581e-11 1.6433e-11 -7.16459e-11 0 1.63299e-08
33 3 0.001 0.00844236 0.00490776 -0.0312409 9.6748e-11 1.00432e-11 -7.64087e-11 0 1.61401e-08
34 3 0.001 0.00855454 0.00481567 -0.0306268 7.51738e-11 3.26099e-11 -7.28333e-11 0 1.59216e-08
35 3 0.001 0.00865491 0.00470703 -0.0300133 7.59573e-11 3.96931e-11 -7.29786e-11 0 1.56792e-08
37 3 0.001 0.0088218 0.0044425 -0.0287907 6.52889e-11 6.52278e-11 -7.32281e-11 0 1.51422e-08
36 3 0.001 0.00874385 0.00458243 -0.0294011 6.58073e-11 5.45648e-11 -7.26954e-11 0 1.54176e-08
39 3 0.001 0.00894694 0.00411955 -0.027577 5.24635e-11 9.12037e-11 -7.26832e-11 0 1.45709e-08
38 3 0.001 0.00888931 0.00428795 -0.0281825 4.59571e-11 8.272e-11 -7.00988e-11 0 1.48582e-08
40 3 0.001 0.00899533 0.00393812 -0.0269744 3.92935e-11 1.11949e-10 -6.91366e-11 0 1.42852e-08
42 3 0.001 0.00906723 0.00353964 -0.0257789 3.44421e-11 1.34132e-10 -6.95103e-11 0 1.37285e-08
41 3 0.001 0.00903518 0.00374452 -0.026375 2.93653e-11 1.29205e-10 -6.60722e-11 0 1.40036e-08
45 3 0.001 0.00912419 0.0028666 -0.0240099 1.33362e-11 1.89118e-10 -6.20054e-11 0 1.30096e-08
44 3 0.001 0.00911096 0.00309973 -0.0245964 1.98251e-11 1.71294e-10 -6.34591e-11 0 1.32251e-08
43 3 0.001 0.00909223 0.00332439 -0.025186 1.82963e-11 1.62534e-10 -6.31143e-11 0 1.34665e-08
47 3 0.001 0.00913707 0.00237889 -0.0228455 7.04765e-12 2.19913e-10 -5.75271e-11 0 1.26667e-08
46 3 0.001 0.00913266 0.002626 -0.0234264 1.02604e-11 2.09607e-10 -5.57226e-11 0 1.28231e-08
49 3 0.001 0.00913623 0.00186915 -0.0216904 5.58064e-12 2.57154e-10 -4.99029e-11 0 1.24426e-08
48 3 0.001 0.00913806 0.00212627 -0.0222669 -8.97663e-13 2.3944e-10 -5.26522e-11 0 1.25402e-08
50 3 0.001 0.00913211 0.00160851 -0.0211154 -1.01886e-11 2.74159e-10 -4.55959e-11 0 1.23724e-08
52 3 0.001 0.00911884 0.00108075 -0.0199684 -1.41985e-11 3.03686e-10 -4.04854e-11 0 1.23089e-08
51 3 0.001 0.00912617 0.00134537 -0.0205415 2.84864e-12 2.85425e-10 -4.493e-11 0 1.23283e-08
55 3 0.001 0.00909209 0.000287926 -0.0182486 -2.36082e-11 3.4951e-10 -3.15043e-11 0 1.23801e-08
54 3 0.001 0.00910155 0.000551042 -0.0188224 -6.05221e-12 3.35126e-10 -3.35854e-11 0 1.23355e-08
53 3 0.001 0.00911052 0.000815668 -0.0193955 -1.26859e-11 3.22332e-10 -3.66952e-11 0 1.23117e-08
57 3 0.001 0.00907241 -0.000229693 -0.0170971 -3.27585e-11 3.8136e-10 -2.44255e-11 0 1.25263e-08
56 3 0.001 0.00908232 2.73451e-05 -0.0176737 -1.14287e-11 3.63599e-10 -2.76188e-11 0 1.24441e-08
60 3 0.001 0.0090431 -0.000969599 -0.0153541 -4.54273e-11 4.18247e-10 -1.68687e-11 0 1.28681e-08
59 3 0.001 0.0090527 -0.000729152 -0.0159377 -2.58251e-11 4.08105e-10 -1.80361e-11 0 1.27398e-08
58 3 0.001 0.0090625 -0.000482189 -0.0165186 -1.68005e-11 3.90609e-10 -2.1995e-11 0 1.26253e-08
63 3 0.001 0.00901609 -0.00164225 -0.0135842 -4.95082e-11 4.52639e-10 -9.58938e-12 0 1.33184e-08
62 3 0.001 0.00902474 -0.00142709 -0.0141776 -4.01349e-11 4.44546e-10 -1.1218e-11 0 1.31595e-08
61 3 0.001 0.00903376 -0.00120256 -0.0147675 -2.55753e-11 4.30579e-10 -1.39249e-11 0 1.30087e-08
65 3 0.001 0.00900006 -0.00204086 -0.0123865 -5.76364e-11 4.75027e-10 -6.14115e-12 0 1.36514e-08
64 3 0.001 0.00900785 -0.00184713 -0.0129872 -3.71932e-11 4.64005e-10 -8.02464e-12 0 1.34832e-08
67 3 0.001 0.00898594 -0.0023915 -0.0111739 -5.85398e-11 4.90224e-10 -3.94899e-12 0 1.39875e-08
66 3 0.001 0.00899274 -0.00222258 -0.0117821 -4.71518e-11 4.8434e-10 -3.89225e-12 0 1.38204e-08
68 3 0.001 0.00897969 -0.00254684 -0.0105622 -5.21262e-11 5.00789e-10 -2.31103e-12 0 1.41498e-08
69 3 0.001 0.00897401 -0.00268789 -0.00994701 -6.17084e-11 5.0343e-10 -2.4316e-12 0 1.43045e-08
70 3 0.001 0.00896893 -0.002814 -0.0093286 -5.8763e-11 5.15638e-10 -1.42087e-13 0 1.44488e-08
72 3 0.001 0.00896066 -0.00301909 -0.00808323 -6.52282e-11 5.22552e-10 -3.62002e-13 0 1.46957e-08
71 3 0.001 0.00896447 -0.00292458 -0.00870723 -5.87789e-11 5.1663e-10 -7.13223e-13 0 1.458e-08
74 3 0.001 0.00895504 -0.00315816 -0.00682879 -6.15036e-11 5.28143e-10 -3.25509e-14 0 1.48722e-08
75 3 0.001 0.00895326 -0.00320204 -0.0061992 -6.71785e-11 5.33428e-10 7.2256e-13 0 1.49295e-08
73 3 0.001 0.00895751 -0.00309708 -0.00745694 -5.73242e-11 5.26598e-10 -7.99734e-14 0 1.47937e-08
76 3 0.001 0.00895219 -0.00322851 -0.00556865 -5.55423e-11 5.30848e-10 -6.51396e-13 0 1.49646e-08
77 3 0.001 0.00895182 -0.00323742 -0.0049376 -6.35292e-11 5.33803e-10 7.80303e-15 0 1.49769e-08
78 3 0.001 0.00895215 -0.00322873 -0.00430655 -5.40886e-11 5.32845e-10 1.10813e-14 0 1.49659e-08
79 3 0.001 0.00895319 -0.00320249 -0.00367598 -6.48378e-11 5.31812e-10 9.65091e-14 0 1.49321e-08
80 3 0.001 0.00895494 -0.00315883 -0.00304638 -5.32909e-11 5.29977e-10 -3.86425e-13 0 1.4876e-08
81 3 0.001 0.00895737 -0.00309796 -0.00241821 -5.3115e-11 5.2566e-10 -3.92424e-14 0 1.47987e-08
82 3 0.001 0.00896049 -0.00302019 -0.0017919 -5.04155e-11 5.22982e-10 5.88599e-14 0 1.47018e-08
83 3 0.001 0.00896427 -0.00292588 -0.00116786 -5.39805e-11 5.20244e-10 2.02518e-13 0 1.45872e-08
84 3 0.001 0.0089687 -0.0028155 -0.00054646 -4.0897e-11 5.14289e-10 5.97046e-13 0 1.4457e-08
85 3 0.001 0.00897375 -0.00268957 7.19835e-05 -4.83244e-11 5.03481e-10 2.43918e-12 0 1.43138e-08
86 3 0.001 0.00897941 -0.00254869 0.0006872 -3.70726e-11 5.02887e-10 1.48691e-12 0 1.416e-08
87 3 0.001 0.00898564 -0.00239351 0.00129897 -3.98693e-11 4.94139e-10 2.73472e-12 0 1.39985e-08
88 3 0.001 0.00899242 -0.00222475 0.00190715 -3.38859e-11 4.83287e-10 4.66606e-12 0 1.38322e-08
89 3 0.001 0.00899972 -0.00204316 0.00251162 -3.08818e-11 4.76353e-10 5.49993e-12 0 1.36639e-08
90 3 0.001 0.0090075 -0.00184956 0.00311237 -2.9282e-11 4.66631e-10 7.25773e-12 0 1.34963e-08
91 3 0.001 0.00901573 -0.00164478 0.0037094 -2.4177e-11 4.53675e-10 9.28596e-12 0 1.33321e-08
92 3 0.001 0.00902437 -0.00142971 0.00430281 -3.12555e-11 4.48448e-10 9.83344e-12 0 1.31737e-08
93 3 0.001 0.00903338 -0.00120527 0.00489275 -5.5076e-12 4.29809e-10 1.48674e-11 0 1.30233e-08
94 3 0.001 0.00904273 -0.000972366 0.00547941 -3.60207e-11 4.21964e-10 1.54766e-11 0 1.28832e-08
95 3 0.001 0.00905234 -0.000731967 0.00606304 -4.34448e-12 4.10354e-10 1.69122e-11 0 1.27553e-08
96 3 0.001 0.00906215 -0.000485039 0.00664395 -2.05894e-11 3.92351e-10 2.25017e-11 0 1.26412e-08
97 3 0.001 0.00907207 -0.000232563 0.00722247 -8.96996e-12 3.83399e-10 2.30529e-11 0 1.25426e-08
98 3 0.001 0.009082 2.44698e-05 0.007799 -1.16715e-11 3.65174e-10 2.76923e-11 0 1.24608e-08
99 3 0.001 0.0090918 0.000285059 0.00837393 -1.26107e-11 3.54863e-10 2.9598e-11 0 1.23971e-08
100 3 0.001 0.00910131 0.000548198 0.00894771 2.54997e-13 3.36201e-10 3.39679e-11 0 1.23529e-08
101 3 0.001 0.00911033 0.000812862 0.0095208 -7.84499e-12 3.22795e-10 3.60716e-11 0 1.23294e-08
102 3 0.001 0.0091187 0.00107799 0.0100937 -5.74261e-12 3.06979e-10 4.00182e-11 0 1.23269e-08
103 3 0.001 0.00912612 0.00134268 0.0106668 9.4341e-13 2.90902e-10 4.27413e-11 0 1.23466e-08
104 3 0.001 0.00913215 0.00160589 0.0112406 1.71659e-13 2.75919e-10 4.57418e-11 0 1.2391e-08
105 3 0.001 0.00913638 0.00186661 0.0118155 1.26895e-11 2.53752e-10 5.14785e-11 0 1.24614e-08
106 3 0.001 0.00913834 0.00212383 0.012392 -5.97507e-12 2.46599e-10 5.00675e-11 0 1.25592e-08
107 3 0.001 0.0091375 0.00237655 0.0129705 8.50403e-12 2.26937e-10 5.39502e-11 0 1.2686e-08
108 3 0.001 0.00913327 0.00262378 0.0135514 2.28901e-11 2.03571e-10 6.04253e-11 0 1.28428e-08
109 3 0.001 0.009125 0.00286451 0.0141349 5.54562e-12 1.94298e-10 5.93876e-11 0 1.30298e-08
110 3 0.001 0.00911198 0.00309777 0.0147213 2.10758e-11 1.77858e-10 6.12475e-11 0 1.32459e-08
111 3 0.001 0.00909349 0.00332257 0.0153109 2.06765e-11 1.57509e-10 6.47909e-11 0 1.34883e-08
112 3 0.001 0.00906875 0.00353797 0.0159037 3.20296e-11 1.44398e-10 6.5902e-11 0 1.37515e-08
113 3 0.001 0.00903699 0.00374301 0.0164998 2.74564e-11 1.27454e-10 6.73899e-11 0 1.40283e-08
114 3 0.001 0.00899743 0.00393677 0.0170992 4.04624e-11 1.11101e-10 6.95691e-11 0 1.43117e-08
115 3 0.001 0.00894934 0.00411836 0.0177017 4.26414e-11 9.79082e-11 6.95955e-11 0 1.45991e-08
116 3 0.001 0.00889202 0.00428693 0.0183072 5.01526e-11 8.5243e-11 6.96557e-11 0 1.48883e-08
117 3 0.001 0.00882483 0.00444165 0.0189154 5.84664e-11 6.32401e-11 7.31537e-11 0 1.51744e-08
118 3 0.001 0.00874719 0.00458176 0.0195258 6.1339e-11 5.83713e-11 7.10876e-11 0 1.54519e-08
119 3 0.001 0.00865856 0.00470654 0.020138 6.70892e-11 4.67172e-11 7.14813e-11 0 1.57157e-08
120 3 0.001 0.00855849 0.00481535 0.0207515 8.09195e-11 2.10809e-11 7.52227e-11 0 1.59604e-08
122 3 0.001 0.00832255 0.00498283 0.0219798 8.12597e-11 1.33799e-11 7.15177e-11 0 1.63732e-08
121 3 0.001 0.0084466 0.00490761 0.0213657 8.2354e-11 2.40381e-11 7.18962e-11 0 1.61811e-08
123 3 0.001 0.00818612 0.0050406 0.0225931 1.02502e-10 -6.43059e-12 7.56251e-11 0 1.65281e-08
124 3 0.001 0.00803715 0.00508059 0.023205 9.62583e-11 -7.79721e-12 7.19332e-11 0 1.66421e-08
125 3 0.001 0.00787555 0.00510259 0.0238145 1.01277e-10 -1.35653e-11 7.28151e-11 0 1.67272e-08
126 3 0.001 0.00770132 0.00510641 0.024421 1.08903e-10 -2.4445e-11 7.29371e-11 0 1.67981e-08
127 3 0.001 0.00751452 0.00509196 0.0250235 1.12818e-10 -2.90178e-11 7.36661e-11 0 1.6857e-08
130 3 0.001 0.00688065 0.00493882 0.0267997 1.1516e-10 -3.79193e-11 7.11019e-11 0 1.68208e-08
128 3 0.001 0.00731532 0.00505919 0.0256213 1.13121e-10 -3.20882e-11 7.19372e-11 0 1.68911e-08
129 3 0.001 0.00710393 0.00500811 0.0262136 1.19389e-10 -4.04328e-11 7.31685e-11 0 1.68805e-08
131 3 0.001 0.00664583 0.00485153 0.0273788 1.25067e-10 -5.10674e-11 7.25377e-11 0 1.67189e-08
132 3 0.001 0.00639988 0.00474654 0.0279503 1.15391e-10 -3.95241e-11 7.09126e-11 0 1.65776e-08
134 3 0.001 0.00587654 0.00448514 0.0290683 1.21167e-10 -4.89017e-11 7.11027e-11 0 1.61905e-08
135 3 0.001 0.00560021 0.0043298 0.029614 1.11715e-10 -4.6837e-11 6.55781e-11 0 1.59531e-08
133 3 0.001 0.00614328 0.00462425 0.0285137 1.2269e-10 -5.4649e-11 6.96403e-11 0 1.64002e-08
137 3 0.001 0.00502108 0.00397305 0.0306769 1.06333e-10 -4.49776e-11 6.3644e-11 0 1.54153e-08
136 3 0.001 0.00531486 0.00415886 0.0301502 1.2204e-10 -5.71023e-11 6.81928e-11 0 1.56929e-08
138 3 0.001 0.00471949 0.00377314 0.031194 1.10325e-10 -5.13508e-11 6.33416e-11 0 1.51257e-08
141 3 0.001 0.00377395 0.0030972 0.0326881 8.84691e-11 -3.86716e-11 5.28479e-11 0 1.42398e-08
139 3 0.001 0.0044107 0.00355994 0.0317014 1.04303e-10 -4.91394e-11 6.02841e-11 0 1.48297e-08
140 3 0.001 0.00409532 0.00333433 0.0321994 9.88939e-11 -4.60901e-11 5.76578e-11 0 1.45326e-08
142 3 0.001 0.00344718 0.00284947 0.0331679 9.56298e-11 -4.87332e-11 5.36621e-11 0 1.3956e-08
143 3 0.001 0.0031156 0.0025921 0.0336394 7.23105e-11 -3.22661e-11 4.53256e-11 0 1.36858e-08
144 3 0.001 0.00277977 0.00232603 0.0341029 7.45325e-11 -3.77435e-11 4.24263e-11 0 1.34333e-08
147 3 0.001 0.00175205 0.00148534 0.035453 5.23729e-11 -2.78716e-11 2.94264e-11 0 1.28167e-08
148 3 0.001 0.0014044 0.00119418 0.0358922 3.53947e-11 -1.55126e-11 2.35313e-11 0 1.26673e-08
146 3 0.001 0.00209748 0.00177168 0.035009 5.15255e-11 -2.4572e-11 3.05949e-11 0 1.29959e-08
145 3 0.001 0.00244022 0.00205223 0.0345592 6.73432e-11 -3.01696e-11 4.18413e-11 0 1.32023e-08
150 3 0.001 0.000704297 0.000601253 0.0367597 1.38588e-11 -9.92795e-12 7.92136e-12 0 8.73724e-09
151 3 0.001 0.000352362 0.000301107 0.0371903 1.5102e-11 -5.11473e-12 9.36996e-12 0 5.39339e-09
149 3 0.001 0.00105501 0.000899165 0.0363274 3.19804e-11 -1.42818e-11 1.9027e-11 0 1.2335e-08
2 2 0.001 0 0 0.03762 -0.004683 -0.000985984 0.0135032 0 2.69107e-09
