ITEM: TIMESTEP
3800000
ITEM: NUMBER OF ATOMS
151
ITEM: BOX BOUNDS ff ff ff
-1.0000000000000000e-02 1.0000000000000000e-02
-6.0000000000000001e-03 6.0000000000000001e-03
-5.2499999999999998e-02 5.2499999999999998e-02
ITEM: ATOMS id type radius x y z fx fy fz c_bendingE c_stretchingE
3 3 0.001 0.000408982 0.000228077 -0.0470765 1.05631e-05 2.29996e-05 -2.11049e-05 0 1.15044e-08
1 1 0.001 0 0 -0.0475 -0.00620373 -0.00346517 -0.0159978 0 5.745e-09
4 3 0.001 0.000817142 0.000455696 -0.0466519 -2.4286e-05 -2.15319e-05 3.6416e-05 0 1.60884e-08
5 3 0.001 0.00122323 0.000682157 -0.0462258 3.58084e-05 -8.70391e-07 -3.30471e-05 0 2.10056e-08
6 3 0.001 0.00162682 0.000907225 -0.0457966 -3.67026e-05 1.78281e-05 2.39082e-05 0 2.14337e-08
7 3 0.001 0.0020271 0.00113045 -0.0453633 1.13326e-05 -1.57452e-05 -4.6051e-06 0 2.16128e-08
8 3 0.001 0.00242324 0.00135136 -0.0449252 3.09768e-05 -6.35665e-06 -2.51473e-05 0 2.18243e-08
9 3 0.001 0.0028144 0.00156949 -0.0444812 -5.34569e-05 3.72594e-05 2.96043e-05 0 2.20618e-08
10 3 0.001 0.00319971 0.00178437 -0.0440306 4.19218e-05 -4.90737e-05 -1.04274e-05 0 2.2321e-08
11 3 0.001 0.00357835 0.00199551 -0.0435726 -1.71222e-05 4.98489e-05 -6.8439e-06 0 2.25988e-08
12 3 0.001 0.00394946 0.00220246 -0.0431067 7.93075e-06 -5.79216e-05 1.79364e-05 0 2.28933e-08
13 3 0.001 0.00431219 0.00240473 -0.0426322 -1.0862e-05 3.52878e-05 -9.96919e-06 0 2.32005e-08
14 3 0.001 0.0046657 0.00260186 -0.0421487 6.97394e-06 1.681e-05 -1.25691e-05 0 2.35091e-08
15 3 0.001 0.00500919 0.0027934 -0.0416558 -2.94455e-06 -3.32718e-05 1.67051e-05 0 2.38069e-08
16 3 0.001 0.00534186 0.0029789 -0.0411533 1.28799e-05 1.86823e-05 -1.24407e-05 0 2.40886e-08
17 3 0.001 0.00566293 0.00315793 -0.0406411 -2.06739e-05 2.38855e-06 1.15769e-05 0 2.43544e-08
18 3 0.001 0.00597169 0.0033301 -0.040119 3.50398e-06 -2.07571e-05 1.26431e-06 0 2.46018e-08
19 3 0.001 0.00626746 0.00349501 -0.0395872 1.80461e-05 -4.15207e-06 -9.52249e-06 0 2.48193e-08
20 3 0.001 0.00654962 0.00365233 -0.0390458 -2.23545e-05 3.25294e-05 4.99787e-06 0 2.49936e-08
21 3 0.001 0.00681762 0.00380175 -0.0384951 2.41417e-05 -1.4101e-05 -4.79521e-06 0 2.51232e-08
22 3 0.001 0.00707098 0.00394301 -0.0379353 -2.46241e-05 -1.28017e-05 1.22872e-05 0 2.52146e-08
23 3 0.001 0.00730931 0.00407588 -0.037367 1.82415e-06 2.19175e-05 -9.47121e-06 0 2.5268e-08
24 3 0.001 0.0075323 0.0042002 -0.0367905 1.07393e-05 2.18675e-06 -4.62109e-06 0 2.52726e-08
25 3 0.001 0.00773975 0.00431584 -0.0362065 1.48367e-05 -3.76693e-05 5.02066e-06 0 2.52217e-08
26 3 0.001 0.00793155 0.00442275 -0.0356156 -2.42827e-05 3.89438e-05 2.5245e-06 0 2.51221e-08
27 3 0.001 0.00810769 0.00452093 -0.0350182 1.39328e-05 -4.04705e-05 9.12979e-07 0 2.49845e-08
28 3 0.001 0.00826829 0.00461044 -0.0344152 -3.17306e-06 3.96117e-05 -6.76011e-06 0 2.48119e-08
29 3 0.001 0.00841354 0.00469139 -0.033807 -2.21617e-05 5.19357e-06 4.3726e-06 0 2.46016e-08
30 3 0.001 0.00854378 0.00476396 -0.0331944 2.60023e-05 -3.72865e-05 5.56192e-07 0 2.43555e-08
31 3 0.001 0.0086594 0.00482839 -0.0325779 -3.24104e-06 4.06634e-05 -2.00754e-06 0 2.40829e-08
32 3 0.001 0.00876095 0.00488496 -0.0319582 -5.59851e-06 -3.70985e-05 2.67551e-06 0 2.37964e-08
33 3 0.001 0.00884902 0.00493401 -0.0313358 6.02398e-06 -9.74252e-07 -3.07303e-06 0 2.35028e-08
34 3 0.001 0.00892432 0.00497593 -0.0307111 -2.16672e-06 1.79018e-05 -3.53611e-07 0 2.32014e-08
35 3 0.001 0.00898763 0.00501117 -0.0300847 1.83987e-07 1.02809e-05 2.31177e-06 0 2.28941e-08
36 3 0.001 0.00903981 0.0050402 -0.029457 -1.14793e-05 -1.56233e-05 2.53285e-06 0 2.25861e-08
37 3 0.001 0.00908179 0.00506355 -0.0288282 5.57906e-06 1.20943e-05 -2.92108e-06 0 2.22847e-08
38 3 0.001 0.00911456 0.00508174 -0.0281987 1.10814e-05 -7.3995e-06 -2.71274e-06 0 2.2001e-08
39 3 0.001 0.00913911 0.00509533 -0.0275687 -1.21512e-05 -6.9158e-06 8.15698e-07 0 2.17434e-08
40 3 0.001 0.00915642 0.00510485 -0.0269383 2.06284e-05 -9.88852e-06 2.33906e-06 0 2.15191e-08
41 3 0.001 0.00916747 0.00511082 -0.0263078 -2.94787e-05 2.21447e-05 1.68443e-06 0 2.13381e-08
42 3 0.001 0.00917315 0.00511375 -0.0256771 1.64197e-05 1.46849e-06 -1.76866e-06 0 2.12071e-08
43 3 0.001 0.0091743 0.00511408 -0.0250464 7.20804e-06 -2.24587e-05 -2.41363e-06 0 2.11211e-08
44 3 0.001 0.00917168 0.00511223 -0.0244157 -3.60286e-05 4.75318e-05 7.86385e-08 0 2.10662e-08
45 3 0.001 0.00916597 0.00510859 -0.0237851 3.55695e-05 -7.19305e-05 2.17374e-06 0 2.10317e-08
46 3 0.001 0.00915777 0.00510346 -0.0231544 -3.8388e-07 5.41548e-05 1.67355e-06 0 2.10155e-08
47 3 0.001 0.00914757 0.00509714 -0.0225239 -2.06759e-06 -3.8532e-06 -1.36865e-06 0 2.10178e-08
48 3 0.001 0.00913582 0.00508988 -0.0218933 -1.16099e-05 -3.20761e-05 -2.12682e-06 0 2.1032e-08
49 3 0.001 0.00912288 0.00508189 -0.0212628 -2.95921e-06 1.55336e-05 6.29759e-07 0 2.10483e-08
50 3 0.001 0.00910903 0.00507334 -0.0206323 4.1984e-07 3.54964e-05 1.72529e-06 0 2.10625e-08
51 3 0.001 0.00909454 0.00506438 -0.0200018 9.50315e-06 -8.48717e-05 -1.33186e-06 0 2.10773e-08
52 3 0.001 0.00907958 0.00505511 -0.0193714 4.57625e-05 0.000170222 2.33812e-06 0 2.10935e-08
53 3 0.001 0.00906432 0.00504566 -0.0187409 -0.000173172 -0.000294778 -8.78446e-06 0 2.11068e-08
54 3 0.001 0.00904886 0.00503607 -0.0181105 0.000445823 0.000478116 1.99191e-05 0 2.11134e-08
55 3 0.001 0.00903335 0.00502644 -0.0174801 -0.000630487 -0.000596751 -2.3497e-05 0 2.11155e-08
56 3 0.001 0.00901784 0.00501681 -0.0168497 0.000414851 0.000473291 1.62201e-05 0 2.11191e-08
57 3 0.001 0.00900242 0.00500725 -0.0162192 -0.000148033 -0.000294145 -1.03308e-05 0 2.11254e-08
58 3 0.001 0.00898718 0.00499778 -0.0155888 4.28646e-05 0.000168246 3.1802e-06 0 2.113e-08
59 3 0.001 0.00897218 0.00498847 -0.0149583 1.12028e-05 -5.53514e-05 1.51469e-06 0 2.11289e-08
60 3 0.001 0.0089575 0.00497936 -0.0143279 3.76226e-06 -2.55913e-05 1.70712e-06 0 2.11248e-08
61 3 0.001 0.00894322 0.0049705 -0.0136974 -4.49353e-05 9.08206e-05 -1.42934e-07 0 2.1124e-08
62 3 0.001 0.00892941 0.00496193 -0.0130669 5.6112e-05 -0.000114693 -2.41093e-06 0 2.11288e-08
63 3 0.001 0.00891613 0.00495368 -0.0124364 -3.98526e-05 5.46548e-05 -1.35742e-06 0 2.11348e-08
64 3 0.001 0.00890345 0.00494581 -0.0118059 1.47858e-07 4.27069e-05 1.3226e-06 0 2.11371e-08
65 3 0.001 0.00889144 0.00493836 -0.0111754 3.9582e-05 -6.91026e-05 1.59859e-06 0 2.11355e-08
66 3 0.001 0.00888015 0.00493135 -0.0105448 -4.10357e-05 3.67231e-05 3.01009e-07 0 2.11342e-08
67 3 0.001 0.00886964 0.00492483 -0.00991425 1.56537e-05 -1.87863e-05 -9.34132e-07 0 2.11365e-08
68 3 0.001 0.00885997 0.00491882 -0.00928366 1.72542e-05 -3.34911e-06 -1.12378e-06 0 2.11413e-08
69 3 0.001 0.00885117 0.00491336 -0.00865306 -3.79324e-05 2.87501e-05 -3.22138e-07 0 2.11448e-08
70 3 0.001 0.0088433 0.00490848 -0.00802243 2.12896e-05 -2.90938e-05 1.21975e-06 0 2.11449e-08
71 3 0.001 0.0088364 0.00490419 -0.00739179 2.68159e-06 3.15548e-05 9.96353e-07 0 2.11438e-08
72 3 0.001 0.00883049 0.00490053 -0.00676114 -7.03914e-06 -1.64026e-05 -6.41556e-07 0 2.11448e-08
73 3 0.001 0.00882562 0.0048975 -0.00613047 1.71001e-05 -3.75557e-05 -8.6811e-07 0 2.11478e-08
74 3 0.001 0.00882179 0.00489513 -0.0054998 -3.26035e-05 7.16302e-05 -1.24367e-08 0 2.11501e-08
75 3 0.001 0.00881904 0.00489342 -0.00486911 2.66991e-05 -6.88309e-05 4.50598e-07 0 2.11504e-08
76 3 0.001 0.00881738 0.00489239 -0.00423842 4.16996e-06 4.03484e-05 2.28245e-07 0 2.11503e-08
77 3 0.001 0.00881681 0.00489203 -0.00360773 -3.09703e-05 2.57381e-05 -2.77659e-07 0 2.1151e-08
78 3 0.001 0.00881733 0.00489236 -0.00297704 2.62946e-05 -8.32459e-05 3.81672e-08 0 2.11518e-08
79 3 0.001 0.00881895 0.00489337 -0.00234635 -2.05331e-05 7.34349e-05 2.84943e-07 0 2.11516e-08
80 3 0.001 0.00882165 0.00489505 -0.00171567 1.86612e-05 -1.54586e-05 4.86863e-08 0 2.11511e-08
81 3 0.001 0.00882543 0.00489739 -0.00108499 2.27118e-06 -3.05818e-05 -2.89899e-07 0 2.11514e-08
82 3 0.001 0.00883027 0.00490039 -0.000454324 6.18751e-06 2.19846e-05 -6.0068e-07 0 2.11523e-08
83 3 0.001 0.00883614 0.00490404 0.00017633 -3.31661e-05 1.35014e-05 4.3014e-07 0 2.11522e-08
84 3 0.001 0.008843 0.0049083 0.00080697 2.10344e-05 -9.98958e-06 5.60005e-07 0 2.11505e-08
85 3 0.001 0.00885083 0.00491316 0.00143759 -1.27044e-05 -1.61924e-05 4.97625e-07 0 2.11487e-08
86 3 0.001 0.00885959 0.0049186 0.0020682 4.57315e-06 2.16976e-05 -1.28797e-06 0 2.11492e-08
87 3 0.001 0.00886923 0.00492459 0.00269879 5.51506e-05 -2.10506e-05 -1.78368e-06 0 2.11513e-08
88 3 0.001 0.00887972 0.00493109 0.00332936 -8.86118e-05 1.81505e-05 2.10846e-06 0 2.1151e-08
89 3 0.001 0.00889098 0.00493808 0.00395992 4.96975e-05 -1.25711e-05 1.39013e-06 0 2.11464e-08
90 3 0.001 0.00890297 0.00494553 0.00459045 -2.91375e-05 9.88162e-06 1.19107e-06 0 2.11419e-08
91 3 0.001 0.00891563 0.00495339 0.00522097 3.48256e-05 -2.14228e-06 -2.72373e-06 0 2.11429e-08
92 3 0.001 0.0089289 0.00496163 0.00585147 2.62928e-06 5.27693e-06 -2.67689e-06 0 2.11483e-08
93 3 0.001 0.00894271 0.0049702 0.00648195 -5.13285e-05 -1.43336e-05 1.56998e-06 0 2.11509e-08
94 3 0.001 0.00895698 0.00497906 0.00711242 6.33918e-05 3.7389e-06 1.23518e-06 0 2.11466e-08
95 3 0.001 0.00897166 0.00498817 0.00774287 -6.28875e-05 8.38101e-07 3.3856e-06 0 2.11401e-08
96 3 0.001 0.00898666 0.00499748 0.00837332 8.0552e-05 3.68937e-05 -3.53549e-06 0 2.11389e-08
97 3 0.001 0.00900192 0.00500695 0.00900376 -0.000144844 -0.000105242 2.70471e-06 0 2.11434e-08
98 3 0.001 0.00901734 0.00501652 0.00963419 0.000432585 0.000261156 -1.5539e-05 0 2.11471e-08
99 3 0.001 0.00903288 0.00502616 0.0102646 -0.000706638 -0.000374974 2.42996e-05 0 2.11443e-08
100 3 0.001 0.0090484 0.0050358 0.010895 0.000524334 0.000230337 -1.52168e-05 0 2.11364e-08
101 3 0.001 0.00906388 0.0050454 0.0115255 -0.000242531 -5.12121e-05 6.7741e-06 0 2.11271e-08
102 3 0.001 0.00907917 0.00505488 0.0121559 0.00013796 1.73472e-05 -3.84509e-06 0 2.1117e-08
103 3 0.001 0.00909417 0.00506417 0.0127864 -4.73437e-05 -5.65653e-05 2.12201e-06 0 2.11041e-08
104 3 0.001 0.00910871 0.00507316 0.0134168 -3.74863e-05 0.000110385 -9.03384e-07 0 2.10891e-08
105 3 0.001 0.00912261 0.00508174 0.0140473 8.11406e-05 -0.000105216 -1.34973e-06 0 2.10751e-08
106 3 0.001 0.00913561 0.00508977 0.0146778 -9.10199e-05 4.47671e-05 5.27024e-07 0 2.10632e-08
107 3 0.001 0.00914743 0.00509707 0.0153084 4.70292e-05 -5.71677e-06 1.76003e-07 0 2.10531e-08
108 3 0.001 0.00915772 0.00510343 0.0159389 2.98604e-05 -6.94311e-07 1.71888e-06 0 2.10475e-08
109 3 0.001 0.00916603 0.00510862 0.0165696 -3.2672e-05 -3.73776e-06 1.0123e-06 0 2.10559e-08
110 3 0.001 0.00917185 0.00511234 0.0172002 -2.11508e-05 2.77546e-05 -2.27736e-06 0 2.10898e-08
111 3 0.001 0.0091746 0.00511426 0.0178309 2.5993e-05 -4.62022e-05 -2.76279e-06 0 2.11545e-08
112 3 0.001 0.0091736 0.00511402 0.0184616 1.13612e-05 3.80105e-05 4.70342e-07 0 2.12493e-08
113 3 0.001 0.0091681 0.00511119 0.0190923 -1.9521e-05 -5.57198e-08 3.15822e-06 0 2.13761e-08
114 3 0.001 0.00915725 0.00510532 0.0197228 9.66595e-06 -4.03671e-05 2.00219e-06 0 2.15445e-08
115 3 0.001 0.00914014 0.00509591 0.0203532 -2.02725e-05 2.85355e-05 -1.67252e-06 0 2.17643e-08
116 3 0.001 0.00911583 0.00508245 0.0209832 1.62435e-05 2.46164e-06 -2.19376e-06 0 2.20319e-08
117 3 0.001 0.00908331 0.0050644 0.0216127 1.5106e-05 -1.56607e-05 -2.82922e-07 0 2.23288e-08
118 3 0.001 0.00904159 0.0050412 0.0222415 -3.82468e-05 2.42804e-05 -4.13832e-07 0 2.26334e-08
119 3 0.001 0.00898968 0.00501232 0.0228693 3.25071e-05 -6.7553e-06 3.98455e-06 0 2.29353e-08
120 3 0.001 0.00892665 0.00497723 0.0234957 -1.03735e-05 -1.5775e-05 -2.15499e-06 0 2.32391e-08
122 3 0.001 0.00876384 0.00488656 0.0247429 5.41394e-06 1.32431e-05 2.3e-06 0 2.38498e-08
121 3 0.001 0.00885163 0.00493546 0.0241204 -6.00031e-08 4.05678e-06 -6.41704e-07 0 2.35472e-08
125 3 0.001 0.00841721 0.00469342 0.0265919 -2.41846e-05 3.86408e-05 -1.72007e-06 0 2.46597e-08
124 3 0.001 0.0085472 0.00476585 0.0259792 1.55652e-05 1.75223e-05 4.43486e-06 0 2.44101e-08
123 3 0.001 0.00866257 0.00483014 0.0253627 -1.13341e-05 -2.57646e-05 -3.94632e-06 0 2.41385e-08
127 3 0.001 0.00811178 0.00452319 0.0278032 -1.59243e-05 5.09897e-05 4.95352e-06 0 2.50583e-08
126 3 0.001 0.00827217 0.00461259 0.0272001 2.4357e-05 -7.30466e-05 -4.81858e-06 0 2.48789e-08
128 3 0.001 0.00793581 0.00442511 0.0284006 1.69314e-05 -2.1934e-05 3.84729e-06 0 2.51933e-08
129 3 0.001 0.00774415 0.00431827 0.0289916 -1.73732e-05 2.13784e-06 -6.10907e-06 0 2.52874e-08
130 3 0.001 0.00753682 0.00420269 0.0295757 3.38795e-07 -8.59434e-06 -4.98493e-06 0 2.53423e-08
132 3 0.001 0.00707562 0.00394557 0.0307205 -1.32686e-05 -1.48335e-05 -6.6404e-06 0 2.53023e-08
133 3 0.001 0.00682227 0.00380432 0.0312803 1.27225e-06 5.46685e-06 4.021e-06 0 2.52048e-08
131 3 0.001 0.0073139 0.00407841 0.0301522 1.62666e-05 2.40295e-05 1.13044e-05 0 2.53497e-08
134 3 0.001 0.00655425 0.00365489 0.031831 -2.51532e-06 1.34189e-05 1.76039e-06 0 2.50676e-08
135 3 0.001 0.00627203 0.00349753 0.0323724 8.7139e-06 -4.38926e-05 -1.12099e-05 0 2.48955e-08
138 3 0.001 0.00534607 0.00298122 0.0339382 -4.03701e-05 4.83816e-05 -7.71327e-06 0 2.41704e-08
137 3 0.001 0.00566729 0.00316034 0.0334261 2.41773e-05 -5.56418e-05 -2.30095e-06 0 2.44424e-08
136 3 0.001 0.00597617 0.00333257 0.0329041 -8.05986e-06 5.18012e-05 1.11505e-05 0 2.46871e-08
140 3 0.001 0.00466952 0.00260397 0.0349332 -2.51189e-05 2.7701e-05 -7.31336e-06 0 2.3583e-08
139 3 0.001 0.00501322 0.00279562 0.0344405 3.0853e-05 -2.59881e-05 1.07055e-05 0 2.3882e-08
141 3 0.001 0.00431577 0.00240671 0.0354164 1.50947e-05 -1.35662e-05 5.96492e-06 0 2.32778e-08
142 3 0.001 0.00395279 0.0022043 0.0358907 1.5373e-05 -3.07958e-05 -1.06902e-06 0 2.2973e-08
143 3 0.001 0.00358141 0.0019972 0.0363563 -3.19463e-05 4.89862e-05 -4.67953e-06 0 2.26772e-08
144 3 0.001 0.00320247 0.00178589 0.0368139 3.00692e-05 -4.56638e-05 2.88163e-06 0 2.23962e-08
145 3 0.001 0.00281684 0.00157084 0.0372642 -2.02269e-05 2.67313e-05 -4.33498e-06 0 2.21335e-08
147 3 0.001 0.00202889 0.00113143 0.0381456 8.81171e-06 -1.36859e-05 1.93003e-06 0 2.16812e-08
148 3 0.001 0.00162826 0.00090802 0.0385784 -9.84458e-06 1.07253e-05 -4.08361e-06 0 2.1504e-08
146 3 0.001 0.00242537 0.00135253 0.0377078 3.02345e-06 3.12725e-06 5.57653e-06 0 2.1893e-08
151 3 0.001 0.000409347 0.00022828 0.039857 -3.3977e-06 7.95887e-06 9.53101e-07 0 1.15547e-08
150 3 0.001 0.00081787 0.000456099 0.0394329 8.16001e-06 -2.31705e-05 -4.95729e-06 0 1.61493e-08
149 3 0.001 0.00122432 0.000682758 0.0390072 -3.46795e-07 8.12043e-06 3.14024e-06 0 2.10766e-08
2 2 0.001 0 0 0.04028 -0.00621922 -0.00346445 0.0160323 0 5.76978e-09
