ITEM: TIMESTEP
4800000
ITEM: NUMBER OF ATOMS
151
ITEM: BOX BOUNDS ff ff ff
-1.0000000000000000e-02 1.0000000000000000e-02
-6.0000000000000001e-03 6.0000000000000001e-03
-5.2499999999999998e-02 5.2499999999999998e-02
ITEM: ATOMS id type radius x y z fx fy fz c_bendingE c_stretchingE
1 1 0.001 0 0 -0.0475 -0.00571308 0 -0.0165642 0 4.93415e-09
3 3 0.001 0.000478779 0 -0.0470882 1.1176e-10 0 -4.29918e-10 0 9.9121e-09
4 3 0.001 0.000955274 0 -0.0466737 9.72682e-10 0 -1.31287e-09 0 1.427e-08
5 3 0.001 0.00142899 0 -0.0462571 -3.42901e-09 0 4.0392e-09 0 1.89438e-08
6 3 0.001 0.00189923 0 -0.0458366 3.53675e-09 0 -3.71747e-09 0 1.94197e-08
7 3 0.001 0.00236487 0 -0.0454111 -4.21368e-10 0 5.2569e-10 0 1.9678e-08
8 3 0.001 0.00282472 0 -0.0449793 -2.23038e-09 0 2.28929e-09 0 1.99854e-08
9 3 0.001 0.00327758 0 -0.0445403 2.51647e-09 0 -2.64048e-09 0 2.03369e-08
10 3 0.001 0.00372222 0 -0.0440929 -2.60954e-09 0 2.5198e-09 0 2.07267e-08
11 3 0.001 0.0041574 0 -0.0436364 1.1871e-09 0 -1.21979e-09 0 2.11477e-08
12 3 0.001 0.00458189 0 -0.04317 1.83477e-09 0 -1.68116e-09 0 2.1592e-08
13 3 0.001 0.00499441 0 -0.042693 -2.7943e-09 0 2.44876e-09 0 2.20509e-08
14 3 0.001 0.00539371 0 -0.0422049 -9.30839e-10 0 7.41293e-10 0 2.2515e-08
15 3 0.001 0.00577856 0 -0.0417053 4.26864e-09 0 -3.05518e-09 0 2.29742e-08
16 3 0.001 0.00614773 0 -0.0411941 -3.78188e-09 0 2.72677e-09 0 2.34182e-08
17 3 0.001 0.00650005 0 -0.0406712 5.10562e-11 0 -2.07894e-10 0 2.38365e-08
18 3 0.001 0.00683438 0 -0.0401366 2.47388e-09 0 -1.49282e-09 0 2.42189e-08
19 3 0.001 0.00714969 0 -0.0395906 -1.86637e-09 0 1.0744e-09 0 2.45559e-08
20 3 0.001 0.00744499 0 -0.0390336 6.80741e-10 0 -4.30148e-10 0 2.48387e-08
21 3 0.001 0.00771942 0 -0.038466 -3.61805e-09 0 1.73583e-09 0 2.50598e-08
22 3 0.001 0.00797224 0 -0.0378884 6.9646e-09 0 -2.62944e-09 0 2.52133e-08
23 3 0.001 0.00820282 0 -0.0373017 -7.07132e-09 0 2.56606e-09 0 2.52949e-08
24 3 0.001 0.00841071 0 -0.0367065 2.0616e-09 0 -9.25397e-10 0 2.53025e-08
25 3 0.001 0.00859557 0 -0.0361037 6.76968e-09 0 -1.67669e-09 0 2.52358e-08
26 3 0.001 0.00875725 0 -0.0354944 -1.33846e-08 0 3.42184e-09 0 2.50966e-08
27 3 0.001 0.00889577 0 -0.0348793 1.3776e-08 0 -2.74041e-09 0 2.48888e-08
28 3 0.001 0.00901129 0 -0.0342595 -9.45744e-09 0 1.49226e-09 0 2.46161e-08
29 3 0.001 0.00910416 0 -0.0336359 5.22835e-09 0 -9.83025e-10 0 2.42503e-08
30 3 0.001 0.00917488 0 -0.0330094 -5.6847e-09 0 5.3815e-10 0 2.37941e-08
31 3 0.001 0.00922407 0 -0.0323807 6.09851e-09 0 4.52941e-13 0 2.33241e-08
32 3 0.001 0.00925237 0 -0.0317508 -5.01569e-09 0 4.18363e-10 0 2.29172e-08
33 3 0.001 0.00926043 0 -0.0311203 3.14696e-09 0 -2.18896e-10 0 2.26193e-08
34 3 0.001 0.00924886 0 -0.0304898 -2.13766e-09 0 -2.43133e-10 0 2.244e-08
35 3 0.001 0.00921817 0 -0.0298599 -1.52391e-10 0 2.88383e-11 0 2.2355e-08
36 3 0.001 0.00916884 0 -0.0292312 7.09679e-09 0 1.05578e-09 0 2.23135e-08
37 3 0.001 0.00910132 0 -0.0286042 -1.14829e-08 0 -1.22082e-09 0 2.22516e-08
38 3 0.001 0.00901605 0 -0.0279794 4.85011e-09 0 4.06203e-10 0 2.21178e-08
39 3 0.001 0.00891354 0 -0.0273571 1.01133e-09 0 2.471e-10 0 2.19234e-08
40 3 0.001 0.00879439 0 -0.0267378 -8.10904e-10 0 1.34478e-10 0 2.17031e-08
41 3 0.001 0.00865927 0 -0.0261218 -4.69714e-09 0 -1.20251e-09 0 2.14644e-08
42 3 0.001 0.00850897 0 -0.0255093 8.51314e-09 0 2.17527e-09 0 2.12126e-08
44 3 0.001 0.00816622 0 -0.0242954 -4.3017e-10 0 -8.80198e-11 0 2.06914e-08
43 3 0.001 0.00834432 0 -0.0249005 -6.29938e-09 0 -1.65144e-09 0 2.09531e-08
46 3 0.001 0.0077736 0 -0.0230967 2.76134e-09 0 1.01854e-09 0 2.01821e-08
45 3 0.001 0.00797564 0 -0.0236942 9.99215e-10 0 5.23799e-10 0 2.04327e-08
47 3 0.001 0.00756115 0 -0.0225028 -7.63045e-09 0 -2.95314e-09 0 1.99445e-08
48 3 0.001 0.00733939 0 -0.0219123 6.13097e-09 0 2.46124e-09 0 1.97244e-08
49 3 0.001 0.00710943 0 -0.0213249 9.26692e-10 0 8.42562e-10 0 1.95258e-08
51 3 0.001 0.00662954 0 -0.0201581 1.18172e-08 0 4.7932e-09 0 1.92063e-08
50 3 0.001 0.00687243 0 -0.0207403 -9.22187e-09 0 -3.5652e-09 0 1.93521e-08
52 3 0.001 0.00638195 0 -0.0195779 -1.10437e-08 0 -5.09248e-09 0 1.9091e-08
53 3 0.001 0.00613085 0 -0.0189992 9.25761e-09 0 4.04589e-09 0 1.90081e-08
54 3 0.001 0.00587744 0 -0.0184215 -1.12847e-08 0 -4.55313e-09 0 1.8959e-08
57 3 0.001 0.00511535 0 -0.0166892 -5.33132e-09 0 -2.57065e-09 0 1.9019e-08
56 3 0.001 0.00536848 0 -0.0172671 -5.36629e-09 0 -2.3772e-09 0 1.89644e-08
55 3 0.001 0.00562291 0 -0.0178443 1.12628e-08 0 5.39111e-09 0 1.89443e-08
59 3 0.001 0.0046178 0 -0.0155299 -1.06446e-08 0 -4.32397e-09 0 1.92274e-08
58 3 0.001 0.00486473 0 -0.0161103 1.06943e-08 0 4.56713e-09 0 1.91071e-08
61 3 0.001 0.0041398 0 -0.0143623 -9.41246e-09 0 -3.68575e-09 0 1.95555e-08
60 3 0.001 0.00437577 0 -0.0149473 9.76396e-09 0 4.16388e-09 0 1.93777e-08
62 3 0.001 0.00391106 0 -0.0137745 9.07037e-09 0 3.46653e-09 0 1.97579e-08
63 3 0.001 0.00369069 0 -0.0131835 -8.47941e-09 0 -3.05077e-09 0 1.9981e-08
64 3 0.001 0.00347982 0 -0.012589 3.87774e-09 0 1.38654e-09 0 2.02209e-08
66 3 0.001 0.00309084 0 -0.011389 1.73188e-09 0 4.46692e-10 0 2.07327e-08
65 3 0.001 0.00327952 0 -0.0119909 -9.69033e-10 0 -4.67799e-10 0 2.04731e-08
67 3 0.001 0.00291481 0 -0.0107834 -3.27637e-09 0 -6.80134e-10 0 2.09944e-08
68 3 0.001 0.00275236 0 -0.010174 3.64295e-09 0 1.15579e-09 0 2.12531e-08
69 3 0.001 0.0026044 0 -0.00956091 -2.38334e-09 0 -5.7792e-10 0 2.15032e-08
71 3 0.001 0.00235519 0 -0.00832457 -3.77195e-09 0 -6.56005e-10 0 2.19563e-08
70 3 0.001 0.00247176 0 -0.00894435 9.25e-10 0 3.21859e-11 0 2.17393e-08
72 3 0.001 0.00225536 0 -0.00770189 9.09935e-09 0 1.24682e-09 0 2.21492e-08
73 3 0.001 0.00217287 0 -0.00707668 -9.20029e-09 0 -1.11851e-09 0 2.23137e-08
74 3 0.001 0.00210819 0 -0.00644939 1.80907e-09 0 4.55624e-10 0 2.24458e-08
75 3 0.001 0.0020617 0 -0.0058205 2.93171e-09 0 1.38252e-10 0 2.25425e-08
76 3 0.001 0.0020337 0 -0.00519052 2.67942e-09 0 -3.13742e-10 0 2.26015e-08
77 3 0.001 0.00202435 0 -0.00455998 -1.12098e-08 0 1.31087e-10 0 2.26213e-08
78 3 0.001 0.0020337 0 -0.00392945 1.39746e-08 0 -1.70255e-10 0 2.26015e-08
79 3 0.001 0.0020617 0 -0.00329947 -1.12674e-08 0 7.61555e-10 0 2.25426e-08
80 3 0.001 0.00210818 0 -0.00267058 8.95493e-09 0 -8.33221e-10 0 2.24459e-08
81 3 0.001 0.00217285 0 -0.00204329 -5.26067e-09 0 2.79795e-10 0 2.23137e-08
82 3 0.001 0.00225535 0 -0.00141808 -2.68787e-09 0 5.53276e-10 0 2.21493e-08
83 3 0.001 0.00235517 0 -0.000795395 6.38048e-09 0 -9.72631e-10 0 2.19564e-08
84 3 0.001 0.00247174 0 -0.000175613 -5.26967e-09 0 9.58956e-10 0 2.17394e-08
85 3 0.001 0.00260438 0 0.000440943 5.20063e-09 0 -1.29183e-09 0 2.15033e-08
86 3 0.001 0.00275234 0 0.00105402 -3.39527e-09 0 7.71519e-10 0 2.12532e-08
87 3 0.001 0.00291478 0 0.00166343 -2.20498e-09 0 7.39723e-10 0 2.09946e-08
88 3 0.001 0.00309081 0 0.00226908 7.0142e-09 0 -2.03249e-09 0 2.07328e-08
89 3 0.001 0.00327948 0 0.00287093 -9.44617e-09 0 3.13272e-09 0 2.04733e-08
90 3 0.001 0.00347978 0 0.00346902 1.07368e-08 0 -3.73116e-09 0 2.02211e-08
91 3 0.001 0.00369066 0 0.00406349 -1.24187e-08 0 4.26004e-09 0 1.99812e-08
92 3 0.001 0.00391102 0 0.00465451 1.0187e-08 0 -4.15107e-09 0 1.9758e-08
93 3 0.001 0.00413976 0 0.00524237 -4.61642e-09 0 1.82904e-09 0 1.95557e-08
94 3 0.001 0.00437573 0 0.00582737 -1.21312e-09 0 6.55588e-10 0 1.93779e-08
95 3 0.001 0.00461776 0 0.0064099 6.9333e-09 0 -2.81847e-09 0 1.92276e-08
96 3 0.001 0.00486469 0 0.00699038 -1.3575e-08 0 5.75096e-09 0 1.91073e-08
97 3 0.001 0.00511532 0 0.00756929 1.27863e-08 0 -5.89055e-09 0 1.90192e-08
98 3 0.001 0.00536844 0 0.0081471 -4.25356e-09 0 1.8389e-09 0 1.89646e-08
99 3 0.001 0.00562287 0 0.00872435 -1.76186e-09 0 9.28196e-10 0 1.89445e-08
100 3 0.001 0.0058774 0 0.00930156 -4.18045e-09 0 1.82078e-09 0 1.89592e-08
101 3 0.001 0.00613081 0 0.00987925 1.20865e-08 0 -5.37482e-09 0 1.90083e-08
102 3 0.001 0.00638192 0 0.0104579 -1.1006e-08 0 4.58628e-09 0 1.90913e-08
103 3 0.001 0.00662951 0 0.0110382 1.01888e-09 0 -6.23587e-10 0 1.92065e-08
104 3 0.001 0.00687239 0 0.0116203 6.96846e-09 0 -3.04924e-09 0 1.93523e-08
105 3 0.001 0.0071094 0 0.0122049 -1.07035e-08 0 4.11335e-09 0 1.9526e-08
106 3 0.001 0.00733936 0 0.0127923 9.32831e-09 0 -3.51265e-09 0 1.97247e-08
107 3 0.001 0.00756112 0 0.0133828 -7.89169e-09 0 3.0253e-09 0 1.99448e-08
108 3 0.001 0.00777358 0 0.0139767 6.44251e-09 0 -2.2587e-09 0 2.01824e-08
109 3 0.001 0.00797562 0 0.0145742 -5.30719e-09 0 1.49675e-09 0 2.04329e-08
110 3 0.001 0.0081662 0 0.0151755 6.10305e-10 0 -5.94473e-10 0 2.06917e-08
111 3 0.001 0.00834429 0 0.0157805 3.66038e-09 0 -9.44495e-10 0 2.09534e-08
112 3 0.001 0.00850895 0 0.0163893 -4.53469e-09 0 1.39284e-09 0 2.1213e-08
113 3 0.001 0.00865926 0 0.0170018 -8.07004e-10 0 1.57929e-10 0 2.14648e-08
114 3 0.001 0.00879437 0 0.0176179 7.25792e-09 0 -1.51484e-09 0 2.17035e-08
115 3 0.001 0.00891353 0 0.0182371 -1.26802e-08 0 1.91224e-09 0 2.19238e-08
116 3 0.001 0.00901605 0 0.0188594 1.24984e-08 0 -2.17217e-09 0 2.21182e-08
117 3 0.001 0.00910132 0 0.0194842 -7.43327e-09 0 1.01516e-09 0 2.2252e-08
118 3 0.001 0.00916884 0 0.0201112 4.01682e-09 0 -3.12525e-10 0 2.23139e-08
119 3 0.001 0.00921817 0 0.0207399 -9.21481e-09 0 5.66841e-10 0 2.23554e-08
120 3 0.001 0.00924886 0 0.0213698 1.29306e-08 0 -2.75319e-10 0 2.24404e-08
121 3 0.001 0.00926044 0 0.0220003 -7.66837e-09 0 2.21298e-11 0 2.26197e-08
122 3 0.001 0.00925238 0 0.0226308 -1.1891e-09 0 -5.38906e-10 0 2.29176e-08
123 3 0.001 0.00922408 0 0.0232608 8.8357e-10 0 -1.8562e-10 0 2.33246e-08
124 3 0.001 0.0091749 0 0.0238894 4.9081e-09 0 8.87935e-10 0 2.37945e-08
125 3 0.001 0.00910418 0 0.0245159 -7.89963e-09 0 -7.40684e-10 0 2.42509e-08
126 3 0.001 0.00901131 0 0.0251395 6.5594e-09 0 8.96423e-10 0 2.46167e-08
127 3 0.001 0.00889579 0 0.0257594 -6.21644e-10 0 -4.04102e-10 0 2.48894e-08
128 3 0.001 0.00875728 0 0.0263744 -5.17472e-09 0 -1.56506e-09 0 2.50972e-08
130 3 0.001 0.00841073 0 0.0275865 3.13255e-09 0 1.55259e-09 0 2.53032e-08
131 3 0.001 0.00820285 0 0.0281817 -8.79338e-09 0 -3.20021e-09 0 2.52957e-08
129 3 0.001 0.00859559 0 0.0269838 3.35873e-09 0 9.74236e-10 0 2.52364e-08
132 3 0.001 0.00797226 0 0.0287685 8.307e-09 0 3.15895e-09 0 2.5214e-08
133 3 0.001 0.00771945 0 0.029346 -5.04715e-09 0 -2.53497e-09 0 2.50606e-08
134 3 0.001 0.00744502 0 0.0299136 7.11307e-09 0 3.54176e-09 0 2.48395e-08
136 3 0.001 0.00683441 0 0.0310166 1.45149e-08 0 8.93227e-09 0 2.42197e-08
135 3 0.001 0.00714972 0 0.0304706 -1.23412e-08 0 -6.89217e-09 0 2.45567e-08
137 3 0.001 0.00650008 0 0.0315512 -1.6492e-08 0 -1.07117e-08 0 2.38373e-08
138 3 0.001 0.00614776 0 0.0320741 1.61464e-08 0 1.134e-08 0 2.3419e-08
139 3 0.001 0.00577859 0 0.0325853 -1.19002e-08 0 -8.90404e-09 0 2.2975e-08
141 3 0.001 0.00499443 0 0.033573 -3.56e-09 0 -2.89226e-09 0 2.20517e-08
142 3 0.001 0.00458191 0 0.03405 1.4774e-10 0 2.96972e-10 0 2.15927e-08
140 3 0.001 0.00539374 0 0.0330849 7.62734e-09 0 5.72912e-09 0 2.25158e-08
144 3 0.001 0.00372224 0 0.034973 2.54016e-09 0 2.40915e-09 0 2.07274e-08
145 3 0.001 0.00327759 0 0.0354203 1.4444e-09 0 1.09927e-09 0 2.03376e-08
146 3 0.001 0.00282474 0 0.0358594 -7.33144e-09 0 -7.97593e-09 0 1.99861e-08
143 3 0.001 0.00415743 0 0.0345164 -1.62537e-09 0 -1.28872e-09 0 2.11484e-08
148 3 0.001 0.00189924 0 0.0367166 -9.44234e-09 0 -9.99116e-09 0 1.94204e-08
149 3 0.001 0.00142899 0 0.0371371 1.67179e-09 0 1.96419e-09 0 1.89444e-08
147 3 0.001 0.00236489 0 0.0362911 1.10001e-08 0 1.2076e-08 0 1.96786e-08
151 3 0.001 0.000478781 0 0.0379682 -2.27258e-09 0 -2.82868e-09 0 9.91256e-09
2 2 0.001 0 0 0.03838 -0.00571326 0 0.0165645 0 4.93438e-09
150 3 0.001 0.000955279 0 0.0375537 3.60216e-09 0 3.82143e-09 0 1.42706e-08
