ITEM: TIMESTEP
4500000
ITEM: NUMBER OF ATOMS
151
ITEM: BOX BOUNDS ff ff ff
-1.0000000000000000e-02 1.0000000000000000e-02
-6.0000000000000001e-03 6.0000000000000001e-03
-5.2499999999999998e-02 5.2499999999999998e-02
ITEM: ATOMS id type radius x y z fx fy fz c_bendingE c_stretchingE
3 3 0.001 0.00044976 0.000252157 -0.0471364 -7.63384e-11 3.87377e-11 6.68622e-11 0 1.79256e-08
1 1 0.001 0 0 -0.0475 -0.00852395 -0.00475835 -0.0190185 0 8.94418e-09
4 3 0.001 0.000898534 0.000503758 -0.0467713 -1.65249e-10 1.14938e-10 1.20456e-10 0 2.35636e-08
5 3 0.001 0.00134486 0.000753981 -0.0464034 -2.08707e-10 1.13102e-10 1.7386e-10 0 2.96523e-08
6 3 0.001 0.00178819 0.00100251 -0.0460308 -2.92739e-10 1.45169e-10 2.49772e-10 0 3.03223e-08
7 3 0.001 0.00222751 0.00124877 -0.045652 -4.10111e-10 3.02739e-10 2.8258e-10 0 3.07254e-08
8 3 0.001 0.00266178 0.00149219 -0.0452657 -3.99211e-10 2.1347e-10 3.28143e-10 0 3.12013e-08
9 3 0.001 0.00308994 0.00173215 -0.0448706 -5.29257e-10 3.37758e-10 3.90343e-10 0 3.17397e-08
10 3 0.001 0.00351089 0.00196804 -0.0444654 -5.58486e-10 3.53157e-10 4.11387e-10 0 3.23287e-08
11 3 0.001 0.00392351 0.00219924 -0.0440492 -6.30434e-10 4.11417e-10 4.48865e-10 0 3.29545e-08
12 3 0.001 0.00432667 0.00242509 -0.0436209 -6.67627e-10 4.12295e-10 4.86673e-10 0 3.36021e-08
13 3 0.001 0.00471923 0.00264498 -0.04318 -7.45768e-10 5.17826e-10 5.02602e-10 0 3.42548e-08
14 3 0.001 0.00510006 0.00285824 -0.0427258 -7.51978e-10 4.60368e-10 5.3668e-10 0 3.48954e-08
15 3 0.001 0.00546804 0.00306425 -0.0422578 -8.20273e-10 5.8212e-10 5.35089e-10 0 3.55063e-08
16 3 0.001 0.00582206 0.0032624 -0.041776 -8.31482e-10 5.61705e-10 5.55341e-10 0 3.607e-08
17 3 0.001 0.0061611 0.00345211 -0.0412802 -8.63719e-10 6.0119e-10 5.60731e-10 0 3.65697e-08
18 3 0.001 0.00648417 0.00363281 -0.0407706 -8.73174e-10 6.26505e-10 5.59683e-10 0 3.69904e-08
19 3 0.001 0.00679038 0.00380402 -0.0402475 -8.81737e-10 6.55543e-10 5.56543e-10 0 3.73188e-08
20 3 0.001 0.00707895 0.00396529 -0.0397114 -8.82229e-10 6.56073e-10 5.57069e-10 0 3.75446e-08
21 3 0.001 0.00734921 0.00411625 -0.039163 -8.56857e-10 6.62707e-10 5.45075e-10 0 3.76605e-08
22 3 0.001 0.00760062 0.00425659 -0.0386028 -8.49799e-10 6.81386e-10 5.37201e-10 0 3.76627e-08
23 3 0.001 0.0078328 0.00438611 -0.0380319 -8.35158e-10 7.014e-10 5.27727e-10 0 3.75512e-08
24 3 0.001 0.00804553 0.00450468 -0.0374511 -7.6728e-10 6.45077e-10 5.14723e-10 0 3.73296e-08
25 3 0.001 0.00823875 0.00461227 -0.0368613 -7.65259e-10 6.65749e-10 5.1087e-10 0 3.70051e-08
26 3 0.001 0.00841259 0.00470895 -0.0362637 -7.12378e-10 6.49646e-10 4.98573e-10 0 3.65879e-08
27 3 0.001 0.00856733 0.00479488 -0.0356592 -6.70308e-10 6.46985e-10 4.89976e-10 0 3.60911e-08
28 3 0.001 0.00870343 0.00487033 -0.0350489 -6.16307e-10 5.67117e-10 4.87705e-10 0 3.55298e-08
29 3 0.001 0.00882152 0.00493565 -0.0344336 -5.7406e-10 5.80713e-10 4.7677e-10 0 3.49207e-08
30 3 0.001 0.00892238 0.00499128 -0.0338142 -5.00874e-10 5.30577e-10 4.70842e-10 0 3.42812e-08
31 3 0.001 0.00900695 0.00503774 -0.0331917 -4.55393e-10 4.74886e-10 4.70229e-10 0 3.3623e-08
32 3 0.001 0.00907629 0.00507564 -0.0325666 -4.12812e-10 4.91172e-10 4.63386e-10 0 3.29375e-08
33 3 0.001 0.00913158 0.00510563 -0.0319397 -3.39326e-10 3.56832e-10 4.63673e-10 0 3.22356e-08
34 3 0.001 0.0091741 0.0051284 -0.0313115 -2.97845e-10 3.64712e-10 4.60078e-10 0 3.15662e-08
35 3 0.001 0.00920514 0.00514464 -0.0306823 -2.58363e-10 3.11228e-10 4.59895e-10 0 3.09738e-08
36 3 0.001 0.00922596 0.00515505 -0.0300526 -1.91483e-10 1.66281e-10 4.59971e-10 0 3.04854e-08
37 3 0.001 0.00923779 0.00516025 -0.0294226 -1.80641e-10 1.66727e-10 4.60473e-10 0 3.011e-08
38 3 0.001 0.00924174 0.00516083 -0.0287924 -1.37856e-10 4.04682e-11 4.59207e-10 0 2.98434e-08
39 3 0.001 0.00923883 0.00515733 -0.0281622 -1.00704e-10 -6.53505e-11 4.59217e-10 0 2.96726e-08
40 3 0.001 0.00922994 0.0051502 -0.0275321 -1.01597e-10 -1.48214e-10 4.56777e-10 0 2.958e-08
41 3 0.001 0.00921583 0.00513984 -0.0269021 -3.14466e-11 -3.49215e-10 4.5552e-10 0 2.95462e-08
42 3 0.001 0.00919713 0.00512659 -0.0262723 -5.41741e-11 -4.20334e-10 4.51565e-10 0 2.95528e-08
43 3 0.001 0.00917436 0.00511072 -0.0256427 -3.72876e-11 -6.21698e-10 4.46624e-10 0 2.95827e-08
44 3 0.001 0.00914796 0.00509247 -0.0250133 -2.11003e-11 -7.82638e-10 4.39914e-10 0 2.96215e-08
45 3 0.001 0.00911826 0.00507203 -0.0243842 4.40623e-12 -1.01098e-09 4.31809e-10 0 2.96572e-08
46 3 0.001 0.00908555 0.00504957 -0.0237552 -1.6269e-11 -1.19378e-09 4.21773e-10 0 2.9681e-08
47 3 0.001 0.00905007 0.00502523 -0.0231265 6.73733e-12 -1.41744e-09 4.10955e-10 0 2.96878e-08
48 3 0.001 0.00901206 0.00499917 -0.022498 -1.25461e-11 -1.69394e-09 3.95797e-10 0 2.96777e-08
49 3 0.001 0.00897172 0.00497155 -0.0218697 2.19597e-11 -1.92388e-09 3.82705e-10 0 2.96597e-08
50 3 0.001 0.00892931 0.00494251 -0.0212416 3.92729e-11 -2.22789e-09 3.63786e-10 0 2.96421e-08
51 3 0.001 0.00888508 0.00491223 -0.0206136 -7.97087e-12 -2.446e-09 3.43737e-10 0 2.96262e-08
52 3 0.001 0.00883927 0.00488089 -0.0199859 7.6387e-11 -2.78895e-09 3.2873e-10 0 2.96123e-08
53 3 0.001 0.00879217 0.00484867 -0.0193583 4.11955e-11 -3.05956e-09 3.04733e-10 0 2.96008e-08
54 3 0.001 0.00874404 0.00481576 -0.0187307 4.77821e-11 -3.35112e-09 2.84215e-10 0 2.95919e-08
55 3 0.001 0.00869518 0.00478235 -0.0181033 6.83244e-11 -3.63225e-09 2.6405e-10 0 2.9586e-08
56 3 0.001 0.00864586 0.00474864 -0.0174759 6.91427e-11 -3.93796e-09 2.38291e-10 0 2.95832e-08
57 3 0.001 0.0085964 0.00471484 -0.0168486 8.29129e-11 -4.22891e-09 2.16968e-10 0 2.95834e-08
58 3 0.001 0.00854704 0.00468111 -0.0162212 6.52107e-11 -4.47518e-09 1.9572e-10 0 2.95865e-08
59 3 0.001 0.00849809 0.00464766 -0.0155938 1.09972e-10 -4.79277e-09 1.76353e-10 0 2.95929e-08
60 3 0.001 0.00844985 0.00461471 -0.0149663 9.72864e-11 -5.03727e-09 1.54096e-10 0 2.96023e-08
61 3 0.001 0.0084026 0.00458243 -0.0143387 1.02308e-10 -5.26988e-09 1.35562e-10 0 2.96143e-08
62 3 0.001 0.00835661 0.00455102 -0.013711 1.42174e-10 -5.59067e-09 1.15723e-10 0 2.96288e-08
64 3 0.001 0.00826951 0.00449154 -0.012455 1.33255e-10 -6.01619e-09 8.50553e-11 0 2.96638e-08
63 3 0.001 0.00831216 0.00452066 -0.0130831 1.04797e-10 -5.74888e-09 1.00093e-10 0 2.96454e-08
65 3 0.001 0.00822891 0.00446381 -0.0118267 1.42079e-10 -6.22839e-09 7.14584e-11 0 2.96834e-08
66 3 0.001 0.0081906 0.00443765 -0.0111982 1.18743e-10 -6.41764e-09 5.76278e-11 0 2.9704e-08
67 3 0.001 0.0081548 0.00441321 -0.0105695 1.63313e-10 -6.62362e-09 4.79816e-11 0 2.97249e-08
68 3 0.001 0.00812173 0.00439064 -0.00994056 1.17534e-10 -6.75552e-09 3.88168e-11 0 2.97458e-08
69 3 0.001 0.00809159 0.00437006 -0.00931142 1.46205e-10 -6.93636e-09 3.11872e-11 0 2.97661e-08
70 3 0.001 0.00806455 0.0043516 -0.00868207 1.56603e-10 -7.08574e-09 2.5981e-11 0 2.97854e-08
71 3 0.001 0.00804077 0.00433537 -0.00805253 1.27179e-10 -7.16769e-09 2.06806e-11 0 2.98032e-08
72 3 0.001 0.0080204 0.00432146 -0.00742282 1.71813e-10 -7.30153e-09 1.92174e-11 0 2.98191e-08
73 3 0.001 0.00800355 0.00430996 -0.00679295 1.28429e-10 -7.35533e-09 1.74024e-11 0 2.98328e-08
74 3 0.001 0.00799033 0.00430093 -0.00616296 1.35488e-10 -7.39095e-09 1.54971e-11 0 2.98439e-08
75 3 0.001 0.00798081 0.00429444 -0.00553287 1.87787e-10 -7.48328e-09 1.58122e-11 0 2.98523e-08
76 3 0.001 0.00797505 0.00429051 -0.00490271 9.16716e-11 -7.38057e-09 1.57175e-11 0 2.98576e-08
77 3 0.001 0.00797309 0.00428917 -0.00427252 1.72555e-10 -7.45613e-09 1.69068e-11 0 2.98598e-08
78 3 0.001 0.00797494 0.00429042 -0.00364233 1.4971e-10 -7.35874e-09 1.78974e-11 0 2.98589e-08
79 3 0.001 0.00798058 0.00429427 -0.00301217 1.13304e-10 -7.25873e-09 1.74548e-11 0 2.98549e-08
80 3 0.001 0.00798998 0.00430069 -0.00238208 1.42792e-10 -7.17481e-09 1.56415e-11 0 2.98478e-08
81 3 0.001 0.00800309 0.00430964 -0.00175208 1.54059e-10 -7.082e-09 1.37115e-11 0 2.9838e-08
82 3 0.001 0.00801983 0.00432107 -0.00112221 1.39511e-10 -6.88847e-09 1.03905e-11 0 2.98256e-08
83 3 0.001 0.0080401 0.0043349 -0.000492495 1.2195e-10 -6.71143e-09 6.42696e-12 0 2.98109e-08
84 3 0.001 0.00806378 0.00435107 0.000137051 1.79429e-10 -6.59913e-09 1.71751e-13 0 2.97944e-08
85 3 0.001 0.00809073 0.00436946 0.000766404 1.17803e-10 -6.28911e-09 -9.18291e-12 0 2.97763e-08
86 3 0.001 0.00812079 0.00438998 0.00139555 1.41183e-10 -6.09907e-09 -1.9222e-11 0 2.97572e-08
87 3 0.001 0.00815377 0.0044125 0.00202449 1.57543e-10 -5.91095e-09 -2.91898e-11 0 2.97375e-08
88 3 0.001 0.00818949 0.00443688 0.0026532 1.15391e-10 -5.56318e-09 -4.40739e-11 0 2.97177e-08
89 3 0.001 0.00822774 0.004463 0.0032817 1.53444e-10 -5.38386e-09 -5.84388e-11 0 2.96984e-08
90 3 0.001 0.00826828 0.00449068 0.00390999 8.74478e-11 -5.01416e-09 -7.51962e-11 0 2.96798e-08
91 3 0.001 0.00831088 0.00451977 0.00453808 1.57697e-10 -4.84115e-09 -9.41365e-11 0 2.96626e-08
92 3 0.001 0.00835529 0.0045501 0.00516599 5.8598e-11 -4.4066e-09 -1.14001e-10 0 2.96471e-08
93 3 0.001 0.00840125 0.00458149 0.00579373 1.1601e-10 -4.21772e-09 -1.33149e-10 0 2.96337e-08
94 3 0.001 0.00844848 0.00461375 0.00642134 1.02817e-10 -3.87954e-09 -1.56691e-10 0 2.96228e-08
95 3 0.001 0.0084967 0.0046467 0.00704883 4.36336e-11 -3.54707e-09 -1.77126e-10 0 2.96145e-08
96 3 0.001 0.00854565 0.00468013 0.00767625 9.89545e-11 -3.29279e-09 -2.02969e-10 0 2.96092e-08
97 3 0.001 0.00859501 0.00471387 0.00830361 5.04418e-11 -2.96056e-09 -2.24428e-10 0 2.96071e-08
98 3 0.001 0.00864449 0.00474768 0.00893097 6.35783e-11 -2.71346e-09 -2.45257e-10 0 2.9608e-08
99 3 0.001 0.00869384 0.00478141 0.00955833 5.22649e-11 -2.41203e-09 -2.67742e-10 0 2.96118e-08
100 3 0.001 0.00874274 0.00481485 0.0101857 3.08074e-11 -2.13249e-09 -2.89121e-10 0 2.96189e-08
101 3 0.001 0.00879092 0.00484779 0.0108132 3.71885e-11 -1.9142e-09 -3.07848e-10 0 2.96288e-08
102 3 0.001 0.00883808 0.00488005 0.0114409 3.61618e-12 -1.59631e-09 -3.28633e-10 0 2.96414e-08
103 3 0.001 0.00888395 0.00491144 0.0120686 9.56469e-12 -1.42828e-09 -3.43762e-10 0 2.96564e-08
104 3 0.001 0.00892826 0.00494177 0.0126965 1.0388e-11 -1.18501e-09 -3.6062e-10 0 2.96735e-08
105 3 0.001 0.00897075 0.00497086 0.0133246 -2.65896e-11 -9.6651e-10 -3.73614e-10 0 2.96923e-08
106 3 0.001 0.00901117 0.00499855 0.0139529 -2.04985e-11 -7.99905e-10 -3.86109e-10 0 2.97115e-08
107 3 0.001 0.00904928 0.00502467 0.0145814 -1.51168e-11 -6.34898e-10 -3.97524e-10 0 2.97231e-08
108 3 0.001 0.00908486 0.00504908 0.0152101 -4.67912e-11 -4.79894e-10 -4.04989e-10 0 2.97179e-08
109 3 0.001 0.00911767 0.00507161 0.0158391 -4.16859e-11 -3.48986e-10 -4.1178e-10 0 2.96955e-08
110 3 0.001 0.00914748 0.00509213 0.0164683 -5.13622e-11 -2.29743e-10 -4.18858e-10 0 2.9661e-08
111 3 0.001 0.00917401 0.00511046 0.0170976 -5.9238e-11 -1.69039e-10 -4.21607e-10 0 2.96231e-08
112 3 0.001 0.0091969 0.00512641 0.0177272 -8.27295e-11 -4.46944e-11 -4.25936e-10 0 2.95938e-08
113 3 0.001 0.00921574 0.00513976 0.018357 -9.49967e-11 1.69945e-11 -4.26668e-10 0 2.95875e-08
114 3 0.001 0.00923 0.00515021 0.018987 -1.10433e-10 6.6282e-11 -4.27925e-10 0 2.96213e-08
115 3 0.001 0.00923905 0.00515744 0.0196171 -1.21595e-10 8.00367e-11 -4.28706e-10 0 2.97137e-08
116 3 0.001 0.00924214 0.00516105 0.0202473 -1.86014e-10 2.17736e-10 -4.30294e-10 0 2.98842e-08
117 3 0.001 0.00923838 0.00516058 0.0208774 -1.65136e-10 1.58228e-10 -4.29579e-10 0 3.01504e-08
118 3 0.001 0.00922675 0.00515551 0.0215075 -2.1387e-10 2.24294e-10 -4.30327e-10 0 3.05259e-08
119 3 0.001 0.00920615 0.00514524 0.0221372 -2.61514e-10 2.81099e-10 -4.30673e-10 0 3.10151e-08
120 3 0.001 0.00917536 0.00512913 0.0227664 -2.77898e-10 2.64963e-10 -4.32167e-10 0 3.16092e-08
121 3 0.001 0.00913309 0.0051065 0.0233946 -3.09559e-10 2.7505e-10 -4.35086e-10 0 3.22819e-08
122 3 0.001 0.00907806 0.00507666 0.0240216 -3.63204e-10 3.12866e-10 -4.35891e-10 0 3.29886e-08
123 3 0.001 0.00900898 0.00503892 0.0246466 -4.04388e-10 3.21416e-10 -4.40833e-10 0 3.36799e-08
124 3 0.001 0.00892468 0.00499261 0.0252692 -4.41155e-10 3.37899e-10 -4.44264e-10 0 3.43435e-08
125 3 0.001 0.00882408 0.00493713 0.0258886 -4.54837e-10 2.89337e-10 -4.50578e-10 0 3.49884e-08
126 3 0.001 0.00870624 0.00487196 0.026504 -5.48902e-10 3.69621e-10 -4.60618e-10 0 3.56031e-08
128 3 0.001 0.00841585 0.00471084 0.027719 -5.91628e-10 3.1773e-10 -4.76932e-10 0 3.66725e-08
129 3 0.001 0.00824221 0.00461426 0.0283167 -6.62335e-10 4.24912e-10 -4.8026e-10 0 3.70951e-08
127 3 0.001 0.00857038 0.00479665 0.0271144 -5.31513e-10 3.32414e-10 -4.59388e-10 0 3.617e-08
130 3 0.001 0.00804915 0.00450677 0.0289065 -6.03833e-10 2.7765e-10 -4.86375e-10 0 3.74247e-08
131 3 0.001 0.00783655 0.00438827 0.0294873 -7.03784e-10 3.8354e-10 -5.00641e-10 0 3.76509e-08
133 3 0.001 0.00735312 0.0041185 0.0306185 -7.07832e-10 3.68856e-10 -5.04335e-10 0 3.77673e-08
132 3 0.001 0.00760447 0.00425881 0.0300583 -6.81944e-10 3.42888e-10 -4.99578e-10 0 3.77663e-08
134 3 0.001 0.00708289 0.00396756 0.031167 -7.09079e-10 3.45543e-10 -5.1021e-10 0 3.76538e-08
135 3 0.001 0.00679431 0.00380628 0.0317031 -7.0826e-10 3.6015e-10 -5.04823e-10 0 3.74295e-08
136 3 0.001 0.00648805 0.00363505 0.0322261 -6.74279e-10 3.21585e-10 -4.96353e-10 0 3.71017e-08
137 3 0.001 0.0061649 0.00345429 0.0327356 -7.18024e-10 3.91331e-10 -4.97544e-10 0 3.66809e-08
140 3 0.001 0.00510343 0.00286018 0.0341807 -6.08218e-10 3.32578e-10 -4.40045e-10 0 3.50017e-08
139 3 0.001 0.00547158 0.00306629 0.033713 -6.52972e-10 3.74118e-10 -4.57363e-10 0 3.56148e-08
138 3 0.001 0.00582575 0.00326453 0.0332313 -6.45335e-10 3.13113e-10 -4.78515e-10 0 3.61801e-08
143 3 0.001 0.00392621 0.00220079 0.0355033 -4.97146e-10 3.12755e-10 -3.51827e-10 0 3.3052e-08
141 3 0.001 0.0047224 0.0026468 0.0346347 -5.80035e-10 3.47472e-10 -4.0894e-10 0 3.43584e-08
142 3 0.001 0.00432961 0.00242679 0.0350754 -5.39995e-10 3.21107e-10 -3.87423e-10 0 3.37027e-08
147 3 0.001 0.00222909 0.00124968 0.0371046 -2.83028e-10 2.00196e-10 -1.94989e-10 0 3.08114e-08
146 3 0.001 0.00266366 0.00149327 0.0367187 -3.7233e-10 2.86581e-10 -2.40723e-10 0 3.12897e-08
144 3 0.001 0.00351332 0.00196945 0.0359192 -4.64158e-10 3.3272e-10 -3.10079e-10 0 3.2423e-08
145 3 0.001 0.0030921 0.00173339 0.036324 -3.98253e-10 2.52891e-10 -2.86105e-10 0 3.1831e-08
151 3 0.001 0.000450081 0.000252342 0.038587 -7.70841e-11 6.97633e-11 -4.60219e-11 0 1.79884e-08
148 3 0.001 0.00178946 0.00100324 0.0374829 -2.62752e-10 2.12448e-10 -1.65479e-10 0 3.04062e-08
149 3 0.001 0.00134582 0.000754532 0.0378549 -1.92064e-10 1.55883e-10 -1.22388e-10 0 2.97342e-08
150 3 0.001 0.000899175 0.000504127 0.0382224 -1.09399e-10 7.81445e-11 -7.64617e-11 0 2.36354e-08
2 2 0.001 0 0 0.03895 -0.00854517 -0.00477023 0.0190472 0 8.9756e-09
