ITEM: TIMESTEP
4100000
ITEM: NUMBER OF ATOMS
151
ITEM: BOX BOUNDS ff ff ff
-1.0000000000000000e-02 1.0000000000000000e-02
-6.0000000000000001e-03 6.0000000000000001e-03
-5.2499999999999998e-02 5.2499999999999998e-02
ITEM: ATOMS id type radius x y z fx fy fz c_bendingE c_stretchingE
3 3 0.001 0.000428912 0.000239375 -0.0471037 -4.71412e-10 7.26658e-10 5.39482e-11 0 1.46475e-08
1 1 0.001 0 0 -0.0475 -0.00730679 -0.00407572 -0.0175312 0 7.31171e-09
4 3 0.001 0.000856914 0.000478241 -0.0467061 -4.93298e-10 1.07305e-09 -1.30355e-10 0 1.97684e-08
5 3 0.001 0.00128265 0.000715841 -0.0463063 1.385e-09 -2.74537e-09 1.44027e-10 0 2.52762e-08
6 3 0.001 0.00170562 0.000951896 -0.0459028 -1.31609e-09 2.32976e-09 -2.70538e-12 0 2.58081e-08
7 3 0.001 0.00212491 0.0011859 -0.0454944 1.75174e-09 -3.0573e-09 -7.58122e-11 0 2.60759e-08
8 3 0.001 0.0025396 0.00141733 -0.0450798 -3.23731e-09 5.57033e-09 8.97505e-11 0 2.63926e-08
9 3 0.001 0.00294872 0.00164565 -0.0446581 3.41387e-09 -6.21218e-09 1.0255e-11 0 2.67518e-08
10 3 0.001 0.0033513 0.00187032 -0.0442282 -1.8397e-09 3.17836e-09 2.05188e-11 0 2.71463e-08
11 3 0.001 0.00374639 0.0020908 -0.0437893 -1.60099e-10 2.46048e-10 -1.3963e-11 0 2.75675e-08
12 3 0.001 0.00413299 0.00230655 -0.0433407 9.3656e-10 -1.83351e-09 4.23031e-11 0 2.80062e-08
13 3 0.001 0.00451014 0.00251701 -0.0428816 -1.06361e-09 1.64259e-09 8.07581e-11 0 2.84523e-08
14 3 0.001 0.00487684 0.00272164 -0.0424117 1.00075e-09 -1.81386e-09 -3.27932e-11 0 2.88953e-08
15 3 0.001 0.00523217 0.00291991 -0.0419304 -1.07325e-09 1.70299e-09 5.0077e-11 0 2.93242e-08
16 3 0.001 0.00557518 0.00311131 -0.0414376 5.29559e-10 -1.12369e-09 3.55446e-11 0 2.97283e-08
17 3 0.001 0.00590499 0.00329534 -0.0409331 -5.27857e-10 7.88669e-10 3.36449e-11 0 3.0097e-08
18 3 0.001 0.00622076 0.00347152 -0.040417 8.87027e-10 -1.80313e-09 5.39356e-11 0 3.04204e-08
19 3 0.001 0.00652173 0.00363944 -0.0398894 -1.21278e-09 2.08221e-09 1.15313e-11 0 3.06896e-08
20 3 0.001 0.00680719 0.0037987 -0.0393507 2.14582e-10 -6.67895e-10 6.47914e-11 0 3.08973e-08
21 3 0.001 0.00707655 0.00394897 -0.0388012 1.28704e-09 -2.48895e-09 3.24966e-11 0 3.10374e-08
22 3 0.001 0.00732929 0.00408996 -0.0382414 -2.75409e-09 4.73776e-09 3.86935e-11 0 3.11061e-08
23 3 0.001 0.00756503 0.00422145 -0.0376721 3.04617e-09 -5.47609e-09 5.42726e-12 0 3.11013e-08
24 3 0.001 0.00778349 0.0043433 -0.0370937 -2.77055e-09 4.52567e-09 9.49588e-11 0 3.10231e-08
25 3 0.001 0.00798453 0.00445542 -0.0365071 1.44138e-09 -2.81389e-09 5.06548e-11 0 3.08739e-08
26 3 0.001 0.00816815 0.00455781 -0.0359131 4.73972e-11 7.53659e-11 -1.01714e-11 0 3.06579e-08
27 3 0.001 0.00833445 0.00465053 -0.0353124 -6.23162e-10 7.32104e-10 6.68395e-11 0 3.03812e-08
28 3 0.001 0.0084837 0.00473373 -0.0347058 -6.17282e-10 8.08113e-10 3.81497e-11 0 3.00515e-08
29 3 0.001 0.0086163 0.00480764 -0.0340942 1.11187e-09 -2.03125e-09 1.54649e-11 0 2.96779e-08
30 3 0.001 0.00873276 0.00487253 -0.0334782 -4.19614e-10 6.46967e-10 4.23877e-11 0 2.92702e-08
31 3 0.001 0.00883373 0.00492878 -0.0328587 -5.00988e-10 4.93863e-10 6.64136e-11 0 2.88392e-08
32 3 0.001 0.00891999 0.0049768 -0.0322362 5.55131e-10 -8.6046e-10 1.20678e-11 0 2.83956e-08
33 3 0.001 0.00899239 0.0050171 -0.0316114 -8.85482e-10 1.2634e-09 3.20199e-11 0 2.79491e-08
34 3 0.001 0.00905191 0.0050502 -0.0309848 6.70229e-10 -1.3524e-09 2.08873e-11 0 2.74971e-08
35 3 0.001 0.00909963 0.00507671 -0.0303568 1.73056e-10 -1.47108e-10 1.87204e-11 0 2.70415e-08
36 3 0.001 0.00913666 0.00509724 -0.0297279 -9.64509e-10 1.17168e-09 4.61775e-11 0 2.66059e-08
37 3 0.001 0.00916416 0.00511242 -0.0290983 8.07042e-10 -1.31264e-09 2.68255e-11 0 2.62165e-08
38 3 0.001 0.00918327 0.00512287 -0.0284682 -4.86575e-10 8.9622e-10 2.73488e-11 0 2.589e-08
39 3 0.001 0.0091951 0.00512919 -0.027838 -1.99878e-11 -2.03353e-10 2.12783e-11 0 2.56329e-08
40 3 0.001 0.00920067 0.00513194 -0.0272076 3.80786e-10 -7.84162e-10 1.54685e-11 0 2.54434e-08
41 3 0.001 0.00920095 0.00513165 -0.0265771 -7.48892e-10 1.29728e-09 2.22073e-11 0 2.53144e-08
42 3 0.001 0.00919677 0.00512876 -0.0259467 1.15849e-09 -1.97381e-09 2.7437e-11 0 2.52356e-08
43 3 0.001 0.00918891 0.0051237 -0.0253163 -2.27067e-09 3.60511e-09 3.123e-11 0 2.51961e-08
44 3 0.001 0.009178 0.00511684 -0.024686 2.98697e-09 -5.1396e-09 2.11383e-11 0 2.51851e-08
45 3 0.001 0.0091646 0.00510848 -0.0240557 -1.81971e-09 3.20996e-09 2.6552e-11 0 2.51932e-08
46 3 0.001 0.00914917 0.00509888 -0.0234255 -1.03138e-09 1.47448e-09 1.67204e-11 0 2.52126e-08
47 3 0.001 0.0091321 0.00508826 -0.0227954 2.1928e-09 -3.88916e-09 1.21657e-11 0 2.52371e-08
48 3 0.001 0.00911368 0.00507681 -0.0221653 -1.04077e-09 1.71942e-09 2.34855e-11 0 2.52622e-08
49 3 0.001 0.00909417 0.00506467 -0.0215353 -3.39979e-10 4.55795e-10 2.80898e-11 0 2.52848e-08
50 3 0.001 0.00907376 0.00505197 -0.0209053 -6.59752e-10 6.21196e-10 2.302e-11 0 2.53028e-08
51 3 0.001 0.00905263 0.00503881 -0.0202754 1.86741e-09 -2.75617e-09 2.88117e-11 0 2.53154e-08
52 3 0.001 0.00903091 0.00502529 -0.0196455 -2.2807e-09 2.83325e-09 -3.75223e-12 0 2.53224e-08
53 3 0.001 0.00900873 0.00501147 -0.0190155 1.57417e-09 -2.35922e-09 2.04797e-11 0 2.53247e-08
54 3 0.001 0.0089862 0.00499745 -0.0183857 -1.38778e-09 1.7291e-09 1.48094e-11 0 2.53247e-08
55 3 0.001 0.00896346 0.00498329 -0.0177558 2.38106e-10 -6.40225e-10 2.5355e-11 0 2.53246e-08
56 3 0.001 0.00894063 0.00496907 -0.0171259 -2.10583e-10 -2.35343e-10 1.12587e-11 0 2.5325e-08
57 3 0.001 0.00891781 0.00495486 -0.0164961 -1.55063e-10 3.06982e-10 1.75633e-11 0 2.53258e-08
58 3 0.001 0.00889515 0.00494074 -0.0158662 1.02593e-09 -2.50032e-09 -2.77886e-12 0 2.53272e-08
59 3 0.001 0.00887276 0.0049268 -0.0152363 -2.75266e-09 4.16469e-09 1.73343e-11 0 2.53291e-08
60 3 0.001 0.00885077 0.00491311 -0.0146064 1.14845e-09 -2.596e-09 8.58431e-12 0 2.53314e-08
61 3 0.001 0.00882931 0.00489974 -0.0139764 4.55562e-10 -1.02267e-09 1.34335e-11 0 2.53341e-08
62 3 0.001 0.00880848 0.00488677 -0.0133465 -1.86038e-09 2.43886e-09 3.6067e-12 0 2.53372e-08
63 3 0.001 0.0087884 0.00487427 -0.0127165 7.80872e-10 -2.08236e-09 -4.48457e-13 0 2.53405e-08
64 3 0.001 0.00876919 0.0048623 -0.0120864 -4.01253e-10 2.26167e-10 1.08957e-11 0 2.53441e-08
65 3 0.001 0.00875093 0.00485094 -0.0114564 -8.71757e-10 6.54544e-10 5.8706e-12 0 2.53479e-08
66 3 0.001 0.00873375 0.00484024 -0.0108262 9.27215e-11 -8.83331e-10 5.01942e-12 0 2.53518e-08
67 3 0.001 0.00871772 0.00483026 -0.0101961 -2.7932e-10 -1.06744e-10 3.55424e-12 0 2.53557e-08
68 3 0.001 0.00870294 0.00482105 -0.00956589 -1.01086e-09 7.49089e-10 -3.44203e-12 0 2.53596e-08
69 3 0.001 0.00868949 0.00481267 -0.00893565 8.07274e-10 -1.97203e-09 5.08362e-13 0 2.53634e-08
70 3 0.001 0.00867743 0.00480517 -0.00830537 -1.69251e-09 1.91199e-09 5.80093e-12 0 2.5367e-08
71 3 0.001 0.00866684 0.00479857 -0.00767505 4.19294e-10 -1.44199e-09 9.67222e-12 0 2.53703e-08
72 3 0.001 0.00865778 0.00479293 -0.0070447 -4.22083e-10 -1.92031e-10 1.43896e-12 0 2.53733e-08
73 3 0.001 0.00865029 0.00478827 -0.00641432 -9.01262e-10 6.76924e-10 -5.3773e-12 0 2.53759e-08
74 3 0.001 0.00864441 0.00478461 -0.00578392 1.21653e-10 -8.91641e-10 -3.12538e-12 0 2.53782e-08
75 3 0.001 0.00864018 0.00478198 -0.0051535 -4.7561e-10 -2.87596e-10 4.71172e-12 0 2.53799e-08
76 3 0.001 0.00863762 0.00478038 -0.00452307 -1.33522e-09 1.37114e-09 1.1186e-11 0 2.53813e-08
77 3 0.001 0.00863675 0.00477984 -0.00389263 1.40126e-09 -2.97349e-09 3.73237e-12 0 2.53821e-08
78 3 0.001 0.00863756 0.00478034 -0.00326219 -2.06574e-09 2.36311e-09 -4.80609e-12 0 2.53824e-08
79 3 0.001 0.00864006 0.0047819 -0.00263176 3.00932e-11 -9.36464e-10 -2.20966e-12 0 2.53822e-08
80 3 0.001 0.00864422 0.0047845 -0.00200133 5.50356e-10 -1.49331e-09 4.41105e-12 0 2.53815e-08
81 3 0.001 0.00865004 0.00478812 -0.00137093 -2.21123e-09 2.52204e-09 1.05257e-11 0 2.53804e-08
82 3 0.001 0.00865747 0.00479275 -0.000740553 1.13784e-09 -2.54387e-09 2.64813e-12 0 2.53789e-08
83 3 0.001 0.00866648 0.00479836 -0.000110202 -8.90436e-10 6.75183e-10 -2.3369e-12 0 2.5377e-08
84 3 0.001 0.00867701 0.00480492 0.000520116 -4.83795e-10 -2.54558e-10 2.35992e-12 0 2.53748e-08
85 3 0.001 0.00868901 0.00481239 0.0011504 -7.58257e-10 8.44975e-10 -1.48048e-12 0 2.53723e-08
86 3 0.001 0.00870242 0.00482074 0.00178064 1.18591e-09 -2.77463e-09 7.72835e-12 0 2.53697e-08
87 3 0.001 0.00871716 0.00482992 0.00241084 -2.88406e-09 3.59184e-09 8.2099e-12 0 2.53669e-08
88 3 0.001 0.00873315 0.00483987 0.003041 2.16603e-09 -3.71834e-09 -8.68324e-12 0 2.5364e-08
89 3 0.001 0.0087503 0.00485056 0.00367112 -1.69161e-09 1.95838e-09 -2.66511e-12 0 2.53612e-08
90 3 0.001 0.00876852 0.0048619 0.00430119 -9.94064e-10 6.0033e-10 6.50082e-12 0 2.53585e-08
91 3 0.001 0.00878771 0.00487385 0.00493123 2.3289e-09 -3.89021e-09 -7.01768e-12 0 2.5356e-08
92 3 0.001 0.00880776 0.00488634 0.00556123 -3.01572e-09 4.0959e-09 1.87923e-12 0 2.53537e-08
93 3 0.001 0.00882857 0.0048993 0.00619119 1.03505e-09 -2.2989e-09 -3.60476e-12 0 2.53517e-08
94 3 0.001 0.00885003 0.00491266 0.00682113 -8.18116e-10 7.66098e-10 -4.5676e-12 0 2.53501e-08
95 3 0.001 0.00887201 0.00492635 0.00745104 4.22022e-10 -7.93589e-10 -1.01209e-11 0 2.53489e-08
96 3 0.001 0.0088944 0.00494029 0.00808093 -9.95608e-10 6.92812e-10 6.7508e-12 0 2.53481e-08
97 3 0.001 0.00891707 0.00495441 0.0087108 1.30352e-09 -2.17342e-09 -2.07883e-11 0 2.53478e-08
98 3 0.001 0.0089399 0.00496863 0.00934067 -1.86682e-09 2.29717e-09 -1.03839e-11 0 2.5348e-08
99 3 0.001 0.00896275 0.00498286 0.00997054 -8.33618e-10 1.51535e-09 -2.1025e-11 0 2.53487e-08
100 3 0.001 0.00898552 0.00499704 0.0106004 3.30709e-09 -6.30148e-09 1.74703e-11 0 2.53499e-08
101 3 0.001 0.00900807 0.00501108 0.0112303 -4.21505e-09 7.1039e-09 -1.78628e-11 0 2.5351e-08
102 3 0.001 0.00903029 0.00502492 0.0118602 2.44099e-09 -4.62545e-09 -1.21436e-11 0 2.53499e-08
103 3 0.001 0.00905205 0.00503848 0.0124901 -6.08204e-10 1.01335e-09 -3.72202e-11 0 2.53441e-08
104 3 0.001 0.00907324 0.00505166 0.0131201 -1.45579e-09 2.16193e-09 -1.89208e-11 0 2.53327e-08
105 3 0.001 0.00909369 0.00506439 0.01375 3.25685e-09 -5.51709e-09 1.83896e-12 0 2.53159e-08
106 3 0.001 0.00911327 0.00507657 0.0143801 -4.76454e-09 7.37402e-09 7.37125e-13 0 2.52944e-08
107 3 0.001 0.00913175 0.00508806 0.0150101 4.0807e-09 -6.2306e-09 -2.83681e-11 0 2.52703e-08
108 3 0.001 0.0091489 0.00509872 0.0156403 -1.68508e-09 2.24539e-09 -2.90284e-11 0 2.52466e-08
109 3 0.001 0.00916442 0.00510837 0.0162704 -1.00444e-09 1.40384e-09 -2.63854e-11 0 2.5228e-08
110 3 0.001 0.00917792 0.0051168 0.0169007 1.30209e-09 -1.72248e-09 -1.6953e-11 0 2.52204e-08
111 3 0.001 0.00918894 0.00512373 0.017531 -9.13518e-11 -1.15695e-10 -8.2444e-13 0 2.52318e-08
112 3 0.001 0.00919693 0.00512885 0.0181614 -5.22269e-10 3.2908e-10 -1.20961e-11 0 2.52715e-08
113 3 0.001 0.00920125 0.00513182 0.0187918 3.96097e-11 6.18383e-10 -2.96407e-11 0 2.53503e-08
114 3 0.001 0.00920113 0.00513221 0.0194222 2.41362e-10 -8.59414e-10 -3.02281e-11 0 2.54793e-08
115 3 0.001 0.00919574 0.00512956 0.0200526 -4.04691e-10 3.21647e-10 -2.81433e-11 0 2.56688e-08
116 3 0.001 0.00918411 0.00512335 0.0206829 4.37725e-10 -3.07695e-10 -4.96993e-12 0 2.59262e-08
117 3 0.001 0.00916522 0.00511301 0.021313 -5.83253e-10 6.67127e-10 -1.57828e-11 0 2.62534e-08
118 3 0.001 0.00913795 0.00509796 0.0219426 7.95691e-11 -2.48514e-10 -2.2508e-11 0 2.66444e-08
119 3 0.001 0.00910117 0.00507757 0.0225715 8.47471e-10 -1.57129e-09 -2.971e-11 0 2.70826e-08
120 3 0.001 0.00905373 0.00505121 0.0231995 -1.44031e-09 2.397e-09 -3.38225e-11 0 2.75418e-08
122 3 0.001 0.00892235 0.00497811 0.024451 -1.63262e-09 2.96167e-09 -8.81595e-12 0 2.8448e-08
121 3 0.001 0.00899447 0.00501825 0.0238262 1.21834e-09 -2.37159e-09 -2.73405e-11 0 2.79978e-08
123 3 0.001 0.00883637 0.00493023 0.0250735 2.28984e-09 -4.33973e-09 -3.24724e-11 0 2.88955e-08
125 3 0.001 0.00861946 0.00480938 0.0263091 2.25846e-09 -3.83142e-09 1.02553e-11 0 2.97426e-08
124 3 0.001 0.00873567 0.00487413 0.0256931 -2.87804e-09 4.79381e-09 -5.78295e-11 0 2.93307e-08
128 3 0.001 0.00817197 0.00455991 0.0281283 1.9904e-09 -3.33652e-09 2.7377e-11 0 3.07355e-08
127 3 0.001 0.00833808 0.00465252 0.0275275 -1.53227e-09 2.24718e-09 -8.75049e-11 0 3.04547e-08
126 3 0.001 0.00848711 0.00473561 0.0269209 -4.96702e-10 5.57989e-10 -4.85211e-11 0 3.01207e-08
129 3 0.001 0.00798853 0.00445761 0.0287224 -2.42185e-09 4.26962e-09 -6.21858e-12 0 3.09554e-08
130 3 0.001 0.00778762 0.00434557 0.029309 3.48794e-09 -6.88151e-09 -1.25083e-10 0 3.11082e-08
133 3 0.001 0.00708089 0.00395136 0.0310166 -4.50981e-10 1.85823e-10 -1.47363e-10 0 3.11303e-08
132 3 0.001 0.0073336 0.00409233 0.0304568 2.01598e-09 -3.44963e-09 5.04103e-11 0 3.11969e-08
131 3 0.001 0.00756927 0.00422378 0.0298874 -3.95656e-09 7.0324e-09 -1.87903e-11 0 3.11894e-08
134 3 0.001 0.00681154 0.00380109 0.0315661 2.17928e-10 -3.22356e-10 3.03987e-11 0 3.09916e-08
135 3 0.001 0.00652604 0.00364181 0.0321048 -2.76363e-10 2.98221e-10 -4.07566e-11 0 3.07847e-08
136 3 0.001 0.00622501 0.00347385 0.0326323 -4.80503e-10 5.24627e-10 -8.88375e-11 0 3.05157e-08
139 3 0.001 0.00523601 0.00292202 0.0341453 -1.27337e-09 2.12885e-09 -3.82915e-11 0 2.94173e-08
138 3 0.001 0.00557918 0.00311351 0.0336526 3.31085e-10 -1.04023e-09 -1.33346e-10 0 2.98226e-08
137 3 0.001 0.00590913 0.00329761 0.0331483 4.30955e-10 -6.16801e-10 8.99084e-11 0 3.01921e-08
140 3 0.001 0.00488049 0.00272364 0.0346264 1.84537e-09 -3.27118e-09 4.74815e-11 0 2.89867e-08
141 3 0.001 0.00451356 0.00251889 0.0350961 -3.2654e-09 5.68348e-09 -3.10114e-11 0 2.85419e-08
142 3 0.001 0.00413618 0.00230829 0.0355549 4.2612e-09 -7.91683e-09 -8.99267e-11 0 2.80938e-08
143 3 0.001 0.00374931 0.00209241 0.0360033 -3.5328e-09 6.23972e-09 -7.3637e-12 0 2.7653e-08
144 3 0.001 0.00335394 0.00187177 0.0364418 1.32244e-09 -2.26104e-09 9.42269e-11 0 2.72296e-08
145 3 0.001 0.00295106 0.00164693 0.0368713 2.33434e-10 -7.27035e-10 -1.2845e-10 0 2.68332e-08
147 3 0.001 0.00212662 0.00118684 0.0377068 3.86008e-10 -4.30316e-10 1.80887e-10 0 2.61539e-08
148 3 0.001 0.00170699 0.000952652 0.0381148 8.2985e-10 -1.73992e-09 -1.2634e-10 0 2.58848e-08
149 3 0.001 0.00128369 0.000716411 0.0385178 -2.04963e-09 3.47362e-09 -1.05635e-10 0 2.53515e-08
146 3 0.001 0.00254163 0.00141844 0.0372926 -8.35197e-10 1.31719e-09 -6.63675e-11 0 2.64721e-08
151 3 0.001 0.000429261 0.000239566 0.0393142 -9.12077e-10 1.45746e-09 -8.88545e-11 0 1.47045e-08
2 2 0.001 0 0 0.03971 -0.00732566 -0.00408628 0.0175598 0 7.34025e-09
150 3 0.001 0.00085761 0.000478623 0.0389171 1.91205e-09 -3.16179e-09 1.77467e-10 0 1.98341e-08
