ITEM: TIMESTEP
500000
ITEM: NUMBER OF ATOMS
151
ITEM: BOX BOUNDS ff ff ff
-1.0000000000000000e-02 1.0000000000000000e-02
-6.0000000000000001e-03 6.0000000000000001e-03
-5.2499999999999998e-02 5.2499999999999998e-02
ITEM: ATOMS id type radius x y z fx fy fz c_bendingE c_stretchingE
3 3 0.001 1.99836e-05 7.3213e-05 -0.0468718 1.81241e-09 3.28941e-09 -2.16524e-09 0 8.92668e-10
1 1 0.001 0 0 -0.0475 -0.000108399 -0.000918574 -0.0073953 0 4.46333e-10
4 3 0.001 3.9942e-05 0.000146437 -0.0462436 3.54559e-09 6.72894e-09 -4.33568e-09 0 2.61126e-09
5 3 0.001 5.98296e-05 0.000219608 -0.045616 5.27991e-09 1.03436e-08 -6.50718e-09 0 4.45446e-09
6 3 0.001 7.9641e-05 0.000292808 -0.0449884 7.03398e-09 1.41262e-08 -8.67929e-09 0 4.57909e-09
7 3 0.001 9.93523e-05 0.000366051 -0.0443609 8.74043e-09 1.81035e-08 -1.08465e-08 0 4.57913e-09
8 3 0.001 0.000118939 0.000439348 -0.0437334 1.04535e-08 2.22224e-08 -1.29975e-08 0 4.57917e-09
9 3 0.001 0.000138376 0.000512708 -0.0431058 1.21674e-08 2.64051e-08 -1.51109e-08 0 4.57922e-09
10 3 0.001 0.00015764 0.000586138 -0.0424783 1.38421e-08 3.06122e-08 -1.71818e-08 0 4.57928e-09
11 3 0.001 0.000176706 0.000659648 -0.0418508 1.55543e-08 3.47875e-08 -1.92019e-08 0 4.57934e-09
12 3 0.001 0.000195551 0.000733245 -0.0412233 1.7208e-08 3.89444e-08 -2.11679e-08 0 4.57941e-09
13 3 0.001 0.000214152 0.000806933 -0.0405957 1.8861e-08 4.30657e-08 -2.30684e-08 0 4.57948e-09
14 3 0.001 0.000232485 0.000880718 -0.0399682 2.04899e-08 4.71593e-08 -2.48915e-08 0 4.57956e-09
15 3 0.001 0.000250527 0.000954603 -0.0393407 2.2083e-08 5.12431e-08 -2.6642e-08 0 4.57963e-09
16 3 0.001 0.000268258 0.00102859 -0.0387132 2.36891e-08 5.52899e-08 -2.83208e-08 0 4.57971e-09
17 3 0.001 0.000285655 0.00110268 -0.0380857 2.51515e-08 5.937e-08 -2.9931e-08 0 4.57979e-09
18 3 0.001 0.000302697 0.00117688 -0.0374582 2.67271e-08 6.33746e-08 -3.14591e-08 0 4.57988e-09
19 3 0.001 0.000319364 0.00125117 -0.0368307 2.82129e-08 6.72952e-08 -3.28924e-08 0 4.57996e-09
20 3 0.001 0.000335635 0.00132556 -0.0362032 2.96302e-08 7.10705e-08 -3.42215e-08 0 4.58004e-09
21 3 0.001 0.000351492 0.00140005 -0.0355757 3.10365e-08 7.46512e-08 -3.54501e-08 0 4.58012e-09
22 3 0.001 0.000366916 0.00147461 -0.0349482 3.24073e-08 7.79924e-08 -3.6576e-08 0 4.5802e-09
23 3 0.001 0.000381888 0.00154925 -0.0343207 3.37181e-08 8.10621e-08 -3.7587e-08 0 4.58028e-09
24 3 0.001 0.000396392 0.00162396 -0.0336932 3.50402e-08 8.37955e-08 -3.8477e-08 0 4.58037e-09
25 3 0.001 0.000410411 0.00169871 -0.0330657 3.62773e-08 8.61915e-08 -3.92438e-08 0 4.58045e-09
26 3 0.001 0.000423929 0.00177351 -0.0324382 3.75562e-08 8.82533e-08 -3.9895e-08 0 4.58053e-09
27 3 0.001 0.000436931 0.00184832 -0.0318106 3.86809e-08 8.99936e-08 -4.04314e-08 0 4.58062e-09
29 3 0.001 0.000461331 0.00199793 -0.0305555 4.07989e-08 9.24732e-08 -4.1192e-08 0 4.5808e-09
28 3 0.001 0.000449403 0.00192313 -0.0311831 3.96917e-08 9.14236e-08 -4.08667e-08 0 4.5807e-09
30 3 0.001 0.000472703 0.00207268 -0.029928 4.17856e-08 9.3086e-08 -4.13971e-08 0 4.58089e-09
31 3 0.001 0.000483508 0.00214737 -0.0293004 4.27314e-08 9.32376e-08 -4.14875e-08 0 4.581e-09
32 3 0.001 0.000493734 0.00222197 -0.0286728 4.36033e-08 9.29342e-08 -4.14677e-08 0 4.58111e-09
33 3 0.001 0.000503372 0.00229644 -0.0280452 4.44146e-08 9.22032e-08 -4.13517e-08 0 4.58124e-09
34 3 0.001 0.000512412 0.00237077 -0.0274175 4.52009e-08 9.10322e-08 -4.11431e-08 0 4.58137e-09
35 3 0.001 0.000520846 0.00244491 -0.0267898 4.5892e-08 8.93866e-08 -4.08394e-08 0 4.58153e-09
36 3 0.001 0.000528668 0.00251884 -0.0261621 4.65386e-08 8.72823e-08 -4.04466e-08 0 4.5817e-09
37 3 0.001 0.000535871 0.00259251 -0.0255344 4.71086e-08 8.46519e-08 -3.99672e-08 0 4.58188e-09
38 3 0.001 0.000542449 0.0026659 -0.0249066 4.76568e-08 8.14713e-08 -3.94044e-08 0 4.58209e-09
39 3 0.001 0.000548399 0.00273896 -0.0242787 4.81206e-08 7.76966e-08 -3.87611e-08 0 4.58233e-09
40 3 0.001 0.000553717 0.00281166 -0.0236508 4.85444e-08 7.33891e-08 -3.80515e-08 0 4.58258e-09
41 3 0.001 0.0005584 0.00288395 -0.0230229 4.8935e-08 6.85971e-08 -3.72832e-08 0 4.58287e-09
42 3 0.001 0.000562447 0.00295578 -0.0223949 4.91788e-08 6.33163e-08 -3.64607e-08 0 4.58319e-09
43 3 0.001 0.000565857 0.00302713 -0.0217668 4.94627e-08 5.77143e-08 -3.56155e-08 0 4.58354e-09
44 3 0.001 0.000568632 0.00309793 -0.0211387 4.96575e-08 5.17178e-08 -3.47449e-08 0 4.58392e-09
45 3 0.001 0.000570771 0.00316815 -0.0205105 4.97858e-08 4.54565e-08 -3.38722e-08 0 4.58434e-09
46 3 0.001 0.000572278 0.00323774 -0.0198823 4.98585e-08 3.90479e-08 -3.30095e-08 0 4.5848e-09
47 3 0.001 0.000573156 0.00330665 -0.0192539 4.98578e-08 3.25092e-08 -3.21641e-08 0 4.58529e-09
48 3 0.001 0.000573409 0.00337483 -0.0186255 4.98029e-08 2.59557e-08 -3.13524e-08 0 4.58582e-09
49 3 0.001 0.000573042 0.00344224 -0.017997 4.96771e-08 1.94216e-08 -3.05826e-08 0 4.58639e-09
50 3 0.001 0.000572061 0.00350882 -0.0173684 4.9533e-08 1.2992e-08 -2.98766e-08 0 4.58701e-09
51 3 0.001 0.000570473 0.00357453 -0.0167398 4.93271e-08 6.65344e-09 -2.92306e-08 0 4.58766e-09
52 3 0.001 0.000568286 0.00363931 -0.016111 4.9108e-08 5.26433e-10 -2.86519e-08 0 4.58835e-09
53 3 0.001 0.000565509 0.00370312 -0.0154821 4.87642e-08 -5.45283e-09 -2.81388e-08 0 4.58908e-09
54 3 0.001 0.000562151 0.00376591 -0.0148532 4.83971e-08 -1.10047e-08 -2.77206e-08 0 4.58985e-09
55 3 0.001 0.000558222 0.00382763 -0.0142241 4.79957e-08 -1.61064e-08 -2.74012e-08 0 4.59065e-09
56 3 0.001 0.000553735 0.00388823 -0.0135949 4.75007e-08 -2.08476e-08 -2.71713e-08 0 4.59149e-09
57 3 0.001 0.0005487 0.00394766 -0.0129656 4.69736e-08 -2.50892e-08 -2.70401e-08 0 4.59236e-09
58 3 0.001 0.00054313 0.00400589 -0.0123362 4.64076e-08 -2.89328e-08 -2.69984e-08 0 4.59326e-09
59 3 0.001 0.00053704 0.00406285 -0.0117067 4.58048e-08 -3.24099e-08 -2.70382e-08 0 4.59419e-09
60 3 0.001 0.000530443 0.00411852 -0.0110771 4.51293e-08 -3.56115e-08 -2.71479e-08 0 4.59514e-09
61 3 0.001 0.000523355 0.00417284 -0.0104474 4.44317e-08 -3.84511e-08 -2.73309e-08 0 4.59611e-09
62 3 0.001 0.00051579 0.00422578 -0.00981756 4.36793e-08 -4.09961e-08 -2.75801e-08 0 4.5971e-09
63 3 0.001 0.000507766 0.00427729 -0.00918761 4.28833e-08 -4.32034e-08 -2.78924e-08 0 4.5981e-09
64 3 0.001 0.000499299 0.00432733 -0.00855755 4.20609e-08 -4.51126e-08 -2.82648e-08 0 4.59911e-09
65 3 0.001 0.000490406 0.00437588 -0.00792738 4.11818e-08 -4.67495e-08 -2.86882e-08 0 4.60012e-09
66 3 0.001 0.000481106 0.00442289 -0.0072971 4.02803e-08 -4.80905e-08 -2.91552e-08 0 4.60114e-09
67 3 0.001 0.000471418 0.00446834 -0.00666671 3.93189e-08 -4.93871e-08 -2.96434e-08 0 4.60214e-09
68 3 0.001 0.00046136 0.0045122 -0.00603621 3.83451e-08 -5.0488e-08 -3.01544e-08 0 4.60314e-09
69 3 0.001 0.000450951 0.00455444 -0.00540561 3.73355e-08 -5.14609e-08 -3.06909e-08 0 4.60413e-09
70 3 0.001 0.000440213 0.00459503 -0.0047749 3.62941e-08 -5.23424e-08 -3.12414e-08 0 4.6051e-09
71 3 0.001 0.000429164 0.00463395 -0.0041441 3.52381e-08 -5.30778e-08 -3.18027e-08 0 4.60605e-09
72 3 0.001 0.000417826 0.00467119 -0.0035132 3.41497e-08 -5.36542e-08 -3.23639e-08 0 4.60697e-09
73 3 0.001 0.00040622 0.00470673 -0.0028822 3.3018e-08 -5.40987e-08 -3.29183e-08 0 4.60786e-09
74 3 0.001 0.000394367 0.00474055 -0.00225112 3.18706e-08 -5.43868e-08 -3.34714e-08 0 4.60872e-09
75 3 0.001 0.000382288 0.00477265 -0.00161995 3.07041e-08 -5.46009e-08 -3.40144e-08 0 4.60955e-09
76 3 0.001 0.000370005 0.00480303 -0.000988702 2.95399e-08 -5.45112e-08 -3.4552e-08 0 4.61033e-09
77 3 0.001 0.000357541 0.00483167 -0.000357374 2.83505e-08 -5.42651e-08 -3.50659e-08 0 4.61108e-09
78 3 0.001 0.000344916 0.00485858 0.000274027 2.71589e-08 -5.36539e-08 -3.55594e-08 0 4.61178e-09
79 3 0.001 0.000332152 0.00488376 0.000905496 2.59446e-08 -5.27371e-08 -3.60326e-08 0 4.61244e-09
80 3 0.001 0.000319273 0.00490722 0.00153703 2.47117e-08 -5.16141e-08 -3.64788e-08 0 4.61305e-09
81 3 0.001 0.0003063 0.00492898 0.00216862 2.34793e-08 -5.01648e-08 -3.68997e-08 0 4.61362e-09
82 3 0.001 0.000293254 0.00494904 0.00280027 2.22396e-08 -4.85723e-08 -3.72812e-08 0 4.61414e-09
83 3 0.001 0.000280159 0.00496742 0.00343196 2.09956e-08 -4.65896e-08 -3.76265e-08 0 4.61462e-09
84 3 0.001 0.000267036 0.00498415 0.00406371 1.97476e-08 -4.45024e-08 -3.79249e-08 0 4.61506e-09
85 3 0.001 0.000253906 0.00499924 0.00469549 1.84915e-08 -4.22485e-08 -3.81826e-08 0 4.61546e-09
86 3 0.001 0.000240791 0.00501274 0.00532731 1.72362e-08 -3.99885e-08 -3.83968e-08 0 4.61569e-09
87 3 0.001 0.000227712 0.00502467 0.00595916 1.60014e-08 -3.77169e-08 -3.85645e-08 0 4.61563e-09
88 3 0.001 0.00021469 0.00503506 0.00659104 1.47729e-08 -3.55225e-08 -3.86883e-08 0 4.61531e-09
89 3 0.001 0.000201746 0.00504395 0.00722294 1.35442e-08 -3.34559e-08 -3.87654e-08 0 4.61486e-09
90 3 0.001 0.000188901 0.00505136 0.00785487 1.23305e-08 -3.16433e-08 -3.88012e-08 0 4.61446e-09
91 3 0.001 0.000176173 0.00505731 0.00848681 1.11336e-08 -3.01292e-08 -3.88013e-08 0 4.61427e-09
92 3 0.001 0.000163583 0.0050618 0.00911877 9.96083e-09 -2.91674e-08 -3.87702e-08 0 4.61446e-09
93 3 0.001 0.00015115 0.00506482 0.00975074 8.77798e-09 -2.86465e-08 -3.87193e-08 0 4.61515e-09
94 3 0.001 0.000138892 0.00506633 0.0103827 7.60542e-09 -2.86733e-08 -3.86468e-08 0 4.61646e-09
95 3 0.001 0.000126827 0.0050663 0.0110147 6.45854e-09 -2.94036e-08 -3.85574e-08 0 4.61849e-09
96 3 0.001 0.000114974 0.00506464 0.0116467 5.34329e-09 -3.08914e-08 -3.84596e-08 0 4.62127e-09
97 3 0.001 0.000103348 0.00506126 0.0122787 4.24899e-09 -3.30196e-08 -3.83591e-08 0 4.62483e-09
98 3 0.001 9.19678e-05 0.00505606 0.0129106 3.21338e-09 -3.58354e-08 -3.82625e-08 0 4.62911e-09
99 3 0.001 8.08479e-05 0.00504891 0.0135426 2.18175e-09 -3.92746e-08 -3.81781e-08 0 4.634e-09
100 3 0.001 7.00041e-05 0.00503967 0.0141745 1.16791e-09 -4.3275e-08 -3.81023e-08 0 4.6393e-09
101 3 0.001 5.94512e-05 0.00502818 0.0148064 2.03267e-10 -4.79876e-08 -3.80455e-08 0 4.64476e-09
102 3 0.001 4.92032e-05 0.00501429 0.0154383 -7.54108e-10 -5.29942e-08 -3.80026e-08 0 4.65009e-09
103 3 0.001 3.92736e-05 0.00499784 0.0160701 -1.65784e-09 -5.85338e-08 -3.79924e-08 0 4.65516e-09
104 3 0.001 2.96751e-05 0.00497868 0.0167018 -2.51931e-09 -6.44571e-08 -3.80144e-08 0 4.66011e-09
105 3 0.001 2.04195e-05 0.00495666 0.0173335 -3.3717e-09 -7.05382e-08 -3.80676e-08 0 4.66507e-09
106 3 0.001 1.15179e-05 0.00493164 0.017965 -4.16961e-09 -7.69676e-08 -3.81544e-08 0 4.66999e-09
107 3 0.001 2.98084e-06 0.00490349 0.0185964 -4.93497e-09 -8.32929e-08 -3.82594e-08 0 4.67484e-09
108 3 0.001 -5.18223e-06 0.00487208 0.0192277 -5.6433e-09 -8.96849e-08 -3.83954e-08 0 4.67957e-09
109 3 0.001 -1.29625e-05 0.0048373 0.0198588 -6.33187e-09 -9.58196e-08 -3.85478e-08 0 4.68415e-09
110 3 0.001 -2.03521e-05 0.00479903 0.0204896 -6.97146e-09 -1.01833e-07 -3.8724e-08 0 4.68853e-09
112 3 0.001 -3.39316e-05 0.00471165 0.0217507 -8.12054e-09 -1.12723e-07 -3.90834e-08 0 4.69659e-09
113 3 0.001 -4.01099e-05 0.00466237 0.0223809 -8.62246e-09 -1.17685e-07 -3.92652e-08 0 4.7002e-09
111 3 0.001 -2.73439e-05 0.00475718 0.0211203 -7.55703e-09 -1.07564e-07 -3.89122e-08 0 4.69269e-09
114 3 0.001 -4.58743e-05 0.00460926 0.0230107 -9.09685e-09 -1.22215e-07 -3.94411e-08 0 4.70349e-09
115 3 0.001 -5.12211e-05 0.00455226 0.0236402 -9.53614e-09 -1.26333e-07 -3.96103e-08 0 4.70643e-09
117 3 0.001 -6.06523e-05 0.00442638 0.024898 -1.02735e-08 -1.33316e-07 -3.98873e-08 0 4.71119e-09
116 3 0.001 -5.61477e-05 0.00449132 0.0242693 -9.92442e-09 -1.30054e-07 -3.97654e-08 0 4.709e-09
118 3 0.001 -6.47339e-05 0.00435743 0.0255263 -1.05737e-08 -1.3622e-07 -3.99867e-08 0 4.71297e-09
119 3 0.001 -6.83926e-05 0.00428443 0.0261542 -1.08433e-08 -1.38577e-07 -4.00364e-08 0 4.71434e-09
120 3 0.001 -7.16292e-05 0.00420736 0.0267815 -1.10644e-08 -1.40442e-07 -4.00512e-08 0 4.71529e-09
122 3 0.001 -7.68442e-05 0.00404106 0.0280347 -1.13512e-08 -1.4294e-07 -3.99499e-08 0 4.71593e-09
121 3 0.001 -7.44455e-05 0.00412624 0.0274084 -1.12257e-08 -1.4195e-07 -4.00327e-08 0 4.71582e-09
123 3 0.001 -7.88289e-05 0.00395184 0.0286605 -1.14409e-08 -1.43385e-07 -3.97891e-08 0 4.71562e-09
124 3 0.001 -8.0404e-05 0.00385861 0.0292856 -1.14779e-08 -1.43379e-07 -3.956e-08 0 4.71491e-09
125 3 0.001 -8.15749e-05 0.00376141 0.0299102 -1.14748e-08 -1.42732e-07 -3.92381e-08 0 4.7138e-09
126 3 0.001 -8.23477e-05 0.00366027 0.0305341 -1.14383e-08 -1.41499e-07 -3.88235e-08 0 4.71231e-09
127 3 0.001 -8.27294e-05 0.00355526 0.0311574 -1.13537e-08 -1.39789e-07 -3.83207e-08 0 4.71047e-09
129 3 0.001 -8.23517e-05 0.00333389 0.0324021 -1.10904e-08 -1.34994e-07 -3.70269e-08 0 4.70583e-09
128 3 0.001 -8.27279e-05 0.00344644 0.0317801 -1.12363e-08 -1.37577e-07 -3.77137e-08 0 4.7083e-09
132 3 0.001 -7.90731e-05 0.00297471 0.034264 -1.04078e-08 -1.24604e-07 -3.43841e-08 0 4.6969e-09
131 3 0.001 -8.05138e-05 0.00309792 0.033644 -1.06754e-08 -1.2842e-07 -3.53497e-08 0 4.70009e-09
130 3 0.001 -8.16103e-05 0.00321769 0.0330234 -1.09012e-08 -1.31956e-07 -3.6242e-08 0 4.70308e-09
133 3 0.001 -7.72999e-05 0.00284814 0.0348833 -1.01229e-08 -1.20396e-07 -3.33161e-08 0 4.69354e-09
134 3 0.001 -7.52063e-05 0.00271834 0.0355019 -9.79281e-09 -1.15952e-07 -3.21726e-08 0 4.69005e-09
136 3 0.001 -7.01106e-05 0.00244955 0.0367371 -9.05801e-09 -1.0646e-07 -2.97002e-08 0 4.68284e-09
135 3 0.001 -7.28054e-05 0.00258543 0.0361198 -9.43625e-09 -1.11303e-07 -3.0966e-08 0 4.68647e-09
137 3 0.001 -6.71362e-05 0.00231083 0.0373538 -8.639e-09 -1.01401e-07 -2.83692e-08 0 4.6792e-09
138 3 0.001 -6.38969e-05 0.00216941 0.0379699 -8.17695e-09 -9.62843e-08 -2.69965e-08 0 4.6756e-09
139 3 0.001 -6.04078e-05 0.00202546 0.0385854 -7.70549e-09 -9.09159e-08 -2.55454e-08 0 4.67206e-09
141 3 0.001 -5.27438e-05 0.00173056 0.0398146 -6.68334e-09 -7.95422e-08 -2.24328e-08 0 4.66538e-09
140 3 0.001 -5.66847e-05 0.00187912 0.0392003 -7.20313e-09 -8.53306e-08 -2.40186e-08 0 4.66864e-09
142 3 0.001 -4.86018e-05 0.00157994 0.0404285 -6.14479e-09 -7.34499e-08 -2.07552e-08 0 4.66229e-09
143 3 0.001 -4.42756e-05 0.00142744 0.0410419 -5.58394e-09 -6.70708e-08 -1.8987e-08 0 4.65944e-09
144 3 0.001 -3.97826e-05 0.00127324 0.0416549 -4.99639e-09 -6.04468e-08 -1.71341e-08 0 4.65683e-09
145 3 0.001 -3.51406e-05 0.00111751 0.0422675 -4.40452e-09 -5.35444e-08 -1.51957e-08 0 4.65451e-09
146 3 0.001 -3.03675e-05 0.000960431 0.0428797 -3.80164e-09 -4.63345e-08 -1.31675e-08 0 4.6525e-09
147 3 0.001 -2.54816e-05 0.000802198 0.0434917 -3.18932e-09 -3.88999e-08 -1.10769e-08 0 4.65083e-09
148 3 0.001 -2.05013e-05 0.000642998 0.0441034 -2.56437e-09 -3.12955e-08 -8.92426e-09 0 4.64952e-09
149 3 0.001 -1.54453e-05 0.000483021 0.0447149 -1.92301e-09 -2.35406e-08 -6.72096e-09 0 4.52298e-09
150 3 0.001 -1.03321e-05 0.00032245 0.0453262 -1.27396e-09 -1.57479e-08 -4.49449e-09 0 2.66004e-09
151 3 0.001 -5.17557e-06 0.000161323 0.0459381 -6.32298e-10 -7.88327e-09 -2.24711e-09 0 9.23082e-10
2 2 0.001 0 0 0.04655 -3.47476e-05 -0.000926311 0.00752073 0 4.61547e-10
