ITEM: TIMESTEP
1000000
ITEM: NUMBER OF ATOMS
151
ITEM: BOX BOUNDS ff ff ff
-1.0000000000000000e-02 1.0000000000000000e-02
-6.0000000000000001e-03 6.0000000000000001e-03
-5.2499999999999998e-02 5.2499999999999998e-02
ITEM: ATOMS id type radius x y z fx fy fz c_bendingE c_stretchingE
3 3 0.001 0.000140548 0.000105396 -0.0468911 -3.91995e-11 -1.3685e-11 6.97901e-12 0 5.4098e-10
1 1 0.001 0 0 -0.0475 -4.94302e-05 -2.85552e-05 -0.0016239 0 2.70495e-10
4 3 0.001 0.000281036 0.000210745 -0.0462821 -1.06592e-11 2.51446e-11 -1.16687e-11 0 3.48917e-10
5 3 0.001 0.000421261 0.000315893 -0.0456738 -7.9233e-11 -1.08977e-11 7.42656e-12 0 1.80879e-10
6 3 0.001 0.000561301 0.000420897 -0.0450654 -7.24006e-11 1.12621e-11 -2.60841e-12 0 2.0492e-10
7 3 0.001 0.000701102 0.000525716 -0.0444569 -1.07723e-10 -2.34772e-13 1.98495e-12 0 2.04977e-10
8 3 0.001 0.000840606 0.000630304 -0.0438483 -1.12308e-10 1.37226e-11 -2.46268e-12 0 2.05046e-10
9 3 0.001 0.000979754 0.000734614 -0.0432396 -1.4019e-10 7.5233e-12 -9.47183e-13 0 2.05128e-10
10 3 0.001 0.00111849 0.000838601 -0.0426307 -1.62633e-10 8.44574e-12 7.53651e-13 0 2.05223e-10
11 3 0.001 0.00125674 0.000942219 -0.0420217 -1.80123e-10 9.76173e-12 -3.63489e-13 0 2.05329e-10
12 3 0.001 0.00139447 0.00104542 -0.0414124 -1.98014e-10 1.25994e-11 2.98277e-13 0 2.05447e-10
13 3 0.001 0.0015316 0.00114816 -0.040803 -2.1506e-10 1.60197e-11 -2.18292e-12 0 2.05577e-10
14 3 0.001 0.00166808 0.0012504 -0.0401933 -2.41036e-10 1.20748e-11 4.18328e-13 0 2.05718e-10
15 3 0.001 0.00180385 0.00135209 -0.0395834 -2.56716e-10 1.51008e-11 -1.40681e-12 0 2.05871e-10
16 3 0.001 0.00193886 0.00145318 -0.0389732 -2.68613e-10 2.30856e-11 -2.92468e-12 0 2.06035e-10
17 3 0.001 0.00207304 0.00155363 -0.0383627 -3.03663e-10 1.03453e-11 2.34416e-12 0 2.0621e-10
18 3 0.001 0.00220634 0.0016534 -0.0377519 -3.20568e-10 1.35193e-11 1.68571e-12 0 2.06395e-10
19 3 0.001 0.00233869 0.00175244 -0.0371408 -3.23285e-10 2.76609e-11 -4.94334e-12 0 2.0659e-10
20 3 0.001 0.00247006 0.0018507 -0.0365294 -3.45526e-10 2.46561e-11 -2.27982e-12 0 2.06795e-10
21 3 0.001 0.00260037 0.00194815 -0.0359176 -3.82021e-10 1.17627e-11 2.88939e-12 0 2.0701e-10
22 3 0.001 0.00272957 0.00204474 -0.0353054 -3.84523e-10 2.46128e-11 -1.48808e-12 0 2.07233e-10
23 3 0.001 0.0028576 0.00214043 -0.0346929 -4.13826e-10 1.76432e-11 1.03104e-12 0 2.07466e-10
24 3 0.001 0.00298442 0.00223517 -0.0340799 -4.04017e-10 3.91128e-11 -7.95095e-12 0 2.07707e-10
25 3 0.001 0.00310995 0.00232893 -0.0334665 -4.5832e-10 1.18892e-11 4.77731e-12 0 2.07956e-10
26 3 0.001 0.00323416 0.00242166 -0.0328527 -4.66216e-10 1.93038e-11 1.1417e-12 0 2.08213e-10
27 3 0.001 0.00335699 0.00251332 -0.0322385 -4.6078e-10 3.78318e-11 -6.52004e-12 0 2.08477e-10
28 3 0.001 0.00347837 0.00260387 -0.0316238 -5.05306e-10 1.77359e-11 3.27761e-12 0 2.08747e-10
29 3 0.001 0.00359827 0.00269327 -0.0310086 -5.05325e-10 3.06701e-11 -2.57099e-12 0 2.09024e-10
30 3 0.001 0.00371662 0.00278148 -0.030393 -5.31863e-10 2.29673e-11 -2.05107e-13 0 2.09307e-10
31 3 0.001 0.00383337 0.00286846 -0.0297769 -5.41221e-10 3.05259e-11 -2.03958e-12 0 2.09595e-10
32 3 0.001 0.00394848 0.00295417 -0.0291603 -5.69727e-10 1.96521e-11 2.57705e-12 0 2.09889e-10
33 3 0.001 0.00406189 0.00303858 -0.0285432 -5.65936e-10 3.55454e-11 -4.22164e-12 0 2.10186e-10
34 3 0.001 0.00417355 0.00312164 -0.0279257 -5.87674e-10 3.09664e-11 -1.6269e-12 0 2.10487e-10
35 3 0.001 0.00428341 0.00320333 -0.0273076 -6.30237e-10 1.11322e-11 5.17117e-12 0 2.10792e-10
36 3 0.001 0.00439143 0.00328359 -0.026689 -5.95454e-10 4.8573e-11 -8.02498e-12 0 2.111e-10
37 3 0.001 0.00449754 0.00336241 -0.0260698 -6.59389e-10 1.18077e-11 4.99664e-12 0 2.1141e-10
38 3 0.001 0.00460172 0.00343973 -0.0254502 -6.46682e-10 3.1631e-11 -1.63738e-12 0 2.11722e-10
39 3 0.001 0.00470391 0.00351554 -0.0248301 -6.57499e-10 3.48254e-11 -3.26685e-12 0 2.12035e-10
40 3 0.001 0.00480406 0.00358979 -0.0242094 -6.95789e-10 1.61524e-11 3.92724e-12 0 2.12349e-10
41 3 0.001 0.00490213 0.00366245 -0.0235882 -6.78247e-10 4.02715e-11 -5.62156e-12 0 2.12663e-10
42 3 0.001 0.00499807 0.00373349 -0.0229665 -7.19407e-10 1.82483e-11 3.90795e-12 0 2.12977e-10
43 3 0.001 0.00509185 0.00380288 -0.0223443 -7.19964e-10 2.72589e-11 -1.37127e-12 0 2.1329e-10
44 3 0.001 0.00518341 0.00387059 -0.0217215 -7.31626e-10 2.82014e-11 -6.04748e-13 0 2.13602e-10
45 3 0.001 0.00527272 0.00393658 -0.0210983 -7.4605e-10 2.63646e-11 -4.21381e-13 0 2.13911e-10
46 3 0.001 0.00535974 0.00400083 -0.0204745 -7.52653e-10 2.99736e-11 -9.95536e-13 0 2.14219e-10
47 3 0.001 0.00544442 0.00406332 -0.0198503 -7.86298e-10 1.34829e-11 2.92491e-12 0 2.14523e-10
48 3 0.001 0.00552673 0.00412401 -0.0192255 -7.63407e-10 3.78246e-11 -3.79519e-12 0 2.14824e-10
49 3 0.001 0.00560663 0.00418287 -0.0186003 -8.05341e-10 1.44562e-11 2.62897e-12 0 2.15121e-10
50 3 0.001 0.00568409 0.00423989 -0.0179745 -7.98513e-10 2.77019e-11 -9.74852e-13 0 2.15414e-10
51 3 0.001 0.00575906 0.00429503 -0.0173484 -8.09811e-10 2.57742e-11 -5.66164e-13 0 2.15702e-10
52 3 0.001 0.00583151 0.00434828 -0.0167217 -8.34878e-10 1.40129e-11 1.59093e-12 0 2.15984e-10
53 3 0.001 0.0059014 0.00439961 -0.0160946 -8.22049e-10 3.04608e-11 -9.75945e-13 0 2.1626e-10
54 3 0.001 0.00596872 0.004449 -0.0154671 -8.52979e-10 1.29013e-11 1.39788e-12 0 2.1653e-10
55 3 0.001 0.00603342 0.00449643 -0.0148391 -8.46802e-10 2.39727e-11 -4.74226e-13 0 2.16793e-10
56 3 0.001 0.00609547 0.00454187 -0.0142107 -8.56339e-10 2.24362e-11 -1.67674e-13 0 2.17049e-10
57 3 0.001 0.00615484 0.00458532 -0.013582 -8.75126e-10 1.40604e-11 1.03271e-12 0 2.17297e-10
58 3 0.001 0.00621152 0.00462675 -0.0129528 -8.77444e-10 1.70437e-11 1.39789e-13 0 2.17537e-10
59 3 0.001 0.00626546 0.00466615 -0.0123233 -8.7646e-10 2.19859e-11 3.50931e-14 0 2.17768e-10
60 3 0.001 0.00631665 0.0047035 -0.0116934 -8.97015e-10 1.26999e-11 1.00028e-12 0 2.1799e-10
61 3 0.001 0.00636506 0.00473878 -0.0110632 -8.98516e-10 1.36636e-11 2.83912e-13 0 2.18204e-10
62 3 0.001 0.00641066 0.00477199 -0.0104326 -8.99563e-10 1.87677e-11 -2.12531e-13 0 2.18407e-10
63 3 0.001 0.00645344 0.00480311 -0.00980175 -9.15015e-10 1.02876e-11 7.8654e-13 0 2.18601e-10
64 3 0.001 0.00649338 0.00483213 -0.00917062 -9.09879e-10 1.65012e-11 3.7209e-13 0 2.18784e-10
65 3 0.001 0.00653045 0.00485904 -0.00853921 -9.24916e-10 9.36047e-12 4.16519e-13 0 2.18957e-10
66 3 0.001 0.00656464 0.00488383 -0.00790756 -9.25264e-10 1.13609e-11 8.1104e-13 0 2.1912e-10
67 3 0.001 0.00659593 0.00490649 -0.00727567 -9.23497e-10 1.56315e-11 -4.51717e-13 0 2.19271e-10
68 3 0.001 0.00662431 0.00492702 -0.00664358 -9.44761e-10 2.48365e-12 9.71461e-13 0 2.19411e-10
69 3 0.001 0.00664977 0.00494541 -0.00601129 -9.20706e-10 2.0993e-11 -4.86567e-13 0 2.1954e-10
70 3 0.001 0.00667228 0.00496166 -0.00537884 -9.5206e-10 8.45888e-13 1.25932e-12 0 2.19657e-10
71 3 0.001 0.00669184 0.00497577 -0.00474623 -9.45546e-10 5.99971e-12 1.70117e-14 0 2.19762e-10
72 3 0.001 0.00670845 0.00498772 -0.0041135 -9.32087e-10 1.7968e-11 -2.66399e-13 0 2.19855e-10
73 3 0.001 0.00672209 0.00499753 -0.00348066 -9.58609e-10 -7.49104e-13 6.69737e-13 0 2.19937e-10
74 3 0.001 0.00673275 0.00500519 -0.00284773 -9.44399e-10 1.10331e-11 1.20536e-13 0 2.20003e-10
75 3 0.001 0.00674043 0.0050107 -0.00221474 -9.45356e-10 9.66995e-12 -1.1953e-13 0 2.20053e-10
76 3 0.001 0.00674513 0.00501407 -0.0015817 -9.5431e-10 4.47913e-12 6.34291e-13 0 2.20096e-10
77 3 0.001 0.00674684 0.0050153 -0.000948641 -9.50025e-10 6.90864e-12 -2.82001e-13 0 2.20144e-10
78 3 0.001 0.00674557 0.00501438 -0.000315579 -9.48957e-10 8.73714e-12 -7.59129e-14 0 2.20202e-10
79 3 0.001 0.00674131 0.00501132 0.000317463 -9.51058e-10 5.45842e-12 -2.90115e-13 0 2.20267e-10
80 3 0.001 0.00673406 0.00500612 0.000950464 -9.46457e-10 1.02191e-11 5.06628e-13 0 2.20327e-10
81 3 0.001 0.00672384 0.00499877 0.0015834 -9.45264e-10 8.49251e-12 -7.13607e-13 0 2.2037e-10
82 3 0.001 0.00671063 0.00498927 0.00221626 -9.47937e-10 6.24444e-12 7.93474e-14 0 2.20398e-10
83 3 0.001 0.00669446 0.00497761 0.00284901 -9.48397e-10 5.05627e-12 -3.20591e-13 0 2.20413e-10
84 3 0.001 0.00667532 0.00496381 0.00348163 -9.30594e-10 1.6518e-11 -2.86604e-13 0 2.20417e-10
85 3 0.001 0.00665322 0.00494786 0.00411411 -9.37146e-10 9.69673e-12 6.61891e-13 0 2.20409e-10
87 3 0.001 0.00660021 0.00490953 0.00537854 -9.09578e-10 2.50403e-11 1.13354e-12 0 2.20357e-10
86 3 0.001 0.00662818 0.00492977 0.00474642 -9.47775e-10 1.04094e-12 -1.45201e-12 0 2.20388e-10
88 3 0.001 0.00656931 0.00488715 0.00601045 -9.43414e-10 -8.65187e-13 -2.23811e-12 0 2.20313e-10
89 3 0.001 0.00653551 0.00486264 0.00664214 -9.20844e-10 1.28734e-11 -1.86973e-13 0 2.20259e-10
90 3 0.001 0.00649882 0.00483601 0.00727358 -8.94695e-10 2.90266e-11 2.12739e-12 0 2.20193e-10
91 3 0.001 0.00645926 0.00480726 0.00790475 -9.31835e-10 -1.89378e-12 -2.34407e-12 0 2.20116e-10
92 3 0.001 0.00641684 0.0047764 0.00853563 -8.99216e-10 1.91123e-11 1.73317e-13 0 2.20029e-10
93 3 0.001 0.00637159 0.00474345 0.00916622 -8.96854e-10 1.72047e-11 -6.71249e-13 0 2.19931e-10
94 3 0.001 0.00632352 0.00470841 0.00979648 -8.90723e-10 1.595e-11 -2.31893e-13 0 2.19824e-10
95 3 0.001 0.00627266 0.0046713 0.0104264 -8.8619e-10 1.70077e-11 3.37467e-14 0 2.19706e-10
96 3 0.001 0.00621904 0.00463213 0.011056 -8.78372e-10 1.73307e-11 2.39613e-13 0 2.1958e-10
97 3 0.001 0.00616267 0.00459093 0.0116852 -8.70972e-10 1.80364e-11 -1.5584e-12 0 2.19444e-10
99 3 0.001 0.00604181 0.00450245 0.0129424 -8.5621e-10 1.78745e-11 1.54553e-13 0 2.19147e-10
98 3 0.001 0.00610358 0.00454769 0.012314 -8.55658e-10 2.34859e-11 6.05227e-13 0 2.193e-10
101 3 0.001 0.0059103 0.004406 0.014198 -8.36954e-10 2.05749e-11 -5.08727e-13 0 2.18819e-10
100 3 0.001 0.00597737 0.00445521 0.0135704 -8.45253e-10 1.97601e-11 -9.72991e-13 0 2.18987e-10
102 3 0.001 0.00584064 0.00435485 0.0148251 -8.16582e-10 2.91583e-11 1.88862e-12 0 2.18644e-10
104 3 0.001 0.00569364 0.00424676 0.016078 -8.08543e-10 2.06542e-11 -1.274e-12 0 2.18276e-10
103 3 0.001 0.0057684 0.00430176 0.0154518 -8.20166e-10 1.88004e-11 -7.97904e-13 0 2.18463e-10
106 3 0.001 0.00553663 0.00413114 0.0173291 -7.8692e-10 2.12055e-11 -1.30621e-14 0 2.17885e-10
105 3 0.001 0.00561637 0.00418988 0.0167038 -7.84603e-10 3.20813e-11 1.50948e-12 0 2.18083e-10
108 3 0.001 0.00536992 0.00400818 0.0185781 -7.4485e-10 3.77964e-11 3.97408e-12 0 2.17476e-10
107 3 0.001 0.00545447 0.00407056 0.0179538 -7.7872e-10 2.00182e-11 -1.60625e-12 0 2.17683e-10
109 3 0.001 0.00528302 0.00394401 0.0192019 -7.57957e-10 1.8089e-11 -2.96088e-12 0 2.17266e-10
111 3 0.001 0.00510232 0.00381044 0.0204479 -7.10675e-10 3.60913e-11 3.20843e-12 0 2.16838e-10
110 3 0.001 0.00519381 0.00387809 0.0198252 -7.37937e-10 2.43638e-11 -1.39015e-14 0 2.17053e-10
112 3 0.001 0.00500861 0.0037411 0.0210702 -7.17951e-10 2.09001e-11 -1.92117e-12 0 2.16621e-10
113 3 0.001 0.00491271 0.0036701 0.0216919 -6.89687e-10 3.27371e-11 2.45125e-12 0 2.16402e-10
114 3 0.001 0.00481466 0.00359746 0.0223131 -6.86021e-10 2.43093e-11 -9.46179e-13 0 2.16183e-10
115 3 0.001 0.00471452 0.00352321 0.0229338 -6.70051e-10 2.71106e-11 -1.65527e-13 0 2.15963e-10
116 3 0.001 0.00461232 0.0034474 0.0235539 -6.5257e-10 2.86658e-11 1.42625e-12 0 2.15744e-10
118 3 0.001 0.00440194 0.00329121 0.0247926 -6.31721e-10 2.28498e-11 -9.95048e-13 0 2.15308e-10
117 3 0.001 0.00450811 0.00337006 0.0241735 -6.31718e-10 3.35599e-11 2.15709e-12 0 2.15525e-10
119 3 0.001 0.00429386 0.0032109 0.0254112 -6.06926e-10 2.95862e-11 1.37123e-12 0 2.15093e-10
120 3 0.001 0.00418391 0.00312916 0.0260293 -5.98201e-10 2.53108e-11 -1.5698e-13 0 2.1488e-10
121 3 0.001 0.00407215 0.00304602 0.0266468 -5.67697e-10 3.44463e-11 2.70347e-12 0 2.14671e-10
123 3 0.001 0.00384337 0.00287571 0.0278804 -5.51289e-10 2.35638e-11 -9.55804e-13 0 2.14263e-10
122 3 0.001 0.00395862 0.00296153 0.0272639 -5.67033e-10 2.36072e-11 -1.56486e-13 0 2.14465e-10
125 3 0.001 0.00360793 0.00270029 0.029112 -5.23931e-10 1.87225e-11 -3.11681e-12 0 2.13873e-10
124 3 0.001 0.00372646 0.00278862 0.0284965 -5.18325e-10 3.46194e-11 4.65022e-12 0 2.14065e-10
126 3 0.001 0.00348784 0.00261075 0.0297271 -4.84791e-10 3.36406e-11 4.22213e-12 0 2.13686e-10
128 3 0.001 0.0032432 0.00242823 0.0309559 -4.58313e-10 2.6929e-11 1.53951e-12 0 2.13331e-10
127 3 0.001 0.00336625 0.00252005 0.0303418 -4.86249e-10 1.93377e-11 -1.43975e-12 0 2.13505e-10
130 3 0.001 0.00299295 0.00224138 0.0321829 -4.23151e-10 2.59916e-11 2.05058e-12 0 2.13005e-10
129 3 0.001 0.00311875 0.00233532 0.0315696 -4.4345e-10 2.4419e-11 1.17935e-12 0 2.13164e-10
131 3 0.001 0.00286587 0.00214644 0.0327958 -4.08358e-10 2.19078e-11 -1.08551e-14 0 2.12853e-10
132 3 0.001 0.00273754 0.00205054 0.0334083 -3.97242e-10 1.63843e-11 -1.5879e-12 0 2.1271e-10
133 3 0.001 0.00260804 0.00195373 0.0340203 -3.55901e-10 3.31336e-11 5.95608e-12 0 2.12576e-10
135 3 0.001 0.00234572 0.00175755 0.0352434 -3.23224e-10 2.82444e-11 5.15096e-12 0 2.12336e-10
136 3 0.001 0.00221302 0.00165827 0.0358544 -3.20744e-10 1.43894e-11 -1.65889e-12 0 2.1223e-10
134 3 0.001 0.00247742 0.00185606 0.034632 -3.68063e-10 8.01045e-12 -4.55087e-12 0 2.12451e-10
138 3 0.001 0.00194482 0.00145752 0.0370754 -2.73885e-10 1.86746e-11 1.62461e-12 0 2.1205e-10
137 3 0.001 0.00207937 0.00155824 0.036465 -2.94347e-10 1.92481e-11 1.51323e-12 0 2.12135e-10
140 3 0.001 0.00167328 0.00125419 0.0382952 -2.35174e-10 1.70093e-11 2.12116e-12 0 2.11915e-10
139 3 0.001 0.00180944 0.00135616 0.0376854 -2.63275e-10 1.13866e-11 -1.17776e-12 0 2.11977e-10
141 3 0.001 0.0015364 0.00115166 0.0389048 -2.17019e-10 1.49966e-11 7.33218e-13 0 2.11864e-10
142 3 0.001 0.00139886 0.00104863 0.0395141 -2.00114e-10 1.16209e-11 7.23662e-13 0 2.11826e-10
143 3 0.001 0.00126073 0.00094512 0.0401231 -1.87348e-10 5.59071e-12 -2.86672e-12 0 2.11799e-10
145 3 0.001 0.000982884 0.000736895 0.0413407 -1.32314e-10 1.38535e-11 3.50119e-12 0 2.11783e-10
144 3 0.001 0.00112205 0.000841194 0.040732 -1.53146e-10 1.53335e-11 3.33301e-12 0 2.11785e-10
147 3 0.001 0.000703356 0.000527359 0.0425577 -9.28085e-11 1.25306e-11 3.19451e-12 0 2.11817e-10
148 3 0.001 0.000563109 0.000422215 0.043166 -8.02109e-11 4.99615e-12 9.71255e-14 0 2.11854e-10
146 3 0.001 0.000843301 0.000632267 0.0419493 -1.35064e-10 -3.56418e-12 -5.55188e-12 0 2.11794e-10
149 3 0.001 0.000422621 0.000316884 0.0437743 -5.66655e-11 6.61271e-12 1.82228e-12 0 1.87465e-10
150 3 0.001 0.000281945 0.000211407 0.0443825 -5.30696e-11 -7.68711e-12 -4.87571e-12 0 3.46289e-10
151 3 0.001 0.000141003 0.000105727 0.0449912 -6.13729e-12 1.21771e-11 5.16692e-12 0 5.29458e-10
2 2 0.001 0 0 0.0456 -5.20919e-05 -3.05642e-05 0.00165255 0 2.64696e-10
