ITEM: TIMESTEP
5400000
ITEM: NUMBER OF ATOMS
151
ITEM: BOX BOUNDS ff ff ff
-1.0000000000000000e-02 1.0000000000000000e-02
-6.0000000000000001e-03 6.0000000000000001e-03
-5.2499999999999998e-02 5.2499999999999998e-02
ITEM: ATOMS id type radius x y z fx fy fz c_bendingE c_stretchingE
3 3 0.001 0.000345004 0.000305212 -0.0470672 1.49905e-11 -8.81932e-12 -6.58532e-12 0 4.78977e-09
1 1 0.001 0 0 -0.0475 -0.00451613 -0.000626269 -0.0131792 0 2.38945e-09
4 3 0.001 0.000689627 0.000609422 -0.0466333 -6.82611e-13 2.4709e-12 -3.52241e-12 0 7.97888e-09
5 3 0.001 0.00103313 0.000911309 -0.046198 3.08481e-11 -2.0551e-11 -1.22384e-11 0 1.14123e-08
6 3 0.001 0.00137544 0.00121017 -0.0457596 1.46601e-11 -5.13713e-12 -1.09757e-11 0 1.17329e-08
7 3 0.001 0.00171619 0.00150501 -0.0453174 3.66556e-11 -2.10586e-11 -1.86425e-11 0 1.18791e-08
8 3 0.001 0.00205496 0.00179481 -0.0448703 3.72589e-11 -2.13036e-11 -1.91545e-11 0 1.20543e-08
9 3 0.001 0.0023913 0.00207857 -0.0444176 3.51981e-11 -1.76987e-11 -2.10918e-11 0 1.22565e-08
10 3 0.001 0.00272475 0.00235528 -0.0439585 5.45694e-11 -3.06573e-11 -2.74133e-11 0 1.24832e-08
11 3 0.001 0.00305484 0.0026239 -0.0434922 5.1493e-11 -2.63363e-11 -2.92307e-11 0 1.27315e-08
12 3 0.001 0.00338106 0.00288345 -0.0430182 5.80281e-11 -3.06613e-11 -2.9839e-11 0 1.29979e-08
13 3 0.001 0.00370289 0.00313291 -0.0425358 5.98956e-11 -3.13443e-11 -3.30837e-11 0 1.32786e-08
14 3 0.001 0.00401978 0.00337129 -0.0420447 7.30372e-11 -3.65157e-11 -3.72706e-11 0 1.35693e-08
15 3 0.001 0.00433117 0.00359763 -0.0415445 6.80694e-11 -3.51502e-11 -3.75949e-11 0 1.38653e-08
16 3 0.001 0.00463648 0.00381098 -0.0410349 7.4454e-11 -3.57995e-11 -3.96592e-11 0 1.41617e-08
17 3 0.001 0.00493511 0.00401043 -0.0405159 8.09214e-11 -3.94837e-11 -4.30305e-11 0 1.44532e-08
18 3 0.001 0.00522649 0.00419511 -0.0399873 7.99797e-11 -3.95367e-11 -4.19381e-11 0 1.47344e-08
19 3 0.001 0.00551 0.00436421 -0.0394494 8.52765e-11 -3.85015e-11 -4.5007e-11 0 1.50001e-08
20 3 0.001 0.00578506 0.00451697 -0.0389024 8.19819e-11 -3.49852e-11 -4.49124e-11 0 1.52449e-08
21 3 0.001 0.0060511 0.0046527 -0.0383464 8.98834e-11 -4.34515e-11 -4.77095e-11 0 1.54638e-08
22 3 0.001 0.00630758 0.00477078 -0.0377821 8.42736e-11 -3.31006e-11 -4.68937e-11 0 1.56522e-08
23 3 0.001 0.00655395 0.0048707 -0.0372097 8.45621e-11 -3.49642e-11 -4.65022e-11 0 1.5806e-08
24 3 0.001 0.00678976 0.00495202 -0.0366301 9.13554e-11 -3.51787e-11 -5.00953e-11 0 1.59219e-08
25 3 0.001 0.00701455 0.0050144 -0.0360437 8.25277e-11 -3.10137e-11 -4.78614e-11 0 1.59963e-08
26 3 0.001 0.00722794 0.00505762 -0.0354515 7.85513e-11 -2.52326e-11 -4.74192e-11 0 1.60246e-08
27 3 0.001 0.00742962 0.00508155 -0.034854 8.85401e-11 -2.86714e-11 -5.16026e-11 0 1.60133e-08
28 3 0.001 0.00761932 0.00508616 -0.0342522 6.99042e-11 -1.42781e-11 -4.62656e-11 0 1.59775e-08
29 3 0.001 0.00779685 0.00507148 -0.0336468 8.12124e-11 -1.93737e-11 -5.22753e-11 0 1.59213e-08
30 3 0.001 0.0079621 0.00503764 -0.0330387 6.52851e-11 -7.18405e-12 -4.73848e-11 0 1.58352e-08
31 3 0.001 0.00811503 0.00498483 -0.0324288 7.18006e-11 -5.43374e-12 -5.03202e-11 0 1.57082e-08
32 3 0.001 0.00825566 0.00491334 -0.0318177 5.78956e-11 5.04032e-12 -4.88142e-11 0 1.55419e-08
33 3 0.001 0.00838412 0.00482356 -0.0312064 6.48651e-11 8.76642e-12 -4.99063e-11 0 1.5343e-08
34 3 0.001 0.00850059 0.00471599 -0.0305956 4.47216e-11 2.39262e-11 -4.76789e-11 0 1.51158e-08
37 3 0.001 0.00878107 0.00429259 -0.0287722 5.51756e-11 3.70406e-11 -5.29694e-11 0 1.43128e-08
35 3 0.001 0.00860533 0.00459119 -0.0299859 6.25785e-11 1.9522e-11 -5.33178e-11 0 1.48649e-08
36 3 0.001 0.00869869 0.00444981 -0.0293779 2.71811e-11 4.80148e-11 -4.40989e-11 0 1.45955e-08
39 3 0.001 0.00891485 0.00393379 -0.0275695 2.64819e-11 7.01826e-11 -4.68303e-11 0 1.37287e-08
38 3 0.001 0.00885294 0.0041203 -0.0281693 2.67175e-11 6.15292e-11 -4.54481e-11 0 1.40221e-08
40 3 0.001 0.00896739 0.00373395 -0.026973 3.84822e-11 6.94293e-11 -5.02959e-11 0 1.34376e-08
42 3 0.001 0.00904696 0.00329802 -0.0257909 2.65035e-11 9.3998e-11 -4.7197e-11 0 1.2877e-08
41 3 0.001 0.00901119 0.00352171 -0.0263802 7.16874e-12 9.94643e-11 -4.19108e-11 0 1.31531e-08
45 3 0.001 0.00911344 0.00256819 -0.0240448 1.01493e-11 1.33375e-10 -4.20662e-11 0 1.21461e-08
44 3 0.001 0.00909733 0.00282025 -0.0246234 1.01113e-11 1.24637e-10 -4.10488e-11 0 1.2367e-08
43 3 0.001 0.00907543 0.00306387 -0.0252054 9.85321e-12 1.13456e-10 -4.32207e-11 0 1.26126e-08
47 3 0.001 0.00913115 0.00204282 -0.0228968 3.33398e-12 1.58173e-10 -3.76782e-11 0 1.17926e-08
46 3 0.001 0.00912447 0.0023087 -0.0234693 -1.18995e-12 1.49596e-10 -3.74962e-11 0 1.1954e-08
50 3 0.001 0.00913137 0.00121713 -0.0211921 -6.48254e-12 1.97194e-10 -3.03901e-11 0 1.14919e-08
49 3 0.001 0.00913402 0.00149599 -0.0217586 -5.09582e-12 1.81828e-10 -3.20882e-11 0 1.15625e-08
48 3 0.001 0.00913413 0.00177157 -0.0223266 2.73641e-12 1.68324e-10 -3.59371e-11 0 1.16623e-08
52 3 0.001 0.00912042 0.000653704 -0.020062 -8.88377e-12 2.1939e-10 -2.42097e-11 0 1.14329e-08
51 3 0.001 0.00912669 0.000936016 -0.0206268 -4.58797e-12 1.99901e-10 -3.05474e-11 0 1.14492e-08
55 3 0.001 0.00909599 -0.00019025 -0.0183665 -1.64562e-11 2.44516e-10 -2.11777e-11 0 1.15224e-08
54 3 0.001 0.00910483 8.95478e-05 -0.0189324 -8.95899e-12 2.39521e-10 -2.1111e-11 0 1.14703e-08
53 3 0.001 0.00911304 0.000371225 -0.0194974 -1.01165e-11 2.2417e-10 -2.57445e-11 0 1.14404e-08
57 3 0.001 0.00907729 -0.00074002 -0.0172298 -2.8446e-11 2.67545e-10 -1.57374e-11 0 1.16868e-08
56 3 0.001 0.00908675 -0.000467118 -0.0177991 -7.89201e-12 2.60041e-10 -1.63028e-11 0 1.15951e-08
58 3 0.001 0.00906777 -0.00100793 -0.0166582 -4.17356e-12 2.75586e-10 -1.36873e-11 0 1.17963e-08
60 3 0.001 0.009049 -0.00152468 -0.0155063 -1.02854e-11 2.95696e-10 -9.29315e-12 0 1.2062e-08
59 3 0.001 0.0090583 -0.00126982 -0.0160838 -3.15993e-11 2.84919e-10 -1.27473e-11 0 1.19219e-08
63 3 0.001 0.00902274 -0.00223714 -0.0137518 -3.00469e-11 3.16441e-10 -6.18841e-12 0 1.25497e-08
62 3 0.001 0.00903116 -0.00200932 -0.0143405 -1.42806e-11 3.07633e-10 -7.22671e-12 0 1.2378e-08
61 3 0.001 0.00903993 -0.00177151 -0.0149252 -3.83735e-11 3.05608e-10 -7.95155e-12 0 1.22147e-08
65 3 0.001 0.00900714 -0.00265907 -0.012562 -2.37408e-11 3.29431e-10 -3.84113e-12 0 1.29082e-08
64 3 0.001 0.00901473 -0.00245403 -0.013159 -3.62828e-11 3.29206e-10 -3.54699e-12 0 1.27273e-08
67 3 0.001 0.00899342 -0.00303011 -0.0113554 -4.12078e-11 3.44759e-10 -7.31608e-13 0 1.32689e-08
66 3 0.001 0.00900003 -0.00285138 -0.0119608 -3.30677e-11 3.38434e-10 -2.82445e-12 0 1.30897e-08
68 3 0.001 0.00898734 -0.00319446 -0.010746 -3.03067e-11 3.4714e-10 -5.58268e-13 0 1.34428e-08
69 3 0.001 0.00898181 -0.0033437 -0.0101327 -4.10982e-11 3.54481e-10 -6.54341e-13 0 1.36085e-08
70 3 0.001 0.00897687 -0.00347711 -0.00951572 -2.57373e-11 3.56585e-10 -2.7638e-13 0 1.3763e-08
72 3 0.001 0.00896883 -0.00369406 -0.00827227 -3.36107e-11 3.62717e-10 4.15608e-13 0 1.40274e-08
71 3 0.001 0.00897254 -0.00359409 -0.00889548 -4.76705e-11 3.61837e-10 1.20437e-13 0 1.39035e-08
73 3 0.001 0.00896577 -0.00377656 -0.00764651 -3.75105e-11 3.68109e-10 8.96179e-13 0 1.41323e-08
74 3 0.001 0.00896337 -0.00384118 -0.00701866 -2.75952e-11 3.68437e-10 1.14253e-12 0 1.42163e-08
75 3 0.001 0.00896165 -0.00388759 -0.00638921 -5.37693e-11 3.68377e-10 2.3794e-13 0 1.42777e-08
76 3 0.001 0.0089606 -0.00391558 -0.00575867 -1.38909e-11 3.71135e-10 3.36591e-13 0 1.43152e-08
77 3 0.001 0.00896024 -0.003925 -0.00512758 -5.1302e-11 3.73418e-10 7.67492e-13 0 1.43283e-08
78 3 0.001 0.00896057 -0.00391581 -0.00449649 -2.29895e-11 3.68698e-10 1.0685e-12 0 1.43165e-08
79 3 0.001 0.00896158 -0.00388805 -0.00386594 -2.84809e-11 3.69469e-10 1.94232e-13 0 1.42802e-08
80 3 0.001 0.00896328 -0.00384186 -0.00323647 -4.16875e-11 3.69841e-10 4.46548e-13 0 1.42201e-08
81 3 0.001 0.00896565 -0.00377746 -0.0026086 -1.72825e-11 3.66919e-10 3.41983e-13 0 1.41373e-08
82 3 0.001 0.00896868 -0.00369517 -0.00198281 -3.3995e-11 3.63928e-10 8.26812e-13 0 1.40336e-08
83 3 0.001 0.00897235 -0.0035954 -0.00135957 -1.98475e-11 3.61069e-10 1.13656e-12 0 1.39108e-08
84 3 0.001 0.00897666 -0.00347862 -0.00073929 -2.95471e-11 3.58565e-10 6.60068e-13 0 1.37713e-08
85 3 0.001 0.00898158 -0.00334539 -0.000122322 -8.41712e-12 3.53807e-10 1.46135e-12 0 1.36178e-08
86 3 0.001 0.00898708 -0.00319634 0.000491022 -3.66851e-11 3.48023e-10 2.23593e-12 0 1.3453e-08
87 3 0.001 0.00899314 -0.00303214 0.0011005 -6.23838e-12 3.44937e-10 2.44447e-12 0 1.32798e-08
88 3 0.001 0.00899973 -0.00285356 0.00170592 -1.29005e-11 3.37131e-10 4.29323e-12 0 1.31014e-08
89 3 0.001 0.00900683 -0.00266139 0.00230718 -2.36495e-11 3.34561e-10 3.27011e-12 0 1.29206e-08
90 3 0.001 0.0090144 -0.00245647 0.00290422 -6.46028e-12 3.24999e-10 5.19951e-12 0 1.27403e-08
91 3 0.001 0.0090224 -0.00223969 0.00349707 -1.27985e-11 3.19014e-10 6.77021e-12 0 1.25632e-08
92 3 0.001 0.00903081 -0.00201196 0.00408581 -1.03586e-11 3.10818e-10 8.31456e-12 0 1.2392e-08
93 3 0.001 0.00903958 -0.00177423 0.00467059 -3.36804e-12 3.04025e-10 9.52546e-12 0 1.22291e-08
94 3 0.001 0.00904865 -0.00152746 0.00525163 -1.57547e-11 2.95773e-10 1.04854e-11 0 1.20768e-08
95 3 0.001 0.00905796 -0.00127265 0.00582919 2.9883e-12 2.87888e-10 1.21034e-11 0 1.19371e-08
96 3 0.001 0.00906744 -0.00101079 0.0064036 -1.64825e-11 2.74679e-10 1.59143e-11 0 1.18118e-08
97 3 0.001 0.00907698 -0.000742904 0.00697524 6.13508e-12 2.70252e-10 1.5691e-11 0 1.17027e-08
98 3 0.001 0.00908647 -0.000470005 0.00754451 -6.65615e-12 2.59445e-10 1.84912e-11 0 1.16112e-08
99 3 0.001 0.00909574 -0.000193126 0.00811186 -5.90364e-12 2.47403e-10 2.15306e-11 0 1.15388e-08
100 3 0.001 0.00910462 8.66963e-05 0.00867778 4.46939e-13 2.39405e-10 2.21117e-11 0 1.1487e-08
101 3 0.001 0.00911289 0.000368412 0.00924278 5.73281e-13 2.24469e-10 2.61241e-11 0 1.14573e-08
102 3 0.001 0.00912033 0.000650943 0.00980738 -2.79557e-12 2.2059e-10 2.59842e-11 0 1.14501e-08
103 3 0.001 0.00912668 0.000933319 0.0103721 1.13689e-12 2.03989e-10 3.04701e-11 0 1.14666e-08
104 3 0.001 0.00913146 0.00121451 0.0109374 1.59213e-12 1.95515e-10 3.14999e-11 0 1.15096e-08
105 3 0.001 0.00913422 0.00149346 0.0115038 4.1722e-12 1.81124e-10 3.50141e-11 0 1.15804e-08
106 3 0.001 0.00913447 0.00176913 0.0120718 -1.10723e-13 1.72703e-10 3.51334e-11 0 1.16804e-08
107 3 0.001 0.00913165 0.00204049 0.0126419 6.17795e-12 1.62868e-10 3.69132e-11 0 1.1811e-08
108 3 0.001 0.00912516 0.00230649 0.0132144 1.16933e-11 1.43394e-10 4.17554e-11 0 1.19728e-08
109 3 0.001 0.00911432 0.00256611 0.0137898 -1.07303e-12 1.39772e-10 3.96464e-11 0 1.21654e-08
110 3 0.001 0.00909844 0.00281831 0.0143683 1.8994e-11 1.2443e-10 4.35352e-11 0 1.23869e-08
111 3 0.001 0.00907678 0.00306207 0.0149503 1.39735e-11 1.11797e-10 4.48886e-11 0 1.26336e-08
112 3 0.001 0.00904858 0.00329637 0.0155358 1.24208e-11 1.04545e-10 4.45811e-11 0 1.28994e-08
113 3 0.001 0.00901309 0.00352022 0.016125 2.41022e-11 8.72733e-11 4.81512e-11 0 1.31772e-08
114 3 0.001 0.00896958 0.00373263 0.0167178 2.34252e-11 8.15742e-11 4.60257e-11 0 1.34634e-08
115 3 0.001 0.00891734 0.00393264 0.0173142 3.10527e-11 6.88438e-11 4.81313e-11 0 1.37562e-08
116 3 0.001 0.00885574 0.00411932 0.017914 3.00793e-11 5.69683e-11 4.92172e-11 0 1.40516e-08
117 3 0.001 0.00878418 0.00429179 0.0185169 3.94449e-11 4.70142e-11 5.03564e-11 0 1.43443e-08
118 3 0.001 0.00870211 0.00444919 0.0191226 4.01306e-11 3.98992e-11 4.83519e-11 0 1.46291e-08
119 3 0.001 0.00860905 0.00459075 0.0197305 4.99013e-11 3.0051e-11 5.05252e-11 0 1.49007e-08
120 3 0.001 0.0085046 0.00471573 0.0203403 5.03973e-11 1.76527e-11 4.97682e-11 0 1.51537e-08
122 3 0.001 0.00826021 0.00491342 0.0215625 5.66647e-11 1.24358e-13 5.01946e-11 0 1.55842e-08
121 3 0.001 0.00838841 0.00482348 0.0209511 5.82583e-11 1.50934e-11 4.9768e-11 0 1.53832e-08
123 3 0.001 0.00811982 0.00498508 0.0221735 6.74171e-11 1.22408e-12 4.9913e-11 0 1.57526e-08
124 3 0.001 0.00796711 0.00503806 0.0227835 7.24169e-11 -1.08483e-11 5.17569e-11 0 1.58815e-08
125 3 0.001 0.00780205 0.00507206 0.0233916 6.65995e-11 -1.16825e-11 4.76065e-11 0 1.59692e-08
126 3 0.001 0.00762468 0.00508688 0.0239971 7.92274e-11 -1.87193e-11 5.13872e-11 0 1.60271e-08
127 3 0.001 0.00743511 0.00508242 0.0245989 8.1049e-11 -2.85294e-11 4.959e-11 0 1.60647e-08
128 3 0.001 0.00723354 0.00505863 0.0251964 7.99834e-11 -2.33894e-11 4.90485e-11 0 1.60779e-08
130 3 0.001 0.00679546 0.00495326 0.0263751 9.36861e-11 -3.95951e-11 5.23833e-11 0 1.59789e-08
129 3 0.001 0.00702021 0.00501553 0.0257887 8.08032e-11 -2.56103e-11 4.93632e-11 0 1.60516e-08
131 3 0.001 0.00655966 0.00487203 0.0269548 8.05745e-11 -3.08716e-11 4.65364e-11 0 1.58642e-08
132 3 0.001 0.00631325 0.0047722 0.0275271 9.16336e-11 -3.76761e-11 5.0061e-11 0 1.57112e-08
133 3 0.001 0.00605671 0.00465418 0.0280914 8.20631e-11 -3.17068e-11 4.72151e-11 0 1.55234e-08
136 3 0.001 0.0052317 0.00419668 0.0297321 8.14505e-11 -3.26912e-11 4.59909e-11 0 1.47941e-08
135 3 0.001 0.00551537 0.00436577 0.0291943 8.40112e-11 -3.72675e-11 4.65359e-11 0 1.506e-08
134 3 0.001 0.00579057 0.0045185 0.0286473 9.28646e-11 -4.52071e-11 4.85101e-11 0 1.53048e-08
137 3 0.001 0.00494013 0.00401199 0.0302606 7.97462e-11 -3.89651e-11 4.30462e-11 0 1.45123e-08
138 3 0.001 0.00464128 0.00381252 0.0307794 8.34504e-11 -4.12288e-11 4.42369e-11 0 1.42201e-08
139 3 0.001 0.00433573 0.00359913 0.0312889 7.02566e-11 -3.17891e-11 3.86636e-11 0 1.39228e-08
142 3 0.001 0.00338476 0.00288474 0.0327619 5.97187e-11 -2.86284e-11 3.44939e-11 0 1.30524e-08
141 3 0.001 0.00370689 0.00313428 0.0322798 6.70161e-11 -3.36175e-11 3.677e-11 0 1.33341e-08
140 3 0.001 0.00402407 0.00337273 0.0317889 7.0589e-11 -3.38011e-11 3.86076e-11 0 1.36259e-08
143 3 0.001 0.00305821 0.0026251 0.0332357 5.54309e-11 -3.05643e-11 2.81964e-11 0 1.27849e-08
144 3 0.001 0.00272779 0.00235637 0.0337016 5.24253e-11 -2.45901e-11 3.00824e-11 0 1.25357e-08
145 3 0.001 0.00239398 0.00207955 0.0341604 3.84177e-11 -1.88482e-11 2.18869e-11 0 1.2308e-08
147 3 0.001 0.00171814 0.00150573 0.0350595 2.78817e-11 -1.34145e-11 1.68144e-11 0 1.19291e-08
148 3 0.001 0.00137701 0.00121075 0.0355013 2.33289e-11 -1.40297e-11 1.27443e-11 0 1.17825e-08
146 3 0.001 0.00205728 0.00179566 0.0346128 4.56457e-11 -2.55561e-11 2.3403e-11 0 1.2105e-08
150 3 0.001 0.000690417 0.000609718 0.0363742 1.30523e-11 -6.11921e-12 6.94663e-12 0 8.01885e-09
151 3 0.001 0.0003454 0.000305361 0.0368076 4.78044e-12 -3.7088e-12 1.80458e-12 0 4.82153e-09
2 2 0.001 0 0 0.03724 -0.00452988 -0.000635365 0.0132079 0 2.40537e-09
149 3 0.001 0.00103431 0.000911751 0.0359392 2.3049e-11 -1.09823e-11 1.34989e-11 0 1.14611e-08
