ITEM: TIMESTEP
5300000
ITEM: NUMBER OF ATOMS
151
ITEM: BOX BOUNDS ff ff ff
-1.0000000000000000e-02 1.0000000000000000e-02
-6.0000000000000001e-03 6.0000000000000001e-03
-5.2499999999999998e-02 5.2499999999999998e-02
ITEM: ATOMS id type radius x y z fx fy fz c_bendingE c_stretchingE
3 3 0.001 0.000348332 0.000303183 -0.0470685 3.30207e-12 -3.7319e-12 -3.09104e-13 0 5.06023e-09
1 1 0.001 0 0 -0.0475 -0.00458779 -0.000797884 -0.0133196 0 2.52458e-09
4 3 0.001 0.000696261 0.000605385 -0.0466359 1.54845e-11 -7.62798e-12 -8.76202e-12 0 8.31984e-09
5 3 0.001 0.00104302 0.000905309 -0.0462018 2.35568e-11 -1.23068e-11 -1.34161e-11 0 1.1828e-08
6 3 0.001 0.00138853 0.00120227 -0.0457648 2.47871e-11 -1.47707e-11 -1.3758e-11 0 1.21537e-08
7 3 0.001 0.0017324 0.00149529 -0.0453238 2.70834e-11 -1.6931e-11 -1.51225e-11 0 1.23011e-08
8 3 0.001 0.00207417 0.00178339 -0.044878 5.24727e-11 -2.77917e-11 -2.69969e-11 0 1.24776e-08
9 3 0.001 0.00241339 0.00206558 -0.0444265 3.56927e-11 -1.97166e-11 -2.09251e-11 0 1.26812e-08
10 3 0.001 0.00274959 0.00234085 -0.0439685 5.63892e-11 -3.30608e-11 -2.80285e-11 0 1.29093e-08
11 3 0.001 0.00308225 0.00260823 -0.0435034 5.78399e-11 -3.10193e-11 -3.14773e-11 0 1.31588e-08
12 3 0.001 0.00341088 0.00286672 -0.0430305 6.13899e-11 -3.66634e-11 -3.27751e-11 0 1.34262e-08
13 3 0.001 0.00373491 0.00311534 -0.0425492 6.29502e-11 -3.43687e-11 -3.29659e-11 0 1.37075e-08
14 3 0.001 0.0040538 0.00335314 -0.0420592 8.22973e-11 -4.67554e-11 -4.06199e-11 0 1.39984e-08
15 3 0.001 0.00436696 0.00357915 -0.0415599 6.83235e-11 -3.67518e-11 -3.80229e-11 0 1.42941e-08
16 3 0.001 0.00467381 0.00379246 -0.0410513 7.83075e-11 -4.6377e-11 -3.7775e-11 0 1.45896e-08
17 3 0.001 0.00497374 0.00399219 -0.0405332 9.26485e-11 -5.46489e-11 -4.52974e-11 0 1.48795e-08
18 3 0.001 0.00526617 0.00417748 -0.0400055 7.4844e-11 -3.49158e-11 -4.15817e-11 0 1.51584e-08
19 3 0.001 0.00555047 0.00434755 -0.0394683 9.39292e-11 -6.24488e-11 -4.27234e-11 0 1.5421e-08
20 3 0.001 0.00582607 0.00450165 -0.038922 8.80654e-11 -4.73511e-11 -4.54113e-11 0 1.5662e-08
21 3 0.001 0.00609239 0.00463912 -0.0383666 8.87499e-11 -4.46929e-11 -4.55268e-11 0 1.58764e-08
22 3 0.001 0.00634889 0.00475937 -0.0378027 9.21619e-11 -6.03795e-11 -4.42719e-11 0 1.60596e-08
23 3 0.001 0.00659504 0.00486188 -0.0372308 8.98672e-11 -5.09182e-11 -4.54145e-11 0 1.62077e-08
24 3 0.001 0.00683037 0.00494625 -0.0366514 9.57273e-11 -5.46691e-11 -4.77007e-11 0 1.63174e-08
25 3 0.001 0.00705446 0.00501214 -0.0360652 7.51092e-11 -4.05512e-11 -4.17636e-11 0 1.63853e-08
26 3 0.001 0.00726693 0.00505935 -0.035473 1.02447e-10 -6.29032e-11 -5.07799e-11 0 1.64058e-08
27 3 0.001 0.00746747 0.00508776 -0.0348753 7.48952e-11 -4.25505e-11 -4.26267e-11 0 1.63847e-08
28 3 0.001 0.00765585 0.00509733 -0.0342732 8.52427e-11 -4.97972e-11 -4.76323e-11 0 1.63397e-08
29 3 0.001 0.0078319 0.00508812 -0.0336673 7.78474e-11 -4.51724e-11 -4.60376e-11 0 1.62793e-08
30 3 0.001 0.00799551 0.00506023 -0.0330585 7.40065e-11 -3.79583e-11 -4.56237e-11 0 1.61971e-08
31 3 0.001 0.00814666 0.00501384 -0.0324476 7.24331e-11 -4.21623e-11 -4.81721e-11 0 1.60778e-08
32 3 0.001 0.00828542 0.00494921 -0.0318354 6.62709e-11 -3.21501e-11 -4.72772e-11 0 1.59173e-08
33 3 0.001 0.00841191 0.00486669 -0.0312227 5.74885e-11 -2.48999e-11 -4.57651e-11 0 1.57232e-08
34 3 0.001 0.00852634 0.00476673 -0.0306102 6.05554e-11 -2.40245e-11 -4.97273e-11 0 1.55005e-08
35 3 0.001 0.00862901 0.00464986 -0.0299986 5.5434e-11 -1.57051e-11 -4.84643e-11 0 1.5254e-08
37 3 0.001 0.00880055 0.00436794 -0.0287804 5.19043e-11 -1.85727e-12 -5.18193e-11 0 1.47096e-08
36 3 0.001 0.00872027 0.0045167 -0.0293885 3.57732e-11 -7.37716e-13 -4.57626e-11 0 1.49886e-08
39 3 0.001 0.00893022 0.00402666 -0.0275722 4.27858e-11 1.88032e-11 -5.016e-11 0 1.41317e-08
38 3 0.001 0.00887035 0.00420432 -0.0281749 2.79187e-11 1.3704e-11 -4.66686e-11 0 1.44222e-08
40 3 0.001 0.00898079 0.0038358 -0.0269727 1.30559e-11 3.63719e-11 -4.60866e-11 0 1.38432e-08
42 3 0.001 0.00905671 0.0034181 -0.0257839 1.29923e-11 5.83539e-11 -4.59315e-11 0 1.32845e-08
41 3 0.001 0.00902272 0.00363264 -0.0263766 3.2843e-11 3.77058e-11 -4.99625e-11 0 1.35602e-08
45 3 0.001 0.00911865 0.00271587 -0.0240264 6.16256e-12 8.67802e-11 -4.49851e-11 0 1.25584e-08
44 3 0.001 0.00910392 0.00295874 -0.0246089 1.20991e-11 8.31261e-11 -4.3344e-11 0 1.2777e-08
43 3 0.001 0.00908353 0.00319314 -0.0251947 1.59997e-11 5.90983e-11 -4.84566e-11 0 1.30209e-08
47 3 0.001 0.00913405 0.00220877 -0.0228702 2.28949e-12 1.17518e-10 -4.00881e-11 0 1.22093e-08
46 3 0.001 0.00912846 0.00246555 -0.0234469 5.50837e-12 9.90481e-11 -4.35657e-11 0 1.23686e-08
49 3 0.001 0.00913515 0.00167991 -0.0217236 -1.91992e-11 1.45901e-10 -3.42345e-11 0 1.19817e-08
48 3 0.001 0.00913608 0.00194655 -0.0222959 1.08272e-11 1.20706e-10 -4.1213e-11 0 1.20806e-08
50 3 0.001 0.00913179 0.00140988 -0.0211529 1.34709e-11 1.44203e-10 -3.85701e-11 0 1.19111e-08
52 3 0.001 0.00911973 0.000863716 -0.0200145 -2.0262e-12 1.76302e-10 -3.07502e-11 0 1.18497e-08
51 3 0.001 0.00912651 0.00113747 -0.0205834 -9.56086e-12 1.65993e-10 -3.13799e-11 0 1.18676e-08
55 3 0.001 0.0090942 4.44975e-05 -0.018307 -1.38325e-11 2.12586e-10 -2.29675e-11 0 1.19303e-08
54 3 0.001 0.00910334 0.000316227 -0.0188768 -2.76679e-13 2.00592e-10 -2.60667e-11 0 1.18818e-08
53 3 0.001 0.00911191 0.000589656 -0.0194458 -8.99761e-12 1.85646e-10 -2.89721e-11 0 1.18549e-08
57 3 0.001 0.00907504 -0.000489726 -0.017163 -2.09779e-11 2.36279e-10 -1.89888e-11 0 1.20859e-08
56 3 0.001 0.00908471 -0.000224494 -0.0177359 9.9357e-13 2.19761e-10 -2.17531e-11 0 1.19988e-08
60 3 0.001 0.00904627 -0.00125275 -0.0154299 1.3333e-11 2.69209e-10 -1.11554e-11 0 1.2445e-08
59 3 0.001 0.00905571 -0.00100485 -0.0160104 -3.02404e-11 2.55176e-10 -1.4923e-11 0 1.23105e-08
58 3 0.001 0.00906534 -0.000750182 -0.016588 1.00928e-11 2.42637e-10 -1.66851e-11 0 1.21903e-08
63 3 0.001 0.00901967 -0.00194596 -0.0136678 -6.50948e-12 2.97884e-10 -5.12721e-12 0 1.29146e-08
62 3 0.001 0.00902819 -0.00172426 -0.0142588 -1.22758e-12 2.82873e-10 -9.71502e-12 0 1.27491e-08
61 3 0.001 0.00903708 -0.00149287 -0.0148461 -3.06212e-11 2.70341e-10 -1.15085e-11 0 1.25918e-08
65 3 0.001 0.00900388 -0.00235661 -0.0124741 -1.53836e-12 3.04993e-10 -5.40867e-12 0 1.32608e-08
64 3 0.001 0.00901156 -0.00215704 -0.013073 -2.10884e-11 3.00512e-10 -6.3215e-12 0 1.3086e-08
67 3 0.001 0.00898998 -0.00271778 -0.0112646 1.70841e-13 3.24109e-10 -1.54396e-12 0 1.36096e-08
66 3 0.001 0.00899668 -0.0025438 -0.0118713 -2.45497e-11 3.19996e-10 -2.4795e-12 0 1.34363e-08
68 3 0.001 0.00898382 -0.00287778 -0.010654 -2.44249e-11 3.25094e-10 -2.85736e-12 0 1.3778e-08
69 3 0.001 0.00897823 -0.00302305 -0.0100398 -4.93213e-12 3.40327e-10 3.6571e-13 0 1.39383e-08
70 3 0.001 0.00897323 -0.00315294 -0.00942216 -1.44893e-11 3.36045e-10 -7.52941e-13 0 1.40879e-08
72 3 0.001 0.00896509 -0.00336415 -0.00817776 -3.2484e-12 3.51013e-10 8.66691e-13 0 1.43438e-08
71 3 0.001 0.00896884 -0.00326681 -0.00880136 -2.18531e-11 3.44355e-10 3.42282e-13 0 1.42239e-08
74 3 0.001 0.00895956 -0.00350737 -0.00692374 4.44332e-12 3.54207e-10 1.2395e-12 0 1.45267e-08
75 3 0.001 0.00895781 -0.00355256 -0.00629422 -4.17564e-11 3.55115e-10 2.45781e-13 0 1.45861e-08
73 3 0.001 0.00896199 -0.00344446 -0.00755174 -2.61904e-11 3.48454e-10 -2.75869e-13 0 1.44454e-08
76 3 0.001 0.00895675 -0.00357981 -0.00566367 1.14218e-11 3.56399e-10 1.06877e-12 0 1.46225e-08
77 3 0.001 0.00895638 -0.00358898 -0.00503261 -3.38599e-11 3.57703e-10 7.44981e-13 0 1.46352e-08
78 3 0.001 0.00895671 -0.00358004 -0.00440153 1.65346e-12 3.55273e-10 1.99313e-15 0 1.46238e-08
79 3 0.001 0.00895774 -0.00355302 -0.00377097 -3.51093e-11 3.55337e-10 8.29473e-13 0 1.45887e-08
80 3 0.001 0.00895946 -0.00350805 -0.00314144 1.05216e-11 3.54635e-10 3.12982e-13 0 1.45305e-08
81 3 0.001 0.00896186 -0.00344536 -0.00251342 -4.04662e-11 3.5093e-10 8.14957e-13 0 1.44504e-08
82 3 0.001 0.00896493 -0.00336526 -0.00188738 1.02803e-11 3.47832e-10 1.03732e-12 0 1.435e-08
83 3 0.001 0.00896865 -0.00326813 -0.00126374 -3.35119e-11 3.4685e-10 5.10357e-13 0 1.42312e-08
84 3 0.001 0.00897301 -0.00315445 -0.000642909 -3.10441e-12 3.39598e-10 1.73475e-12 0 1.40962e-08
85 3 0.001 0.00897799 -0.00302476 -2.52149e-05 -2.01133e-11 3.35882e-10 1.45272e-12 0 1.39476e-08
86 3 0.001 0.00898356 -0.00287966 0.00058905 4.16084e-12 3.29374e-10 2.68116e-12 0 1.37881e-08
87 3 0.001 0.0089897 -0.00271983 0.00119966 -4.9312e-11 3.26167e-10 3.00335e-12 0 1.36206e-08
88 3 0.001 0.00899637 -0.002546 0.00180643 3.20847e-11 3.15487e-10 4.95881e-12 0 1.3448e-08
89 3 0.001 0.00900356 -0.00235894 0.00240927 -4.78495e-11 3.12374e-10 5.17032e-12 0 1.32732e-08
90 3 0.001 0.00901122 -0.0021595 0.00300813 1.02412e-11 3.00633e-10 6.47856e-12 0 1.30991e-08
91 3 0.001 0.00901933 -0.00194853 0.00360304 -2.17552e-11 2.95006e-10 8.06651e-12 0 1.29282e-08
92 3 0.001 0.00902784 -0.00172692 0.00419408 -3.88457e-12 2.8631e-10 9.42623e-12 0 1.27632e-08
93 3 0.001 0.00903672 -0.00149561 0.0047814 -2.12189e-11 2.76775e-10 1.16705e-11 0 1.26064e-08
94 3 0.001 0.00904591 -0.00125555 0.0053652 5.11904e-12 2.64648e-10 1.3857e-11 0 1.24599e-08
95 3 0.001 0.00905536 -0.00100771 0.00594575 -2.30721e-11 2.57898e-10 1.53964e-11 0 1.23259e-08
96 3 0.001 0.009065 -0.000753072 0.00652336 7.98114e-12 2.46568e-10 1.6244e-11 0 1.2206e-08
97 3 0.001 0.00907472 -0.000492635 0.00709839 -3.1445e-11 2.34343e-10 2.12452e-11 0 1.21019e-08
98 3 0.001 0.00908441 -0.000227409 0.00767124 1.76593e-11 2.25454e-10 2.09018e-11 0 1.20151e-08
99 3 0.001 0.00909393 4.15918e-05 0.00824233 -2.77407e-11 2.10388e-10 2.61235e-11 0 1.1947e-08
100 3 0.001 0.00910311 0.000313344 0.00881213 1.11946e-11 2.09862e-10 2.27064e-11 0 1.18988e-08
101 3 0.001 0.00911174 0.000586811 0.00938112 -1.84883e-11 1.73111e-10 3.68412e-11 0 1.18722e-08
102 3 0.001 0.00911962 0.000860921 0.00994981 9.35153e-13 1.93961e-10 2.36649e-11 0 1.18673e-08
103 3 0.001 0.00912648 0.00113474 0.0105187 -5.79017e-12 1.56056e-10 3.7629e-11 0 1.18854e-08
104 3 0.001 0.00913186 0.00140722 0.0110882 5.12682e-12 1.54025e-10 3.56705e-11 0 1.19292e-08
105 3 0.001 0.00913533 0.00167734 0.0116588 -8.15408e-12 1.43033e-10 3.72484e-11 0 1.2e-08
106 3 0.001 0.00913639 0.00194408 0.012231 1.43892e-12 1.25701e-10 4.09447e-11 0 1.20992e-08
107 3 0.001 0.00913452 0.0022064 0.0128053 8.86664e-12 1.15029e-10 4.20937e-11 0 1.22282e-08
108 3 0.001 0.0091291 0.0024633 0.0133819 -1.06683e-12 1.04314e-10 4.28193e-11 0 1.23878e-08
109 3 0.001 0.00911949 0.00271375 0.0139613 1.43013e-11 8.83613e-11 4.5975e-11 0 1.2578e-08
110 3 0.001 0.00910498 0.00295675 0.0145438 8.40898e-12 8.21415e-11 4.54529e-11 0 1.27974e-08
111 3 0.001 0.00908483 0.0031913 0.0151295 1.32034e-11 6.55454e-11 4.7132e-11 0 1.30423e-08
112 3 0.001 0.00905827 0.00341641 0.0157187 2.01321e-11 5.57398e-11 4.83103e-11 0 1.33071e-08
113 3 0.001 0.00902456 0.0036311 0.0163113 2.46934e-11 4.07325e-11 5.03935e-11 0 1.35845e-08
114 3 0.001 0.00898292 0.00383443 0.0169074 2.288e-11 4.0347e-11 4.60365e-11 0 1.38693e-08
115 3 0.001 0.00893266 0.00402546 0.0175069 3.46686e-11 1.60345e-11 5.21563e-11 0 1.41596e-08
116 3 0.001 0.00887309 0.0042033 0.0181096 3.72308e-11 1.53849e-11 4.8777e-11 0 1.4452e-08
117 3 0.001 0.0088036 0.00436709 0.0187151 4.19973e-11 6.36149e-12 4.87906e-11 0 1.47414e-08
118 3 0.001 0.00872363 0.00451603 0.0193232 4.52522e-11 -5.91978e-12 4.94065e-11 0 1.50225e-08
119 3 0.001 0.00863268 0.00464936 0.0199333 5.28449e-11 -1.29836e-11 4.92521e-11 0 1.52901e-08
120 3 0.001 0.0085303 0.00476641 0.0205449 6.09353e-11 -2.40879e-11 5.0405e-11 0 1.55389e-08
122 3 0.001 0.00828993 0.00494924 0.0217701 7.75315e-11 -4.21446e-11 5.14444e-11 0 1.59601e-08
121 3 0.001 0.00841615 0.00486654 0.0211574 5.47993e-11 -1.71511e-11 4.5735e-11 0 1.57638e-08
123 3 0.001 0.00815142 0.00501404 0.0223824 5.85065e-11 -2.53904e-11 4.39145e-11 0 1.61227e-08
124 3 0.001 0.00800048 0.00506059 0.0229933 8.5485e-11 -5.08006e-11 5.05109e-11 0 1.62439e-08
125 3 0.001 0.00783707 0.00508864 0.0236021 8.10374e-11 -4.49244e-11 4.75008e-11 0 1.63278e-08
126 3 0.001 0.0076612 0.005098 0.0242081 6.81524e-11 -3.2161e-11 4.33965e-11 0 1.63899e-08
127 3 0.001 0.00747295 0.00508857 0.0248103 9.99445e-11 -6.21609e-11 5.11202e-11 0 1.64368e-08
130 3 0.001 0.00683607 0.00494743 0.0265865 1.02778e-10 -6.45605e-11 5.0232e-11 0 1.63752e-08
128 3 0.001 0.00727251 0.0050603 0.0254079 8.68992e-11 -4.97645e-11 4.64719e-11 0 1.646e-08
129 3 0.001 0.00706012 0.00501321 0.0260002 7.80593e-11 -3.8162e-11 4.33481e-11 0 1.64415e-08
131 3 0.001 0.00660074 0.00486316 0.0271658 8.62033e-11 -4.5666e-11 4.51678e-11 0 1.62668e-08
132 3 0.001 0.00635456 0.00476073 0.0277378 9.15264e-11 -5.12482e-11 4.64588e-11 0 1.61197e-08
134 3 0.001 0.00583159 0.00450313 0.0288569 8.45893e-11 -4.23602e-11 4.44433e-11 0 1.57229e-08
135 3 0.001 0.00555586 0.00434906 0.0294033 9.52915e-11 -5.68262e-11 4.69268e-11 0 1.5482e-08
133 3 0.001 0.006098 0.00464055 0.0283016 9.44843e-11 -5.64479e-11 4.58694e-11 0 1.5937e-08
137 3 0.001 0.00497878 0.0039937 0.0304679 9.10787e-11 -4.9294e-11 4.5924e-11 0 1.49396e-08
136 3 0.001 0.00527139 0.004179 0.0299403 7.86603e-11 -4.36023e-11 4.06789e-11 0 1.52191e-08
138 3 0.001 0.00467863 0.00379396 0.0309859 7.37786e-11 -4.26035e-11 3.73816e-11 0 1.4649e-08
141 3 0.001 0.00373893 0.00311668 0.0324832 6.83916e-11 -3.93569e-11 3.5507e-11 0 1.37641e-08
139 3 0.001 0.00437154 0.00358061 0.0314943 8.39497e-11 -4.54298e-11 4.36563e-11 0 1.43527e-08
140 3 0.001 0.00405811 0.00335454 0.0319934 6.67693e-11 -3.75168e-11 3.56261e-11 0 1.40561e-08
142 3 0.001 0.00341459 0.00286798 0.0329642 6.9027e-11 -3.70591e-11 3.63273e-11 0 1.34817e-08
143 3 0.001 0.00308565 0.0026094 0.0334369 5.13376e-11 -2.761e-11 2.84612e-11 0 1.32133e-08
144 3 0.001 0.00275264 0.00234192 0.0339017 5.48514e-11 -3.16636e-11 2.87874e-11 0 1.29628e-08
147 3 0.001 0.00173436 0.00149599 0.0352559 2.42983e-11 -1.40792e-11 1.45353e-11 0 1.23521e-08
148 3 0.001 0.00139011 0.00120284 0.0356964 3.10867e-11 -1.87125e-11 1.55811e-11 0 1.22043e-08
146 3 0.001 0.0020765 0.00178422 0.0348104 4.8434e-11 -2.48487e-11 2.71885e-11 0 1.25293e-08
145 3 0.001 0.00241609 0.00206653 0.0343593 4.36237e-11 -2.53572e-11 2.29223e-11 0 1.27337e-08
150 3 0.001 0.000697056 0.000605674 0.0365668 1.19139e-11 -6.55027e-12 7.37571e-12 0 8.36075e-09
151 3 0.001 0.00034873 0.000303329 0.0369989 8.14532e-12 -5.05034e-12 4.15766e-12 0 5.09293e-09
149 3 0.001 0.00104421 0.000905739 0.0361331 2.16102e-11 -1.07481e-11 1.20925e-11 0 1.18778e-08
2 2 0.001 0 0 0.03743 -0.0046017 -0.00080701 0.0133483 0 2.54097e-09
