ITEM: TIMESTEP
8700000
ITEM: NUMBER OF ATOMS
151
ITEM: BOX BOUNDS ff ff ff
-1.0000000000000000e-02 1.0000000000000000e-02
-6.0000000000000001e-03 6.0000000000000001e-03
-5.2499999999999998e-02 5.2499999999999998e-02
ITEM: ATOMS id type radius x y z fx fy fz c_bendingE c_stretchingE
1 1 0.001 0 0 -0.0475 -0.00227799 0 -0.0147297 0 1.59389e-09
3 3 0.001 0.000515346 0 -0.0471336 -3.31991e-09 0 4.31799e-09 0 3.22445e-09
4 3 0.001 0.00102822 0 -0.0467638 3.49715e-09 0 -4.99614e-09 0 6.02439e-09
5 3 0.001 0.00153809 0 -0.046391 -8.48332e-10 0 1.56384e-09 0 9.05962e-09
6 3 0.001 0.00204418 0 -0.0460132 -3.02576e-10 0 5.62498e-10 0 9.45264e-09
7 3 0.001 0.0025452 0 -0.0456287 3.11003e-10 0 -3.63416e-10 0 9.724e-09
8 3 0.001 0.00303982 0 -0.045236 -2.20158e-09 0 2.01368e-09 0 1.0053e-08
9 3 0.001 0.00352662 0 -0.0448337 5.24562e-09 0 -6.41677e-09 0 1.04376e-08
10 3 0.001 0.00400414 0 -0.0444206 -7.10349e-09 0 8.95215e-09 0 1.08748e-08
11 3 0.001 0.00447084 0 -0.0439953 3.8927e-09 0 -4.02548e-09 0 1.13608e-08
12 3 0.001 0.00492515 0 -0.0435568 3.97867e-09 0 -4.44555e-09 0 1.18904e-08
13 3 0.001 0.0053654 0 -0.0431043 -9.68757e-09 0 8.75263e-09 0 1.24572e-08
14 3 0.001 0.00578992 0 -0.0426371 8.32372e-09 0 -7.13684e-09 0 1.30534e-08
15 3 0.001 0.00619697 0 -0.0421546 1.74649e-09 0 -8.23713e-10 0 1.36697e-08
16 3 0.001 0.00658479 0 -0.0416566 -1.03543e-08 0 7.48659e-09 0 1.42956e-08
17 3 0.001 0.00695163 0 -0.0411431 2.5237e-09 0 -2.59556e-09 0 1.49192e-08
18 3 0.001 0.00729575 0 -0.040614 1.50052e-08 0 -8.70516e-09 0 1.55276e-08
19 3 0.001 0.00761548 0 -0.04007 -2.53465e-08 0 1.46269e-08 0 1.61073e-08
20 3 0.001 0.00790919 0 -0.0395115 2.08367e-08 0 -1.03947e-08 0 1.66445e-08
21 3 0.001 0.00817538 0 -0.0389394 -8.44917e-09 0 3.55069e-09 0 1.71257e-08
22 3 0.001 0.00841265 0 -0.0383548 5.75933e-09 0 -2.51635e-09 0 1.75382e-08
23 3 0.001 0.00861979 0 -0.0377589 -1.35287e-08 0 3.95831e-09 0 1.78708e-08
24 3 0.001 0.00879575 0 -0.037153 1.74155e-08 0 -4.44751e-09 0 1.81141e-08
25 3 0.001 0.0089397 0 -0.0365388 -1.15569e-08 0 3.25831e-09 0 1.82609e-08
26 3 0.001 0.00905101 0 -0.0359178 -1.27339e-09 0 1.12331e-10 0 1.82946e-08
27 3 0.001 0.0091293 0 -0.0352918 1.07859e-08 0 -1.43171e-09 0 1.82025e-08
28 3 0.001 0.00917444 0 -0.0346625 -9.69012e-09 0 2.08081e-10 0 1.80367e-08
29 3 0.001 0.00918644 0 -0.0340317 4.91428e-09 0 8.39374e-11 0 1.7879e-08
30 3 0.001 0.0091655 0 -0.0334012 -2.76486e-09 0 2.20158e-11 0 1.7756e-08
31 3 0.001 0.0091119 0 -0.0327725 2.7978e-09 0 3.29813e-10 0 1.76268e-08
32 3 0.001 0.0090261 0 -0.0321475 -3.27711e-09 0 -5.42361e-10 0 1.74121e-08
33 3 0.001 0.00890871 0 -0.0315275 -4.24052e-10 0 -1.72374e-10 0 1.70893e-08
34 3 0.001 0.00876056 0 -0.0309142 6.20552e-09 0 1.86672e-09 0 1.66879e-08
35 3 0.001 0.00858266 0 -0.0303088 -4.68121e-09 0 -1.34987e-09 0 1.62236e-08
37 3 0.001 0.00814256 0 -0.0291262 6.54649e-09 0 2.46564e-09 0 1.51546e-08
36 3 0.001 0.00837622 0 -0.0297125 -2.77646e-09 0 -1.57065e-09 0 1.57083e-08
38 3 0.001 0.00788317 0 -0.0285509 -4.4424e-09 0 -1.47466e-09 0 1.45753e-08
39 3 0.001 0.00759962 0 -0.027987 1.51659e-09 0 1.12337e-09 0 1.3983e-08
40 3 0.001 0.00729354 0 -0.027435 -5.73382e-10 0 -7.11515e-10 0 1.33895e-08
43 3 0.001 0.0062573 0 -0.0258506 1.54956e-09 0 1.03448e-09 0 1.17064e-08
42 3 0.001 0.00662064 0 -0.0263669 9.70695e-10 0 5.53947e-10 0 1.2242e-08
41 3 0.001 0.00696664 0 -0.026895 -5.65917e-10 0 -3.68627e-10 0 1.28059e-08
46 3 0.001 0.0050804 0 -0.0243668 9.01838e-09 0 7.75052e-09 0 1.03357e-08
45 3 0.001 0.00548547 0 -0.0248513 -3.25646e-09 0 -2.83482e-09 0 1.07478e-08
44 3 0.001 0.00587833 0 -0.0253456 -1.91575e-09 0 -1.27117e-09 0 1.12063e-08
48 3 0.001 0.00424019 0 -0.0234239 7.91882e-09 0 7.62155e-09 0 9.66436e-09
47 3 0.001 0.00466476 0 -0.0238914 -1.04519e-08 0 -9.16001e-09 0 9.97359e-09
49 3 0.001 0.00380826 0 -0.0229631 -2.58419e-09 0 -2.80933e-09 0 9.41001e-09
53 3 0.001 0.0020373 0 -0.0211614 7.53433e-09 0 7.76642e-09 0 8.96306e-09
51 3 0.001 0.00292843 0 -0.0220567 8.2286e-09 0 8.34653e-09 0 9.07109e-09
52 3 0.001 0.00248354 0 -0.0216084 -8.8833e-09 0 -8.72834e-09 0 8.98803e-09
50 3 0.001 0.0033705 0 -0.0225078 -3.80948e-09 0 -4.22153e-09 0 9.21194e-09
55 3 0.001 0.00114657 0 -0.0202657 1.03909e-08 0 9.79341e-09 0 9.08757e-09
54 3 0.001 0.00159115 0 -0.0207143 -7.82616e-09 0 -7.65711e-09 0 8.99628e-09
56 3 0.001 0.00070503 0 -0.0198141 -1.18479e-08 0 -1.17727e-08 0 9.23659e-09
58 3 0.001 -0.000162977 0 -0.0188965 -4.51852e-09 0 -4.13783e-09 0 9.70496e-09
57 3 0.001 0.000268008 0 -0.0193581 1.04625e-08 0 1.01299e-08 0 9.44272e-09
59 3 0.001 -0.000586378 0 -0.0184279 -3.94289e-09 0 -3.18202e-09 0 1.00218e-08
61 3 0.001 -0.00140405 0 -0.0174655 -3.68785e-09 0 -3.77153e-09 0 1.08102e-08
62 3 0.001 -0.00179505 0 -0.0169696 -7.76643e-10 0 -8.06175e-10 0 1.12749e-08
60 3 0.001 -0.00100061 0 -0.0179512 7.37478e-09 0 6.39994e-09 0 1.03912e-08
65 3 0.001 -0.00287627 0 -0.0154154 1.40926e-08 0 8.03551e-09 0 1.28878e-08
64 3 0.001 -0.00253288 0 -0.0159451 -8.68431e-09 0 -5.31899e-09 0 1.23205e-08
63 3 0.001 -0.0021719 0 -0.0164631 3.95929e-09 0 3.52066e-09 0 1.17804e-08
66 3 0.001 -0.00320032 0 -0.0148736 -1.46465e-08 0 -8.91882e-09 0 1.34734e-08
67 3 0.001 -0.0035033 0 -0.0143199 1.10258e-08 0 5.98813e-09 0 1.40674e-08
68 3 0.001 -0.00378353 0 -0.0137544 -9.45855e-09 0 -3.91701e-09 0 1.46587e-08
70 3 0.001 -0.00426924 0 -0.0125897 -1.10741e-08 0 -4.58532e-09 0 1.57842e-08
69 3 0.001 -0.00403936 0 -0.0131774 1.15975e-08 0 5.00796e-09 0 1.52351e-08
71 3 0.001 -0.00447171 0 -0.0119921 7.43773e-09 0 2.12883e-09 0 1.6293e-08
72 3 0.001 -0.00464545 0 -0.0113855 -4.88138e-09 0 -9.89885e-10 0 1.6749e-08
73 3 0.001 -0.00478929 0 -0.0107711 -1.01313e-10 0 3.21324e-10 0 1.71406e-08
74 3 0.001 -0.00490223 0 -0.0101503 1.04685e-08 0 1.09812e-09 0 1.74571e-08
75 3 0.001 -0.00498349 0 -0.00952468 -1.72994e-08 0 -1.68557e-09 0 1.76899e-08
76 3 0.001 -0.00503249 0 -0.00889567 1.27975e-08 0 9.49401e-10 0 1.78322e-08
77 3 0.001 -0.00504886 0 -0.00826498 6.58902e-11 0 -5.7951e-10 0 1.78802e-08
78 3 0.001 -0.00503249 0 -0.00763429 -1.11457e-08 0 9.85586e-10 0 1.78323e-08
79 3 0.001 -0.0049835 0 -0.00700528 1.22438e-08 0 -1.05005e-09 0 1.76899e-08
80 3 0.001 -0.00490225 0 -0.00637961 -2.88608e-09 0 -2.12931e-10 0 1.74572e-08
81 3 0.001 -0.0047893 0 -0.00575886 -7.05728e-09 0 1.92004e-09 0 1.71407e-08
82 3 0.001 -0.00464547 0 -0.0051445 1.06789e-08 0 -2.40563e-09 0 1.67492e-08
83 3 0.001 -0.00447173 0 -0.0045379 -1.06668e-08 0 3.02461e-09 0 1.62931e-08
84 3 0.001 -0.00426926 0 -0.00394023 1.18224e-08 0 -4.61296e-09 0 1.57843e-08
85 3 0.001 -0.00403939 0 -0.00335251 -1.40698e-08 0 5.90489e-09 0 1.52353e-08
86 3 0.001 -0.00378356 0 -0.00277557 1.35469e-08 0 -6.24808e-09 0 1.46589e-08
87 3 0.001 -0.00350334 0 -0.00221004 -7.03629e-09 0 3.79357e-09 0 1.40676e-08
88 3 0.001 -0.00320036 0 -0.0016563 -1.18336e-09 0 1.08054e-09 0 1.34736e-08
89 3 0.001 -0.00287631 0 -0.00111458 8.8043e-09 0 -5.92972e-09 0 1.28879e-08
90 3 0.001 -0.00253293 0 -0.000584842 -1.3055e-08 0 8.64703e-09 0 1.23207e-08
91 3 0.001 -0.00217194 0 -6.68854e-05 5.66584e-09 0 -3.41796e-09 0 1.17806e-08
92 3 0.001 -0.00179509 0 0.000439702 7.46871e-09 0 -6.17624e-09 0 1.12751e-08
93 3 0.001 -0.0014041 0 0.000935508 -8.68976e-09 0 6.68848e-09 0 1.08104e-08
94 3 0.001 -0.00100066 0 0.00142129 -1.58045e-09 0 1.96866e-09 0 1.03914e-08
95 3 0.001 -0.000586425 0 0.00189795 1.08401e-08 0 -9.88652e-09 0 1.0022e-08
96 3 0.001 -0.000163025 0 0.00236652 -1.36025e-08 0 1.24396e-08 0 9.70512e-09
97 3 0.001 0.000267959 0 0.00282817 1.17478e-08 0 -1.05802e-08 0 9.44287e-09
98 3 0.001 0.000704981 0 0.00328413 -8.03483e-09 0 7.68787e-09 0 9.23674e-09
99 3 0.001 0.00114653 0 0.00373574 4.42128e-09 0 -4.83652e-09 0 9.08771e-09
100 3 0.001 0.00159111 0 0.00418438 -2.43605e-10 0 2.78483e-10 0 8.99642e-09
101 3 0.001 0.00203725 0 0.00463148 -1.34822e-09 0 1.54933e-09 0 8.9632e-09
102 3 0.001 0.0024835 0 0.00507847 -4.15086e-09 0 4.30607e-09 0 8.98816e-09
103 3 0.001 0.00292839 0 0.0055268 1.26624e-08 0 -1.21946e-08 0 9.07122e-09
104 3 0.001 0.00337046 0 0.0059779 -1.711e-08 0 1.6541e-08 0 9.21207e-09
105 3 0.001 0.00380821 0 0.00643316 1.53761e-08 0 -1.49594e-08 0 9.41014e-09
106 3 0.001 0.00424015 0 0.00689392 -7.75087e-09 0 7.25277e-09 0 9.6645e-09
107 3 0.001 0.00466473 0 0.00736144 -4.77943e-10 0 1.11261e-10 0 9.97373e-09
108 3 0.001 0.00508036 0 0.00783688 5.0389e-09 0 -4.43405e-09 0 1.03358e-08
109 3 0.001 0.00548544 0 0.00832131 -7.60271e-09 0 6.86762e-09 0 1.0748e-08
110 3 0.001 0.0058783 0 0.00881564 5.88652e-09 0 -4.10305e-09 0 1.12065e-08
111 3 0.001 0.00625727 0 0.00932065 2.46358e-09 0 -2.02559e-09 0 1.17065e-08
112 3 0.001 0.00662061 0 0.00983696 -9.63036e-09 0 5.92615e-09 0 1.22422e-08
113 3 0.001 0.00696661 0 0.010365 1.20113e-08 0 -7.85552e-09 0 1.28061e-08
114 3 0.001 0.00729351 0 0.010905 -1.17564e-08 0 6.86367e-09 0 1.33897e-08
115 3 0.001 0.00759959 0 0.0114571 7.38787e-09 0 -3.33404e-09 0 1.39832e-08
116 3 0.001 0.00788316 0 0.0120209 1.03318e-09 0 3.52372e-10 0 1.45756e-08
117 3 0.001 0.00814255 0 0.0125963 -8.41949e-09 0 2.91456e-09 0 1.51549e-08
118 3 0.001 0.00837621 0 0.0131825 3.84187e-09 0 -2.42655e-09 0 1.57086e-08
119 3 0.001 0.00858265 0 0.0137788 1.06381e-08 0 -2.76172e-09 0 1.62239e-08
120 3 0.001 0.00876055 0 0.0143842 -1.61716e-08 0 4.68923e-09 0 1.66882e-08
121 3 0.001 0.00890871 0 0.0149976 1.07687e-08 0 -2.61001e-09 0 1.70896e-08
122 3 0.001 0.0090261 0 0.0156175 -6.92298e-09 0 1.08907e-09 0 1.74125e-08
123 3 0.001 0.0091119 0 0.0162425 1.01022e-08 0 -1.11041e-09 0 1.76272e-08
124 3 0.001 0.0091655 0 0.0168712 -1.34276e-08 0 8.07508e-10 0 1.77565e-08
125 3 0.001 0.00918645 0 0.0175017 4.80396e-09 0 -4.2371e-11 0 1.78794e-08
126 3 0.001 0.00917445 0 0.0181325 1.07812e-08 0 7.6177e-10 0 1.80371e-08
127 3 0.001 0.00912932 0 0.0187618 -1.89578e-08 0 -2.22262e-09 0 1.8203e-08
128 3 0.001 0.00905102 0 0.0193878 1.66823e-08 0 2.43671e-09 0 1.82951e-08
129 3 0.001 0.00893972 0 0.0200088 -7.31781e-09 0 -1.04837e-09 0 1.82615e-08
130 3 0.001 0.00879577 0 0.020623 -1.42353e-09 0 -4.52968e-10 0 1.81147e-08
132 3 0.001 0.00841268 0 0.0218248 5.56122e-10 0 1.90382e-11 0 1.75389e-08
131 3 0.001 0.00861982 0 0.0212289 2.13591e-09 0 4.16226e-10 0 1.78714e-08
133 3 0.001 0.0081754 0 0.0224095 1.75386e-09 0 8.62354e-10 0 1.71263e-08
134 3 0.001 0.00790922 0 0.0229815 -9.90959e-09 0 -4.62039e-09 0 1.66451e-08
135 3 0.001 0.00761551 0 0.02354 1.81669e-08 0 1.07198e-08 0 1.61079e-08
138 3 0.001 0.00658481 0 0.0251267 -1.04809e-09 0 -4.94439e-10 0 1.42962e-08
137 3 0.001 0.00695165 0 0.0246131 1.23499e-08 0 7.4777e-09 0 1.49198e-08
136 3 0.001 0.00729578 0 0.0240841 -1.96323e-08 0 -1.26738e-08 0 1.55282e-08
141 3 0.001 0.00536543 0 0.0265743 -3.31213e-09 0 -3.28403e-09 0 1.24577e-08
139 3 0.001 0.00619699 0 0.0256246 -6.57394e-09 0 -4.84386e-09 0 1.36703e-08
140 3 0.001 0.00578994 0 0.0261071 6.69811e-09 0 6.57618e-09 0 1.30539e-08
142 3 0.001 0.00492517 0 0.0270268 4.47809e-10 0 -5.40135e-10 0 1.18909e-08
143 3 0.001 0.00447086 0 0.0274653 3.13729e-09 0 3.10309e-09 0 1.13613e-08
144 3 0.001 0.00400415 0 0.0278906 -6.96964e-09 0 -7.50381e-09 0 1.08753e-08
148 3 0.001 0.00204419 0 0.0294832 -5.09036e-09 0 -7.77438e-09 0 9.45306e-09
145 3 0.001 0.00352664 0 0.0283038 8.60695e-09 0 1.0771e-08 0 1.04381e-08
146 3 0.001 0.00303983 0 0.028706 -8.19279e-09 0 -9.76248e-09 0 1.00535e-08
147 3 0.001 0.00254521 0 0.0290987 6.43717e-09 0 8.13769e-09 0 9.72443e-09
151 3 0.001 0.000515348 0 0.0306036 1.05482e-09 0 1.98167e-09 0 3.22469e-09
2 2 0.001 0 0 0.03097 -0.00227816 0 0.01473 0 1.59401e-09
149 3 0.001 0.0015381 0 0.029861 5.38335e-09 0 6.94605e-09 0 9.06003e-09
150 3 0.001 0.00102823 0 0.0302338 -4.15383e-09 0 -4.81234e-09 0 6.02471e-09
