ITEM: TIMESTEP
5600000
ITEM: NUMBER OF ATOMS
151
ITEM: BOX BOUNDS ff ff ff
-1.0000000000000000e-02 1.0000000000000000e-02
-6.0000000000000001e-03 6.0000000000000001e-03
-5.2499999999999998e-02 5.2499999999999998e-02
ITEM: ATOMS id type radius x y z fx fy fz c_bendingE c_stretchingE
3 3 0.001 0.000338906 0.000308751 -0.0470648 4.88067e-12 -5.48801e-12 -3.85748e-13 0 4.31411e-09
1 1 0.001 0 0 -0.0475 -0.00439317 -0.00029786 -0.0129287 0 2.15179e-09
4 3 0.001 0.000677471 0.000616459 -0.0466286 8.88965e-12 -7.22481e-12 -3.47259e-12 0 7.37448e-09
5 3 0.001 0.001015 0.00092176 -0.0461908 1.8844e-11 -1.49109e-11 -5.98105e-12 0 1.06715e-08
6 3 0.001 0.00135146 0.00122391 -0.0457501 1.50283e-11 -1.3628e-11 -4.57267e-12 0 1.09834e-08
7 3 0.001 0.00168651 0.00152188 -0.0453055 3.12595e-11 -2.65379e-11 -9.06475e-12 0 1.11279e-08
8 3 0.001 0.00201977 0.00181461 -0.0448562 2.72838e-11 -2.26621e-11 -9.09832e-12 0 1.13014e-08
9 3 0.001 0.00235083 0.00210105 -0.0444012 3.64368e-11 -2.90545e-11 -1.16366e-11 0 1.15019e-08
10 3 0.001 0.00267928 0.00238014 -0.0439398 4.26819e-11 -3.92007e-11 -1.10758e-11 0 1.17271e-08
11 3 0.001 0.00300465 0.00265082 -0.0434713 3.24102e-11 -2.6602e-11 -1.12501e-11 0 1.19742e-08
12 3 0.001 0.00332649 0.00291205 -0.0429951 6.31591e-11 -5.23311e-11 -1.83385e-11 0 1.224e-08
13 3 0.001 0.00364429 0.00316276 -0.0425107 3.91335e-11 -3.57908e-11 -1.12996e-11 0 1.25207e-08
14 3 0.001 0.00395754 0.00340194 -0.0420175 6.09886e-11 -5.13e-11 -1.8224e-11 0 1.28123e-08
15 3 0.001 0.00426569 0.00362856 -0.0415153 5.35396e-11 -4.84121e-11 -1.53962e-11 0 1.31102e-08
16 3 0.001 0.00456819 0.00384163 -0.0410039 6.60567e-11 -5.35624e-11 -1.92672e-11 0 1.34096e-08
17 3 0.001 0.00486447 0.00404021 -0.0404831 6.29279e-11 -5.80106e-11 -1.85407e-11 0 1.37053e-08
18 3 0.001 0.00515393 0.00422338 -0.039953 5.6177e-11 -5.19207e-11 -1.4499e-11 0 1.39921e-08
19 3 0.001 0.005436 0.00439027 -0.0394135 7.40201e-11 -6.08209e-11 -2.33622e-11 0 1.42646e-08
20 3 0.001 0.00571009 0.0045401 -0.0388651 7.3614e-11 -6.83309e-11 -1.92742e-11 0 1.45174e-08
21 3 0.001 0.00597563 0.00467213 -0.038308 5.23097e-11 -5.12077e-11 -1.54808e-11 0 1.47456e-08
22 3 0.001 0.00623206 0.00478572 -0.0377426 8.48058e-11 -6.96306e-11 -2.49391e-11 0 1.49443e-08
23 3 0.001 0.00647885 0.0048803 -0.0371695 6.10897e-11 -6.24213e-11 -1.85159e-11 0 1.51093e-08
24 3 0.001 0.0067155 0.00495542 -0.0365893 6.98307e-11 -6.28685e-11 -1.99459e-11 0 1.52371e-08
25 3 0.001 0.00694156 0.00501071 -0.0360027 6.84014e-11 -6.62162e-11 -2.06452e-11 0 1.53243e-08
26 3 0.001 0.00715661 0.00504592 -0.0354104 6.87536e-11 -6.0586e-11 -2.22345e-11 0 1.53679e-08
27 3 0.001 0.00736032 0.0050609 -0.0348133 5.77633e-11 -5.99406e-11 -1.87394e-11 0 1.53726e-08
28 3 0.001 0.00755239 0.00505563 -0.0342122 7.02132e-11 -6.47806e-11 -2.42415e-11 0 1.53467e-08
29 3 0.001 0.00773259 0.00503014 -0.0336079 6.14412e-11 -5.80692e-11 -2.24166e-11 0 1.52872e-08
30 3 0.001 0.00790079 0.00498459 -0.0330014 4.89763e-11 -5.077e-11 -1.97129e-11 0 1.51869e-08
31 3 0.001 0.00805689 0.00491922 -0.0323934 6.50051e-11 -5.79627e-11 -2.53134e-11 0 1.50458e-08
32 3 0.001 0.00820089 0.00483441 -0.0317848 4.43449e-11 -4.55625e-11 -2.15515e-11 0 1.48688e-08
33 3 0.001 0.00833287 0.0047306 -0.0311764 5.09349e-11 -4.48948e-11 -2.40525e-11 0 1.46596e-08
34 3 0.001 0.00845298 0.00460836 -0.030569 4.77329e-11 -3.94039e-11 -2.54061e-11 0 1.44226e-08
37 3 0.001 0.00874473 0.00413789 -0.0287588 2.03735e-11 -1.4448e-11 -2.04048e-11 0 1.35954e-08
36 3 0.001 0.00865858 0.00431125 -0.0293596 4.77802e-11 -3.302e-11 -2.76494e-11 0 1.38853e-08
35 3 0.001 0.00856145 0.00446833 -0.0299632 3.50492e-11 -3.39907e-11 -2.29386e-11 0 1.41628e-08
39 3 0.001 0.00888592 0.00374587 -0.0275672 1.77379e-11 -7.40251e-12 -2.32884e-11 0 1.29996e-08
38 3 0.001 0.00882035 0.00394913 -0.0281613 4.19854e-11 -2.2904e-11 -3.02851e-11 0 1.32984e-08
40 3 0.001 0.00894202 0.00352907 -0.026977 2.88974e-11 -1.63753e-12 -2.5935e-11 0 1.2704e-08
42 3 0.001 0.00902827 0.00305881 -0.0258085 9.7138e-12 1.4414e-11 -2.42206e-11 0 1.21394e-08
41 3 0.001 0.00898925 0.00329971 -0.0263908 1.77665e-11 4.57995e-12 -2.52119e-11 0 1.24164e-08
45 3 0.001 0.00910313 0.00227728 -0.024085 2.41065e-11 2.93749e-11 -2.80734e-11 0 1.1405e-08
44 3 0.001 0.00908447 0.00254654 -0.0246558 -1.26153e-11 3.85201e-11 -1.81068e-11 0 1.16281e-08
43 3 0.001 0.00905977 0.00280741 -0.0252302 3.02515e-11 1.31576e-11 -2.90392e-11 0 1.1875e-08
47 3 0.001 0.00912517 0.00171783 -0.0229531 -6.88176e-12 5.93795e-11 -1.9545e-11 0 1.10463e-08
46 3 0.001 0.00911646 0.00200069 -0.0235176 4.80064e-12 4.29442e-11 -2.28131e-11 0 1.12102e-08
50 3 0.001 0.00913008 0.000842324 -0.0212733 1.81777e-11 6.03524e-11 -2.7613e-11 0 1.07436e-08
49 3 0.001 0.00913139 0.00113758 -0.0218315 -2.39852e-11 8.32032e-11 -1.19575e-11 0 1.08136e-08
48 3 0.001 0.00912994 0.00142977 -0.0223913 2.21798e-11 4.86755e-11 -2.66517e-11 0 1.09142e-08
52 3 0.001 0.00912127 0.000246879 -0.0201597 -1.43921e-11 7.37696e-11 -2.66496e-11 0 1.06898e-08
51 3 0.001 0.00912655 0.000545066 -0.0207162 -5.14193e-12 1.00579e-10 -8.87214e-12 0 1.07029e-08
53 3 0.001 0.00911473 -5.12042e-05 -0.019603 2.13908e-11 1.16945e-10 -5.6167e-12 0 1.07017e-08
55 3 0.001 0.00909893 -0.000642902 -0.0184874 1.01759e-11 1.20936e-10 -8.42343e-12 0 1.07964e-08
54 3 0.001 0.0091072 -0.000348162 -0.0190458 -2.79641e-11 9.48109e-11 -2.03551e-11 0 1.07375e-08
57 3 0.001 0.00908108 -0.00122145 -0.017365 -1.16788e-11 1.27132e-10 -1.07799e-11 0 1.09772e-08
56 3 0.001 0.00909015 -0.000934353 -0.0179273 -8.22477e-12 1.20619e-10 -1.17507e-11 0 1.08769e-08
58 3 0.001 0.00907188 -0.00150316 -0.0168 1.28533e-11 1.37159e-10 -7.16013e-12 0 1.1096e-08
60 3 0.001 0.00905362 -0.00204616 -0.0156601 3.21488e-11 1.44754e-10 -6.63995e-12 0 1.1382e-08
59 3 0.001 0.00906269 -0.00177841 -0.0162318 -3.52949e-11 1.42345e-10 -7.51562e-12 0 1.12315e-08
63 3 0.001 0.00902793 -0.00279426 -0.0139203 -3.47918e-11 1.64193e-10 -3.57925e-12 0 1.19029e-08
62 3 0.001 0.00903617 -0.0025551 -0.0145046 2.69068e-11 1.56358e-10 -4.3069e-12 0 1.172e-08
61 3 0.001 0.00904476 -0.0023054 -0.0150844 -4.55279e-11 1.60149e-10 -3.32743e-12 0 1.15455e-08
65 3 0.001 0.00901264 -0.00323709 -0.012738 -3.02526e-11 1.73156e-10 -1.95564e-12 0 1.22841e-08
64 3 0.001 0.00902007 -0.00302191 -0.0133315 1.89437e-11 1.75028e-10 -3.42249e-13 0 1.20919e-08
66 3 0.001 0.00900566 -0.00343889 -0.0121399 9.81077e-12 1.7851e-10 -1.28004e-12 0 1.24767e-08
67 3 0.001 0.00899918 -0.00362643 -0.0115371 -2.24703e-11 1.86029e-10 8.43952e-13 0 1.26668e-08
68 3 0.001 0.00899322 -0.00379887 -0.0109299 1.27533e-11 1.87645e-10 7.7948e-13 0 1.28511e-08
69 3 0.001 0.0089878 -0.00395544 -0.0103183 -3.42827e-11 1.91557e-10 5.68669e-13 0 1.30266e-08
70 3 0.001 0.00898296 -0.00409541 -0.00970282 1.35544e-11 1.94097e-10 1.10209e-12 0 1.31903e-08
72 3 0.001 0.00897507 -0.00432302 -0.00846119 1.7528e-11 1.98089e-10 2.07614e-12 0 1.34703e-08
71 3 0.001 0.00897871 -0.00421813 -0.00908364 -2.63865e-11 1.97863e-10 1.4924e-12 0 1.33391e-08
73 3 0.001 0.00897207 -0.00440956 -0.00783594 -4.52932e-11 2.02531e-10 1.34968e-12 0 1.35814e-08
74 3 0.001 0.00896972 -0.00447735 -0.00720838 2.47394e-11 2.03509e-10 2.35297e-12 0 1.36703e-08
75 3 0.001 0.00896803 -0.00452604 -0.00657906 -2.65919e-11 2.02389e-10 1.40088e-12 0 1.37353e-08
76 3 0.001 0.008967 -0.00455539 -0.00594854 -8.21418e-13 2.0844e-10 1.78644e-12 0 1.3775e-08
77 3 0.001 0.00896665 -0.00456526 -0.00531742 -1.97128e-11 2.02072e-10 1.45302e-12 0 1.37888e-08
78 3 0.001 0.00896697 -0.0045556 -0.00468629 3.08551e-12 2.06323e-10 2.54183e-12 0 1.37763e-08
79 3 0.001 0.00896796 -0.00452646 -0.00405576 -8.97185e-12 2.05868e-10 1.50491e-12 0 1.37378e-08
80 3 0.001 0.00896962 -0.00447798 -0.00342642 -2.27267e-11 2.03146e-10 1.37402e-12 0 1.36741e-08
81 3 0.001 0.00897195 -0.0044104 -0.00279884 2.3963e-12 2.04525e-10 1.51952e-12 0 1.35864e-08
82 3 0.001 0.00897492 -0.00432405 -0.00217356 1.96615e-12 1.99399e-10 2.23878e-12 0 1.34764e-08
83 3 0.001 0.00897852 -0.00421935 -0.00155109 -3.82127e-11 2.0017e-10 1.81739e-12 0 1.33463e-08
84 3 0.001 0.00898274 -0.00409681 -0.00093187 2.30934e-11 1.96888e-10 1.80925e-12 0 1.31985e-08
85 3 0.001 0.00898756 -0.00395701 -0.000316311 -2.78081e-11 1.96122e-10 1.96826e-12 0 1.30358e-08
86 3 0.001 0.00899296 -0.0038006 0.000295248 -1.69491e-12 1.88025e-10 2.97078e-12 0 1.28611e-08
87 3 0.001 0.0089989 -0.00362831 0.000902533 -6.88971e-12 1.89141e-10 2.80915e-12 0 1.26775e-08
88 3 0.001 0.00900536 -0.00344091 0.00150534 -8.7893e-12 1.85061e-10 3.22033e-12 0 1.24882e-08
89 3 0.001 0.00901232 -0.00323923 0.00210353 -9.22385e-12 1.76662e-10 5.09428e-12 0 1.22963e-08
90 3 0.001 0.00901974 -0.00302416 0.00269705 -1.45666e-12 1.76325e-10 3.37506e-12 0 1.21046e-08
91 3 0.001 0.00902759 -0.00279661 0.0032859 -1.36691e-11 1.71982e-10 5.33867e-12 0 1.19161e-08
92 3 0.001 0.00903583 -0.00255752 0.00387018 -3.69456e-12 1.6292e-10 6.99772e-12 0 1.17336e-08
93 3 0.001 0.00904441 -0.00230789 0.00445005 -1.94912e-12 1.5952e-10 6.88863e-12 0 1.15596e-08
94 3 0.001 0.00905328 -0.0020487 0.00502572 -1.58446e-11 1.53611e-10 8.31443e-12 0 1.13965e-08
95 3 0.001 0.00906236 -0.00178098 0.00559748 1.88364e-12 1.48304e-10 9.05269e-12 0 1.12463e-08
96 3 0.001 0.00907156 -0.00150575 0.00616567 -6.63806e-12 1.41202e-10 9.88078e-12 0 1.11111e-08
97 3 0.001 0.00908078 -0.00122406 0.00673071 -4.27905e-12 1.33919e-10 1.26095e-11 0 1.09926e-08
98 3 0.001 0.00908989 -0.000936951 0.00729302 -7.86112e-12 1.27089e-10 1.33249e-11 0 1.08925e-08
99 3 0.001 0.0090987 -0.000645481 0.00785309 -1.04844e-12 1.2486e-10 1.14235e-11 0 1.08123e-08
100 3 0.001 0.00910702 -0.000350709 0.00841145 -9.944e-12 1.05405e-10 2.01819e-11 0 1.07535e-08
101 3 0.001 0.00911461 -5.37044e-05 0.00896865 1.05575e-11 1.13259e-10 1.29186e-11 0 1.07179e-08
102 3 0.001 0.00912123 0.000244438 0.00952524 -1.93452e-11 9.94299e-11 1.77457e-11 0 1.07062e-08
103 3 0.001 0.0091266 0.000542694 0.0100818 1.18e-11 8.40783e-11 2.23271e-11 0 1.07196e-08
104 3 0.001 0.00913024 0.000840032 0.0106388 -5.15808e-12 8.65292e-11 1.88067e-11 0 1.07605e-08
105 3 0.001 0.00913168 0.00113538 0.011197 4.29301e-13 7.40982e-11 2.17783e-11 0 1.08306e-08
106 3 0.001 0.00913039 0.00142768 0.0117567 5.30095e-12 6.71685e-11 2.32815e-11 0 1.09314e-08
107 3 0.001 0.00912579 0.00171585 0.0123185 -1.19514e-12 6.10512e-11 2.25875e-11 0 1.10638e-08
108 3 0.001 0.00911727 0.00199883 0.0128829 9.93704e-12 4.69755e-11 2.64751e-11 0 1.12281e-08
109 3 0.001 0.00910415 0.00227555 0.0134503 1.05851e-11 4.42385e-11 2.42065e-11 0 1.14235e-08
110 3 0.001 0.00908574 0.00254495 0.014021 2.30847e-12 3.70453e-11 2.50164e-11 0 1.16474e-08
111 3 0.001 0.00906129 0.00280596 0.0145954 1.78274e-11 2.46381e-11 2.72317e-11 0 1.18954e-08
112 3 0.001 0.00903007 0.00305752 0.0151736 2.15419e-11 1.84041e-11 2.80573e-11 0 1.21613e-08
113 3 0.001 0.00899134 0.00329857 0.0157558 1.20279e-11 1.19384e-11 2.62127e-11 0 1.24399e-08
114 3 0.001 0.00894442 0.0035281 0.016342 2.54649e-11 5.13752e-12 2.662e-11 0 1.27291e-08
115 3 0.001 0.00888863 0.00374507 0.0169322 2.4923e-11 -3.77324e-13 2.61418e-11 0 1.30265e-08
116 3 0.001 0.00882336 0.0039485 0.0175262 3.25969e-11 -1.47581e-11 2.89082e-11 0 1.33271e-08
117 3 0.001 0.00874806 0.00413744 0.0181237 3.76408e-11 -1.87815e-11 2.87267e-11 0 1.36261e-08
118 3 0.001 0.00866222 0.00431096 0.0187245 2.84539e-11 -1.26679e-11 2.26556e-11 0 1.39182e-08
121 3 0.001 0.00833738 0.00473084 0.0205413 4.45362e-11 -3.76263e-11 2.47855e-11 0 1.46989e-08
119 3 0.001 0.0085654 0.00446823 0.0193281 4.69188e-11 -3.60355e-11 2.87354e-11 0 1.41978e-08
120 3 0.001 0.00845722 0.00460843 0.0199339 4.63187e-11 -3.31948e-11 2.57379e-11 0 1.44598e-08
122 3 0.001 0.00820566 0.00483482 0.0211497 5.69435e-11 -4.32749e-11 2.6634e-11 0 1.49103e-08
123 3 0.001 0.00806189 0.0049198 0.0217583 4.86124e-11 -4.42443e-11 2.29511e-11 0 1.50893e-08
124 3 0.001 0.007906 0.00498532 0.0223664 6.44921e-11 -5.89352e-11 2.67627e-11 0 1.52323e-08
125 3 0.001 0.00773799 0.00503102 0.0229729 5.89439e-11 -4.64969e-11 2.2907e-11 0 1.53343e-08
126 3 0.001 0.00755794 0.00505665 0.0235773 5.99977e-11 -5.5693e-11 2.27634e-11 0 1.53953e-08
127 3 0.001 0.007366 0.00506206 0.0241784 6.91377e-11 -5.95574e-11 2.46362e-11 0 1.54228e-08
128 3 0.001 0.00716239 0.0050472 0.0247756 6.31383e-11 -5.82688e-11 2.13905e-11 0 1.54198e-08
130 3 0.001 0.00672136 0.00495692 0.0259545 6.35214e-11 -5.20737e-11 2.15244e-11 0 1.52925e-08
131 3 0.001 0.0064847 0.00488189 0.0265347 7.3548e-11 -6.39556e-11 2.41968e-11 0 1.51658e-08
129 3 0.001 0.00694739 0.00501211 0.0253678 7.26164e-11 -6.35697e-11 2.4109e-11 0 1.53781e-08
132 3 0.001 0.00623787 0.00478738 0.0271078 6.64035e-11 -6.15292e-11 1.98075e-11 0 1.50016e-08
133 3 0.001 0.00598136 0.00467385 0.0276731 6.84825e-11 -5.6463e-11 2.13393e-11 0 1.48034e-08
136 3 0.001 0.00515924 0.00422515 0.0293179 6.99323e-11 -6.07408e-11 2.09343e-11 0 1.40498e-08
135 3 0.001 0.00544148 0.00439205 0.0287786 6.12946e-11 -5.17528e-11 1.99323e-11 0 1.43226e-08
134 3 0.001 0.00571572 0.00454185 0.0282302 7.26365e-11 -5.97507e-11 2.30194e-11 0 1.45755e-08
137 3 0.001 0.00486958 0.00404197 0.0298479 5.68441e-11 -5.02235e-11 1.7399e-11 0 1.37624e-08
138 3 0.001 0.00457307 0.00384336 0.0303686 6.93308e-11 -5.21342e-11 2.25799e-11 0 1.3466e-08
139 3 0.001 0.00427032 0.00363023 0.0308798 5.22912e-11 -4.43174e-11 1.68637e-11 0 1.31657e-08
142 3 0.001 0.00333024 0.00291347 0.0323589 3.12739e-11 -2.90577e-11 1.00914e-11 0 1.22924e-08
141 3 0.001 0.00364835 0.00316429 0.0318747 6.51754e-11 -5.05246e-11 2.17289e-11 0 1.25742e-08
140 3 0.001 0.00396189 0.00340354 0.0313818 5.14184e-11 -4.52504e-11 1.49246e-11 0 1.28668e-08
143 3 0.001 0.00300807 0.00265214 0.0328348 5.3782e-11 -4.07843e-11 1.77919e-11 0 1.20256e-08
144 3 0.001 0.00268235 0.00238134 0.033303 3.97388e-11 -3.21034e-11 1.27037e-11 0 1.17775e-08
145 3 0.001 0.00235355 0.00210212 0.033764 2.57289e-11 -2.47259e-11 7.62282e-12 0 1.15514e-08
148 3 0.001 0.00135304 0.00122455 0.0351118 2.44498e-11 -1.91936e-11 7.2286e-12 0 1.10311e-08
149 3 0.001 0.00101619 0.000922245 0.0355521 1.94195e-11 -1.66887e-11 6.12689e-12 0 1.07184e-08
147 3 0.001 0.00168848 0.00152267 0.0346676 1.39212e-11 -1.24022e-11 6.11582e-12 0 1.1176e-08
146 3 0.001 0.00202212 0.00181554 0.0342186 4.50965e-11 -3.29956e-11 1.51415e-11 0 1.13501e-08
150 3 0.001 0.000678269 0.000616784 0.0359894 -1.97834e-12 2.04764e-13 -1.16702e-12 0 7.41257e-09
151 3 0.001 0.000339306 0.000308915 0.0364252 1.94565e-11 -1.25027e-11 8.06728e-12 0 4.34405e-09
2 2 0.001 0 0 0.03686 -0.00440666 -0.000307038 0.0129574 0 2.1668e-09
