ITEM: TIMESTEP
4400000
ITEM: NUMBER OF ATOMS
151
ITEM: BOX BOUNDS ff ff ff
-1.0000000000000000e-02 1.0000000000000000e-02
-6.0000000000000001e-03 6.0000000000000001e-03
-5.2499999999999998e-02 5.2499999999999998e-02
ITEM: ATOMS id type radius x y z fx fy fz c_bendingE c_stretchingE
3 3 0.001 0.000445668 0.000249279 -0.0471294 3.72308e-11 -8.85524e-11 1.20208e-11 0 1.7423e-08
1 1 0.001 0 0 -0.0475 -0.0083093 -0.00463774 -0.0187763 0 8.69432e-09
4 3 0.001 0.000890362 0.000498012 -0.0467573 -5.3279e-11 -7.55902e-13 5.64931e-11 0 2.2982e-08
5 3 0.001 0.00133264 0.000745389 -0.0463826 -4.26788e-11 1.12596e-11 3.19323e-11 0 2.89799e-08
6 3 0.001 0.00177195 0.0009911 -0.0460034 -1.53018e-10 1.15224e-10 8.44917e-11 0 2.96223e-08
7 3 0.001 0.00220731 0.00123459 -0.0456182 8.02799e-11 -3.19863e-10 9.39509e-11 0 2.99966e-08
8 3 0.001 0.00263769 0.00147529 -0.0452259 -2.05927e-10 1.86363e-10 9.43937e-11 0 3.04383e-08
9 3 0.001 0.00306205 0.00171261 -0.044825 -4.04511e-11 -1.45821e-10 1.17191e-10 0 3.09384e-08
10 3 0.001 0.00347931 0.00194595 -0.0444145 -1.70211e-10 3.41208e-11 1.42294e-10 0 3.14856e-08
11 3 0.001 0.00388839 0.00217469 -0.0439934 -1.00994e-10 -1.00085e-10 1.4414e-10 0 3.20674e-08
12 3 0.001 0.00428818 0.00239823 -0.0435607 -1.52647e-10 -2.93428e-11 1.51049e-10 0 3.267e-08
13 3 0.001 0.00467759 0.00261594 -0.0431159 -1.16493e-10 -1.11455e-10 1.63173e-10 0 3.32782e-08
14 3 0.001 0.0050555 0.0028272 -0.0426582 -2.10976e-10 2.7718e-11 1.76176e-10 0 3.38763e-08
15 3 0.001 0.00542083 0.0030314 -0.0421873 -1.13394e-10 -1.56498e-10 1.79797e-10 0 3.44479e-08
16 3 0.001 0.00577253 0.00322796 -0.0417031 -2.45567e-10 6.41676e-11 1.83309e-10 0 3.49772e-08
17 3 0.001 0.00610959 0.00341631 -0.0412054 -7.36653e-11 -2.46531e-10 1.85903e-10 0 3.54488e-08
18 3 0.001 0.00643105 0.00359591 -0.0406943 -2.92526e-10 1.21592e-10 1.94305e-10 0 3.58487e-08
19 3 0.001 0.00673607 0.00376629 -0.0401702 -8.75427e-11 -2.26904e-10 1.89563e-10 0 3.61647e-08
20 3 0.001 0.00702386 0.00392701 -0.0396335 -2.29482e-10 3.4122e-11 1.87961e-10 0 3.63869e-08
21 3 0.001 0.00729378 0.00407772 -0.0390847 -1.99068e-10 -5.18421e-11 1.96567e-10 0 3.65085e-08
22 3 0.001 0.00754531 0.00421811 -0.0385246 -1.1388e-10 -1.6507e-10 1.8605e-10 0 3.65255e-08
23 3 0.001 0.00777807 0.00434798 -0.0379539 -1.82859e-10 -4.43486e-11 1.88791e-10 0 3.64375e-08
24 3 0.001 0.00799181 0.0044672 -0.0373735 -2.86588e-10 1.66614e-10 1.82286e-10 0 3.62471e-08
25 3 0.001 0.00818649 0.00457573 -0.0367844 2.86467e-11 -3.9345e-10 1.83617e-10 0 3.59605e-08
26 3 0.001 0.00836218 0.00467362 -0.0361874 -2.35212e-10 1.10422e-10 1.77635e-10 0 3.55866e-08
27 3 0.001 0.00851916 0.00476102 -0.0355837 -1.74555e-10 8.48492e-12 1.76404e-10 0 3.51369e-08
28 3 0.001 0.00865783 0.00483817 -0.0349741 -8.9774e-11 -1.04962e-10 1.71037e-10 0 3.46248e-08
29 3 0.001 0.00877879 0.0049054 -0.0343595 -1.233e-10 -1.32917e-11 1.68465e-10 0 3.40654e-08
30 3 0.001 0.00888277 0.00496311 -0.0337408 -8.64288e-11 -1.14988e-10 1.70256e-10 0 3.34744e-08
31 3 0.001 0.00897064 0.00501179 -0.0331188 -1.1601e-10 6.36023e-11 1.62096e-10 0 3.28672e-08
32 3 0.001 0.00904341 0.00505202 -0.0324943 -9.69379e-11 -2.83047e-12 1.63695e-10 0 3.2244e-08
33 3 0.001 0.00910222 0.00508442 -0.0318678 -5.80439e-11 -8.87342e-11 1.63068e-10 0 3.16029e-08
34 3 0.001 0.00914827 0.00510966 -0.0312399 -4.07628e-11 -3.6929e-11 1.57647e-10 0 3.09723e-08
35 3 0.001 0.00918285 0.00512845 -0.0306109 -1.00383e-10 9.92385e-11 1.57967e-10 0 3.0396e-08
36 3 0.001 0.00920722 0.00514145 -0.0299814 -1.30783e-11 -1.36048e-10 1.59646e-10 0 2.99047e-08
37 3 0.001 0.00922262 0.00514934 -0.0293514 -3.84158e-11 1.13225e-11 1.58712e-10 0 2.95131e-08
38 3 0.001 0.00923019 0.00515274 -0.0287212 -7.29428e-11 5.80898e-11 1.5849e-10 0 2.92221e-08
39 3 0.001 0.00923101 0.00515221 -0.028091 -2.42646e-11 -1.02517e-10 1.56809e-10 0 2.9023e-08
40 3 0.001 0.00922601 0.00514826 -0.0274608 -1.37732e-11 -5.93569e-11 1.55506e-10 0 2.89016e-08
41 3 0.001 0.00921603 0.00514133 -0.0268307 -1.30557e-10 8.45256e-11 1.56023e-10 0 2.88415e-08
42 3 0.001 0.00920177 0.00513182 -0.0262006 5.8722e-11 -2.66784e-10 1.54513e-10 0 2.88261e-08
43 3 0.001 0.00918382 0.00512004 -0.0255708 -1.88269e-10 1.28983e-10 1.5544e-10 0 2.88401e-08
44 3 0.001 0.00916267 0.00510627 -0.024941 6.08093e-12 -2.67359e-10 1.52261e-10 0 2.88706e-08
45 3 0.001 0.0091387 0.00509072 -0.0243114 -1.73081e-10 -4.75609e-11 1.48721e-10 0 2.89068e-08
46 3 0.001 0.00911225 0.00507359 -0.023682 -1.40573e-10 -1.00151e-10 1.46794e-10 0 2.89403e-08
47 3 0.001 0.00908356 0.00505503 -0.0230526 -4.60869e-11 -3.77644e-10 1.41055e-10 0 2.89652e-08
48 3 0.001 0.00905286 0.00503517 -0.0224235 -2.79939e-10 -6.84204e-11 1.39429e-10 0 2.89778e-08
49 3 0.001 0.00902036 0.00501414 -0.0217944 -2.04547e-10 -2.68326e-10 1.34671e-10 0 2.89778e-08
50 3 0.001 0.00898623 0.00499208 -0.0211655 -2.3153e-10 -3.23136e-10 1.28973e-10 0 2.89699e-08
51 3 0.001 0.00895069 0.0049691 -0.0205367 -2.20413e-10 -4.18157e-10 1.22809e-10 0 2.89608e-08
52 3 0.001 0.00891394 0.00494533 -0.0199079 -4.03815e-10 -2.63668e-10 1.13867e-10 0 2.89529e-08
53 3 0.001 0.00887618 0.00492093 -0.0192793 -2.48871e-10 -5.21395e-10 1.11253e-10 0 2.89465e-08
54 3 0.001 0.00883765 0.00489602 -0.0186507 -4.60291e-10 -4.18641e-10 9.95471e-11 0 2.89417e-08
55 3 0.001 0.00879856 0.00487075 -0.0180222 -3.74749e-10 -4.90473e-10 9.906e-11 0 2.89386e-08
56 3 0.001 0.00875914 0.00484527 -0.0173937 -4.94924e-10 -6.55093e-10 8.05171e-11 0 2.89374e-08
57 3 0.001 0.00871964 0.00481975 -0.0167652 -4.02914e-10 -6.04511e-10 8.2883e-11 0 2.8938e-08
58 3 0.001 0.00868026 0.0047943 -0.0161367 -5.8056e-10 -6.59832e-10 6.71736e-11 0 2.89404e-08
59 3 0.001 0.00864124 0.00476908 -0.0155082 -6.40306e-10 -5.83501e-10 6.40225e-11 0 2.89447e-08
60 3 0.001 0.0086028 0.00474424 -0.0148796 -4.75404e-10 -9.46729e-10 5.73184e-11 0 2.89507e-08
61 3 0.001 0.00856517 0.00471993 -0.014251 -7.06696e-10 -7.03128e-10 4.78692e-11 0 2.89582e-08
62 3 0.001 0.00852857 0.00469628 -0.0136222 -6.44297e-10 -8.879e-10 4.03694e-11 0 2.89673e-08
63 3 0.001 0.0084932 0.00467343 -0.0129934 -7.6267e-10 -8.08985e-10 3.39044e-11 0 2.89775e-08
64 3 0.001 0.00845928 0.00465151 -0.0123645 -6.8693e-10 -1.02528e-09 2.90988e-11 0 2.89888e-08
65 3 0.001 0.00842701 0.00463066 -0.0117354 -7.71841e-10 -9.59431e-10 2.44472e-11 0 2.90008e-08
66 3 0.001 0.00839656 0.00461099 -0.0111062 -8.4344e-10 -9.40051e-10 1.92138e-11 0 2.90134e-08
67 3 0.001 0.00836813 0.00459262 -0.0104769 -7.78901e-10 -1.15109e-09 1.42914e-11 0 2.90261e-08
68 3 0.001 0.00834187 0.00457565 -0.0098474 -9.0254e-10 -9.81919e-10 1.13306e-11 0 2.90388e-08
69 3 0.001 0.00831794 0.00456019 -0.00921781 -8.68085e-10 -1.13028e-09 7.88925e-12 0 2.90512e-08
70 3 0.001 0.00829647 0.00454633 -0.00858809 -8.48484e-10 -1.21982e-09 6.51767e-12 0 2.90629e-08
71 3 0.001 0.0082776 0.00453414 -0.00795826 -9.91049e-10 -1.04703e-09 4.17517e-12 0 2.90737e-08
72 3 0.001 0.00826143 0.0045237 -0.00732831 -8.86119e-10 -1.22522e-09 3.72896e-12 0 2.90834e-08
73 3 0.001 0.00824807 0.00451506 -0.00669828 -9.60042e-10 -1.2036e-09 3.22208e-12 0 2.90918e-08
74 3 0.001 0.00823758 0.00450828 -0.00606817 -9.9082e-10 -1.17153e-09 2.26963e-12 0 2.90986e-08
75 3 0.001 0.00823003 0.00450341 -0.005438 -8.87184e-10 -1.28793e-09 2.7893e-12 0 2.91038e-08
76 3 0.001 0.00822546 0.00450046 -0.00480778 -1.06343e-09 -1.13509e-09 1.93696e-12 0 2.91072e-08
77 3 0.001 0.0082239 0.00449945 -0.00417755 -9.00419e-10 -1.30838e-09 2.64146e-12 0 2.91088e-08
78 3 0.001 0.00822536 0.0045004 -0.00354732 -1.00694e-09 -1.15006e-09 3.06721e-12 0 2.91085e-08
79 3 0.001 0.00822983 0.00450329 -0.00291711 -9.59367e-10 -1.27532e-09 4.45286e-12 0 2.91063e-08
80 3 0.001 0.00823728 0.0045081 -0.00228694 -9.66927e-10 -1.1825e-09 3.16953e-12 0 2.91024e-08
81 3 0.001 0.00824768 0.00451482 -0.00165682 -9.10234e-10 -1.21778e-09 1.91088e-12 0 2.90968e-08
82 3 0.001 0.00826096 0.0045234 -0.00102679 -1.00732e-09 -1.15024e-09 3.41172e-12 0 2.90896e-08
83 3 0.001 0.00827703 0.00453379 -0.00039684 -8.48002e-10 -1.19519e-09 8.43648e-13 0 2.90811e-08
84 3 0.001 0.00829582 0.00454592 0.000232999 -9.53528e-10 -1.10152e-09 9.26591e-13 0 2.90715e-08
85 3 0.001 0.0083172 0.00455974 0.000862722 -8.62269e-10 -1.13813e-09 -2.99101e-12 0 2.9061e-08
86 3 0.001 0.00834106 0.00457516 0.00149232 -8.42135e-10 -1.10623e-09 -5.91352e-12 0 2.90499e-08
87 3 0.001 0.00836725 0.00459208 0.00212178 -9.03992e-10 -9.4062e-10 -9.19552e-12 0 2.90383e-08
88 3 0.001 0.00839563 0.00461041 0.00275112 -6.86142e-10 -1.17751e-09 -1.25098e-11 0 2.90268e-08
89 3 0.001 0.00842601 0.00463004 0.00338032 -8.99209e-10 -8.34513e-10 -1.51537e-11 0 2.90154e-08
90 3 0.001 0.00845824 0.00465087 0.00400939 -6.98672e-10 -9.86917e-10 -2.38049e-11 0 2.90045e-08
91 3 0.001 0.00849212 0.00467275 0.00463834 -6.45592e-10 -9.84175e-10 -3.0709e-11 0 2.89943e-08
92 3 0.001 0.00852745 0.00469558 0.00526717 -8.02274e-10 -7.03617e-10 -3.41689e-11 0 2.89852e-08
93 3 0.001 0.00856402 0.00471922 0.00589591 -5.85366e-10 -8.53039e-10 -4.27722e-11 0 2.89773e-08
94 3 0.001 0.00860163 0.00474352 0.00652456 -5.639e-10 -9.09454e-10 -4.50946e-11 0 2.89708e-08
95 3 0.001 0.00864006 0.00476835 0.00715314 -6.41415e-10 -4.85356e-10 -6.18227e-11 0 2.89659e-08
96 3 0.001 0.00867908 0.00479357 0.00778166 -5.47154e-10 -8.12133e-10 -5.8609e-11 0 2.89628e-08
97 3 0.001 0.00871847 0.00481902 0.00841016 -3.99012e-10 -5.83024e-10 -8.03649e-11 0 2.89615e-08
98 3 0.001 0.00875798 0.00484456 0.00903864 -5.42844e-10 -6.24711e-10 -7.28038e-11 0 2.8962e-08
99 3 0.001 0.00879742 0.00487005 0.00966713 -3.73038e-10 -4.71213e-10 -9.30156e-11 0 2.89642e-08
100 3 0.001 0.00883655 0.00489534 0.0102957 -4.84997e-10 -4.33446e-10 -9.18391e-11 0 2.89684e-08
101 3 0.001 0.00887513 0.00492028 0.0109242 -2.14164e-10 -5.3505e-10 -1.07482e-10 0 2.89743e-08
102 3 0.001 0.00891293 0.00494471 0.0115528 -3.92292e-10 -3.66099e-10 -1.06117e-10 0 2.89819e-08
103 3 0.001 0.00894975 0.00496851 0.0121816 -2.58376e-10 -3.18977e-10 -1.18213e-10 0 2.89909e-08
104 3 0.001 0.00898536 0.00499154 0.0128104 -2.86797e-10 -2.74765e-10 -1.21103e-10 0 2.90012e-08
105 3 0.001 0.00901955 0.00501365 0.0134393 -1.37856e-10 -3.68302e-10 -1.28292e-10 0 2.90104e-08
106 3 0.001 0.00905213 0.00503472 0.0140683 -2.30072e-10 -1.57188e-10 -1.33345e-10 0 2.90118e-08
107 3 0.001 0.00908291 0.00505463 0.0146975 -2.12586e-10 -1.14771e-10 -1.37291e-10 0 2.90006e-08
108 3 0.001 0.00911169 0.00507325 0.0153268 -2.48071e-11 -3.30017e-10 -1.40672e-10 0 2.8977e-08
109 3 0.001 0.00913824 0.00509044 0.0159563 -1.76023e-10 -3.29627e-11 -1.4362e-10 0 2.89447e-08
110 3 0.001 0.00916231 0.00510605 0.0165859 -8.68058e-11 -8.20431e-11 -1.46173e-10 0 2.89095e-08
111 3 0.001 0.00918358 0.00511989 0.0172156 -3.22386e-11 -1.81391e-10 -1.46534e-10 0 2.88797e-08
112 3 0.001 0.00920165 0.00513174 0.0178455 -1.39121e-10 8.40337e-11 -1.4982e-10 0 2.88661e-08
113 3 0.001 0.00921604 0.00514134 0.0184755 4.60668e-11 -2.02193e-10 -1.51035e-10 0 2.88817e-08
114 3 0.001 0.00922617 0.00514834 0.0191056 -9.76474e-11 3.27445e-11 -1.52026e-10 0 2.89418e-08
115 3 0.001 0.00923132 0.00515239 0.0197358 -6.941e-11 3.39572e-11 -1.51311e-10 0 2.9063e-08
116 3 0.001 0.00923068 0.00515302 0.0203661 3.52651e-11 -1.41127e-10 -1.50667e-10 0 2.92618e-08
117 3 0.001 0.0092233 0.00514973 0.0209962 -8.35698e-11 4.86764e-11 -1.51131e-10 0 2.95527e-08
118 3 0.001 0.00920812 0.00514196 0.0216262 -8.42189e-11 5.37252e-11 -1.54194e-10 0 2.99447e-08
119 3 0.001 0.00918398 0.00512908 0.0222558 8.0907e-11 -2.4208e-10 -1.54282e-10 0 3.04371e-08
120 3 0.001 0.00914964 0.00511044 0.0228847 -2.56165e-10 3.19373e-10 -1.55683e-10 0 3.10157e-08
121 3 0.001 0.00910384 0.00508533 0.0235127 5.40641e-11 -2.2788e-10 -1.53638e-10 0 3.16499e-08
122 3 0.001 0.0090453 0.00505308 0.0241392 -5.99831e-11 -6.19192e-11 -1.55058e-10 0 3.22961e-08
123 3 0.001 0.0089728 0.005013 0.0247638 -1.62715e-10 8.89679e-11 -1.60413e-10 0 3.29245e-08
125 3 0.001 0.00878148 0.0049069 0.0260045 -6.74759e-11 -1.36341e-10 -1.66409e-10 0 3.41327e-08
124 3 0.001 0.0088852 0.00496446 0.0253858 -8.85354e-11 -2.53072e-11 -1.5946e-10 0 3.35367e-08
126 3 0.001 0.00866077 0.00483981 0.0266192 -1.94618e-10 9.82364e-11 -1.64695e-10 0 3.46975e-08
128 3 0.001 0.00836557 0.00467551 0.0278327 -1.52622e-10 -1.55306e-11 -1.69779e-10 0 3.56701e-08
127 3 0.001 0.00852233 0.00476279 0.0272288 -8.93779e-11 -1.35944e-10 -1.70192e-10 0 3.5215e-08
129 3 0.001 0.00819007 0.00457772 0.0284297 -1.73255e-10 -2.86873e-11 -1.77261e-10 0 3.60491e-08
130 3 0.001 0.00799555 0.00446928 0.0290189 -1.30064e-10 -1.03143e-10 -1.7839e-10 0 3.63405e-08
131 3 0.001 0.00778193 0.00435013 0.0295993 -1.66412e-10 -4.97806e-11 -1.79808e-10 0 3.65351e-08
133 3 0.001 0.0072978 0.00407995 0.0307302 -1.52696e-10 -1.06373e-10 -1.85693e-10 0 3.66127e-08
132 3 0.001 0.00754927 0.00422031 0.03017 -2.19418e-10 2.05736e-11 -1.84168e-10 0 3.66268e-08
134 3 0.001 0.0070279 0.00392925 0.031279 -1.62148e-10 -8.26972e-11 -1.82775e-10 0 3.64934e-08
135 3 0.001 0.00674009 0.00376852 0.0318157 -1.57082e-10 -8.91503e-11 -1.80924e-10 0 3.62725e-08
136 3 0.001 0.00643503 0.00359811 0.0323397 -2.32625e-10 1.95009e-11 -1.92023e-10 0 3.59571e-08
139 3 0.001 0.00542445 0.00303341 0.0338325 -2.00132e-10 8.50388e-12 -1.71393e-10 0 3.45536e-08
138 3 0.001 0.0057763 0.00323005 0.0333483 -1.05675e-10 -1.72705e-10 -1.78606e-10 0 3.50844e-08
137 3 0.001 0.00611347 0.00341846 0.0328507 -1.75545e-10 -4.72172e-11 -1.80542e-10 0 3.5557e-08
143 3 0.001 0.00389115 0.00217622 0.0356375 -1.18884e-10 -4.65156e-11 -1.3448e-10 0 3.21629e-08
140 3 0.001 0.00505894 0.00282911 0.0343031 -1.89521e-10 -4.71417e-12 -1.68343e-10 0 3.39798e-08
141 3 0.001 0.00468082 0.00261773 0.0347606 -9.35282e-11 -1.52846e-10 -1.61623e-10 0 3.33793e-08
142 3 0.001 0.00429119 0.0023999 0.0352052 -1.53392e-10 -1.55258e-11 -1.49617e-10 0 3.27683e-08
146 3 0.001 0.00263961 0.00147636 0.0368688 -7.24905e-11 -6.46422e-11 -1.01166e-10 0 3.05254e-08
144 3 0.001 0.0034818 0.00194733 0.0360583 -2.03391e-10 9.27513e-11 -1.42449e-10 0 3.15781e-08
145 3 0.001 0.00306426 0.00171384 0.0364684 -1.78048e-12 -2.12628e-10 -1.10065e-10 0 3.1028e-08
147 3 0.001 0.00220892 0.00123549 0.0372608 -1.58118e-10 1.31324e-10 -7.92667e-11 0 3.00813e-08
148 3 0.001 0.00177325 0.00099182 0.0376454 -6.25875e-11 -3.70467e-11 -8.16105e-11 0 2.97052e-08
149 3 0.001 0.00133362 0.000745932 0.0380241 2.43124e-11 -1.31617e-10 -4.77186e-11 0 2.90608e-08
150 3 0.001 0.000891018 0.000498375 0.0383984 -4.66908e-11 1.75938e-11 -3.59737e-11 0 2.3053e-08
151 3 0.001 0.000445997 0.000249461 0.03877 -5.73685e-11 6.48394e-11 -1.99059e-11 0 1.74851e-08
2 2 0.001 0 0 0.03914 -0.00833005 -0.00464937 0.018805 0 8.72536e-09
