ITEM: TIMESTEP
8900000
ITEM: NUMBER OF ATOMS
151
ITEM: BOX BOUNDS ff ff ff
-1.0000000000000000e-02 1.0000000000000000e-02
-6.0000000000000001e-03 6.0000000000000001e-03
-5.2499999999999998e-02 5.2499999999999998e-02
ITEM: ATOMS id type radius x y z fx fy fz c_bendingE c_stretchingE
1 1 0.001 0 0 -0.0475 -0.00213698 0 -0.014693 0 1.50489e-09
3 3 0.001 0.000516749 0 -0.0471356 -4.86941e-10 0 7.82302e-10 0 3.04603e-09
4 3 0.001 0.00103102 0 -0.0467676 2.18483e-09 0 -2.53905e-09 0 5.788e-09
5 3 0.001 0.00154227 0 -0.0463967 -3.60722e-09 0 4.87614e-09 0 8.76251e-09
6 3 0.001 0.00204973 0 -0.0460206 3.7961e-09 0 -5.63321e-09 0 9.15254e-09
7 3 0.001 0.0025521 0 -0.0456378 -2.08312e-09 0 2.72762e-09 0 9.42442e-09
8 3 0.001 0.00304804 0 -0.0452468 8.62008e-11 0 2.42438e-11 0 9.75435e-09
9 3 0.001 0.00353612 0 -0.0448461 -5.03266e-10 0 5.92597e-10 0 1.01404e-08
10 3 0.001 0.00401487 0 -0.0444343 1.7292e-09 0 -1.72726e-09 0 1.05798e-08
11 3 0.001 0.00448274 0 -0.0440102 -1.21597e-09 0 1.4392e-09 0 1.10689e-08
12 3 0.001 0.00493813 0 -0.0435729 -3.52826e-10 0 2.03321e-11 0 1.16026e-08
13 3 0.001 0.00537937 0 -0.0431213 -2.216e-10 0 5.65432e-11 0 1.21747e-08
14 3 0.001 0.00580475 0 -0.0426548 3.10336e-09 0 -2.46311e-09 0 1.27774e-08
15 3 0.001 0.00621251 0 -0.0421729 -3.33615e-09 0 2.74674e-09 0 1.34017e-08
16 3 0.001 0.00660087 0 -0.0416753 1.09212e-09 0 -9.00361e-10 0 1.40368e-08
17 3 0.001 0.00696804 0 -0.041162 -2.64734e-09 0 1.66253e-09 0 1.46709e-08
18 3 0.001 0.00731227 0 -0.040633 7.60541e-09 0 -4.62326e-09 0 1.52908e-08
19 3 0.001 0.00763184 0 -0.0400888 -9.49401e-09 0 5.48461e-09 0 1.58829e-08
20 3 0.001 0.00792509 0 -0.0395301 6.44944e-09 0 -3.26643e-09 0 1.64332e-08
21 3 0.001 0.00819049 0 -0.0389576 -2.60936e-09 0 9.96079e-10 0 1.69278e-08
22 3 0.001 0.00842663 0 -0.0383725 9.57332e-10 0 -4.28916e-10 0 1.73536e-08
23 3 0.001 0.00863224 0 -0.037776 -1.57789e-09 0 6.91038e-10 0 1.76989e-08
24 3 0.001 0.00880627 0 -0.0371696 3.65719e-09 0 -7.52712e-10 0 1.7954e-08
25 3 0.001 0.00894784 0 -0.0365548 -5.8671e-09 0 9.64239e-10 0 1.81114e-08
26 3 0.001 0.00905633 0 -0.0359333 5.86331e-09 0 -1.02447e-09 0 1.81526e-08
27 3 0.001 0.00913135 0 -0.0353069 -1.78408e-09 0 2.91056e-10 0 1.80689e-08
28 3 0.001 0.00917274 0 -0.0346774 -3.26459e-09 0 5.35904e-11 0 1.79167e-08
29 3 0.001 0.00918052 0 -0.0340465 3.32743e-09 0 2.08595e-10 0 1.77729e-08
30 3 0.001 0.00915486 0 -0.0334161 -1.07937e-10 0 1.27754e-10 0 1.76551e-08
31 3 0.001 0.0090961 0 -0.0327879 -8.30814e-10 0 -1.93841e-10 0 1.75144e-08
32 3 0.001 0.00900468 0 -0.0321637 -4.91707e-10 0 -2.00924e-10 0 1.72752e-08
33 3 0.001 0.00888127 0 -0.0315449 1.98754e-09 0 3.4306e-10 0 1.69286e-08
34 3 0.001 0.00872675 0 -0.0309331 -2.8347e-09 0 -7.37101e-10 0 1.65076e-08
35 3 0.001 0.00854218 0 -0.0303297 8.29329e-10 0 4.83991e-10 0 1.60238e-08
37 3 0.001 0.00808803 0 -0.0291525 -4.04815e-09 0 -1.98863e-09 0 1.49181e-08
36 3 0.001 0.00832881 0 -0.0297358 2.60119e-09 0 1.12986e-09 0 1.54896e-08
38 3 0.001 0.00782136 0 -0.0285804 2.83042e-09 0 1.3191e-09 0 1.43225e-08
39 3 0.001 0.00753041 0 -0.0280203 -3.29967e-10 0 -2.98346e-11 0 1.37155e-08
40 3 0.001 0.00721688 0 -0.0274724 -9.97419e-10 0 -6.55669e-10 0 1.31094e-08
43 3 0.001 0.00615825 0 -0.0259029 -2.12804e-09 0 -1.69412e-09 0 1.14005e-08
42 3 0.001 0.00652904 0 -0.0264139 1.04134e-09 0 7.59591e-10 0 1.19427e-08
41 3 0.001 0.0068825 0 -0.026937 8.54733e-11 0 5.09749e-11 0 1.25152e-08
46 3 0.001 0.00495946 0 -0.0244366 -4.82136e-10 0 -8.39256e-10 0 1.00202e-08
45 3 0.001 0.00537174 0 -0.024915 -2.29471e-09 0 -1.74711e-09 0 1.0434e-08
44 3 0.001 0.00577191 0 -0.0254034 3.14019e-09 0 2.74954e-09 0 1.08957e-08
49 3 0.001 0.0036663 0 -0.0230521 1.89914e-09 0 1.93445e-09 0 9.09626e-09
50 3 0.001 0.00322176 0 -0.0226034 4.62816e-10 0 6.70959e-10 0 8.9004e-09
48 3 0.001 0.00410513 0 -0.0235064 -3.51311e-09 0 -3.17131e-09 0 9.34911e-09
47 3 0.001 0.00453671 0 -0.0239675 2.93647e-09 0 2.57882e-09 0 9.6577e-09
53 3 0.001 0.00186881 0 -0.0212767 -1.45857e-09 0 -1.59494e-09 0 8.66121e-09
51 3 0.001 0.00277301 0 -0.0221589 -1.96633e-09 0 -1.98588e-09 0 8.76232e-09
52 3 0.001 0.00232154 0 -0.0217172 1.98581e-09 0 1.73668e-09 0 8.68251e-09
56 3 0.001 0.00051766 0 -0.0199482 5.81841e-10 0 6.93055e-10 0 8.94807e-09
55 3 0.001 0.00096541 0 -0.0203937 -2.57118e-09 0 -2.57557e-09 0 8.79419e-09
54 3 0.001 0.00141628 0 -0.0208361 1.99862e-09 0 2.18742e-09 0 8.69847e-09
60 3 0.001 -0.00121187 0 -0.0181074 2.74809e-09 0 2.50385e-09 0 1.0128e-08
58 3 0.001 -0.000362488 0 -0.0190422 -4.27895e-09 0 -4.31615e-09 0 9.42775e-09
57 3 0.001 7.45213e-05 0 -0.0194981 2.94415e-09 0 2.97015e-09 0 9.15956e-09
59 3 0.001 -0.000791817 0 -0.018579 1.74044e-09 0 1.44063e-09 0 9.75125e-09
61 3 0.001 -0.00162102 0 -0.0176264 -5.10065e-09 0 -4.14464e-09 0 1.05553e-08
62 3 0.001 -0.00201759 0 -0.017135 3.78549e-09 0 3.11065e-09 0 1.10292e-08
63 3 0.001 -0.00239987 0 -0.0166325 -1.47751e-09 0 -1.1202e-09 0 1.15449e-08
65 3 0.001 -0.00311455 0 -0.0155918 1.43696e-10 0 3.3576e-11 0 1.26754e-08
64 3 0.001 -0.00276611 0 -0.0161182 4.7066e-10 0 2.76419e-11 0 1.20961e-08
68 3 0.001 -0.00403546 0 -0.0139383 -3.7228e-09 0 -2.10976e-09 0 1.44865e-08
66 3 0.001 -0.00344342 0 -0.0150529 -1.37813e-09 0 -4.00697e-10 0 1.32739e-08
67 3 0.001 -0.00375096 0 -0.0145017 3.05043e-09 0 1.61599e-09 0 1.38814e-08
70 3 0.001 -0.00452869 0 -0.0127768 1.90577e-09 0 7.1267e-10 0 1.56395e-08
69 3 0.001 -0.00429523 0 -0.0133631 1.85683e-09 0 7.93664e-10 0 1.50768e-08
71 3 0.001 -0.00473434 0 -0.0121802 -4.45203e-09 0 -1.29601e-09 0 1.61612e-08
72 3 0.001 -0.00491083 0 -0.0115744 4.12415e-09 0 1.32482e-09 0 1.66292e-08
73 3 0.001 -0.00505697 0 -0.0109606 -6.96821e-10 0 -3.69153e-10 0 1.70311e-08
74 3 0.001 -0.00517173 0 -0.0103401 -4.05302e-09 0 -8.07731e-10 0 1.73561e-08
75 3 0.001 -0.00525431 0 -0.00971462 5.99575e-09 0 6.40327e-10 0 1.75952e-08
76 3 0.001 -0.00530409 0 -0.00908567 -3.43414e-09 0 -1.67436e-10 0 1.77414e-08
77 3 0.001 -0.00532073 0 -0.00845498 4.77293e-11 0 2.2175e-10 0 1.77907e-08
78 3 0.001 -0.0053041 0 -0.00782429 2.70828e-09 0 -7.28271e-11 0 1.77415e-08
79 3 0.001 -0.00525432 0 -0.00719534 -5.87602e-09 0 5.59941e-10 0 1.75952e-08
80 3 0.001 -0.00517175 0 -0.00656983 7.66108e-09 0 -1.56161e-09 0 1.73562e-08
81 3 0.001 -0.00505699 0 -0.00594941 -6.91562e-09 0 1.47597e-09 0 1.70312e-08
82 3 0.001 -0.00491085 0 -0.00533559 5.08158e-09 0 -9.76967e-10 0 1.66293e-08
83 3 0.001 -0.00473436 0 -0.00472976 -2.93279e-09 0 8.63159e-10 0 1.61614e-08
84 3 0.001 -0.00452871 0 -0.00413317 2.43454e-09 0 -1.03067e-09 0 1.56396e-08
85 3 0.001 -0.00429526 0 -0.00354686 -3.75591e-09 0 1.70212e-09 0 1.5077e-08
86 3 0.001 -0.00403549 0 -0.00297167 4.58779e-09 0 -2.27954e-09 0 1.44867e-08
87 3 0.001 -0.003751 0 -0.00240825 -4.55713e-09 0 2.45996e-09 0 1.38816e-08
88 3 0.001 -0.00344346 0 -0.00185703 4.97575e-09 0 -2.81282e-09 0 1.32741e-08
89 3 0.001 -0.00311459 0 -0.00131819 -5.32212e-09 0 3.18636e-09 0 1.26756e-08
90 3 0.001 -0.00276615 0 -0.000791746 5.19776e-09 0 -3.58032e-09 0 1.20963e-08
91 3 0.001 -0.00239991 0 -0.000277465 -3.74475e-09 0 3.03424e-09 0 1.1545e-08
92 3 0.001 -0.00201764 0 0.000225067 -4.4672e-12 0 1.71388e-10 0 1.10294e-08
93 3 0.001 -0.00162107 0 0.000716452 3.41879e-09 0 -3.10793e-09 0 1.05554e-08
94 3 0.001 -0.00121192 0 0.00119747 -3.37114e-09 0 2.67385e-09 0 1.01282e-08
95 3 0.001 -0.000791865 0 0.00166903 1.1805e-09 0 -1.06634e-09 0 9.75141e-09
96 3 0.001 -0.000362536 0 0.00213222 -4.45975e-11 0 3.46457e-10 0 9.42791e-09
97 3 0.001 7.44729e-05 0 0.0025882 1.89356e-09 0 -1.52375e-09 0 9.15971e-09
98 3 0.001 0.000517611 0 0.00303826 -3.04157e-09 0 2.87899e-09 0 8.94822e-09
99 3 0.001 0.000965362 0 0.00348376 -9.74164e-10 0 5.62087e-10 0 8.79433e-09
100 3 0.001 0.00141624 0 0.00392611 6.2608e-09 0 -6.41866e-09 0 8.69861e-09
101 3 0.001 0.00186877 0 0.00436678 -7.26431e-09 0 7.74287e-09 0 8.66134e-09
102 3 0.001 0.00232149 0 0.00480725 3.79342e-09 0 -3.876e-09 0 8.68264e-09
103 3 0.001 0.00277296 0 0.005249 1.28076e-09 0 -1.16743e-09 0 8.76245e-09
104 3 0.001 0.00322171 0 0.0056935 -3.72556e-09 0 3.53117e-09 0 8.90053e-09
105 3 0.001 0.00366626 0 0.00614217 2.66472e-09 0 -2.94007e-09 0 9.09639e-09
106 3 0.001 0.00410509 0 0.00659641 -1.51261e-09 0 1.78962e-09 0 9.34924e-09
107 3 0.001 0.00453667 0 0.00705751 2.26228e-09 0 -1.78572e-09 0 9.65784e-09
108 3 0.001 0.00495942 0 0.00752668 -4.29265e-09 0 3.47132e-09 0 1.00203e-08
109 3 0.001 0.00537171 0 0.00800502 5.24809e-09 0 -4.68527e-09 0 1.04342e-08
110 3 0.001 0.00577187 0 0.00849349 -3.83173e-09 0 3.19743e-09 0 1.08958e-08
111 3 0.001 0.00615822 0 0.00899291 7.39139e-10 0 -4.2357e-10 0 1.14007e-08
112 3 0.001 0.00652901 0 0.00950394 2.77155e-09 0 -1.69485e-09 0 1.19429e-08
113 3 0.001 0.00688248 0 0.010027 -4.99719e-09 0 3.05812e-09 0 1.25154e-08
114 3 0.001 0.00721686 0 0.0105625 4.06566e-09 0 -2.84764e-09 0 1.31097e-08
115 3 0.001 0.00753039 0 0.0111103 -1.30552e-09 0 9.03846e-10 0 1.37158e-08
116 3 0.001 0.00782134 0 0.0116705 3.27323e-10 0 1.11611e-10 0 1.43227e-08
117 3 0.001 0.00808802 0 0.0122425 -1.43469e-09 0 4.2972e-10 0 1.49184e-08
118 3 0.001 0.0083288 0 0.0128258 4.868e-10 0 -3.3306e-10 0 1.54899e-08
119 3 0.001 0.00854218 0 0.0134197 2.79732e-09 0 -6.59778e-10 0 1.60241e-08
120 3 0.001 0.00872675 0 0.0140232 -4.12663e-09 0 1.15568e-09 0 1.6508e-08
121 3 0.001 0.00888127 0 0.0146349 1.50847e-09 0 -5.67864e-10 0 1.6929e-08
122 3 0.001 0.00900468 0 0.0152537 1.15996e-09 0 -1.65077e-10 0 1.72756e-08
123 3 0.001 0.0090961 0 0.015878 -6.13344e-10 0 7.85874e-11 0 1.75148e-08
124 3 0.001 0.00915487 0 0.0165062 -3.97169e-10 0 3.78392e-11 0 1.76555e-08
125 3 0.001 0.00918053 0 0.0171365 -3.5622e-11 0 1.07579e-10 0 1.77733e-08
126 3 0.001 0.00917275 0 0.0177674 -9.98803e-10 0 -1.95969e-10 0 1.79172e-08
127 3 0.001 0.00913137 0 0.0183969 1.62793e-09 0 5.71988e-11 0 1.80694e-08
128 3 0.001 0.00905635 0 0.0190234 2.14682e-09 0 6.45108e-10 0 1.81531e-08
129 3 0.001 0.00894786 0 0.0196448 -7.09034e-09 0 -1.58539e-09 0 1.81119e-08
130 3 0.001 0.00880629 0 0.0202596 6.84319e-09 0 1.55851e-09 0 1.79546e-08
132 3 0.001 0.00842665 0 0.0214626 -3.42758e-09 0 -1.42243e-09 0 1.73542e-08
133 3 0.001 0.00819052 0 0.0220477 4.5067e-09 0 1.87044e-09 0 1.69284e-08
131 3 0.001 0.00863226 0 0.0208661 -1.45829e-09 0 -1.91746e-10 0 1.76995e-08
134 3 0.001 0.00792512 0 0.0226201 -2.87255e-09 0 -1.19389e-09 0 1.64338e-08
135 3 0.001 0.00763186 0 0.0231789 -4.01051e-10 0 -3.63825e-10 0 1.58836e-08
136 3 0.001 0.0073123 0 0.023723 2.05873e-09 0 1.20965e-09 0 1.52914e-08
138 3 0.001 0.00660089 0 0.0247654 -4.32488e-09 0 -3.43977e-09 0 1.40374e-08
139 3 0.001 0.00621253 0 0.025263 4.35167e-09 0 3.23669e-09 0 1.34023e-08
137 3 0.001 0.00696807 0 0.024252 7.82654e-10 0 8.42252e-10 0 1.46715e-08
141 3 0.001 0.0053794 0 0.0262113 -7.63113e-10 0 -5.57038e-10 0 1.21752e-08
142 3 0.001 0.00493815 0 0.0266629 1.06581e-09 0 9.23952e-10 0 1.16031e-08
140 3 0.001 0.00580478 0 0.0257448 -1.76091e-09 0 -1.26533e-09 0 1.2778e-08
145 3 0.001 0.00353614 0 0.0279361 -5.20433e-10 0 -9.10857e-10 0 1.01409e-08
143 3 0.001 0.00448276 0 0.0271002 4.91575e-11 0 6.98885e-11 0 1.10694e-08
144 3 0.001 0.00401489 0 0.0275243 -4.45302e-10 0 -4.20588e-10 0 1.05803e-08
148 3 0.001 0.00204974 0 0.0291106 5.40659e-10 0 7.19828e-10 0 9.15295e-09
149 3 0.001 0.00154228 0 0.0294867 1.45993e-09 0 2.27688e-09 0 8.76291e-09
146 3 0.001 0.00304806 0 0.0283368 2.52099e-09 0 3.16139e-09 0 9.75479e-09
147 3 0.001 0.00255212 0 0.0287279 -3.019e-09 0 -3.75508e-09 0 9.42484e-09
151 3 0.001 0.000516751 0 0.0302256 4.34433e-10 0 1.36058e-10 0 3.04627e-09
2 2 0.001 0 0 0.03059 -0.00213715 0 0.0146933 0 1.50501e-09
150 3 0.001 0.00103103 0 0.0298577 -1.17159e-09 0 -1.71378e-09 0 5.78831e-09
