ITEM: TIMESTEP
5700000
ITEM: NUMBER OF ATOMS
151
ITEM: BOX BOUNDS ff ff ff
-1.0000000000000000e-02 1.0000000000000000e-02
-6.0000000000000001e-03 6.0000000000000001e-03
-5.2499999999999998e-02 5.2499999999999998e-02
ITEM: ATOMS id type radius x y z fx fy fz c_bendingE c_stretchingE
3 3 0.001 0.000336076 0.00031018 -0.0470636 1.16455e-11 -2.51902e-11 7.73436e-12 0 4.09884e-09
1 1 0.001 0 0 -0.0475 -0.00433836 -0.000134972 -0.0128128 0 2.04424e-09
4 3 0.001 0.000671828 0.000619296 -0.0466261 3.75888e-12 -3.22964e-11 1.8302e-11 0 7.0987e-09
5 3 0.001 0.00100658 0.000925965 -0.0461871 2.45994e-11 -5.72882e-11 2.11448e-11 0 1.03317e-08
6 3 0.001 0.00134033 0.00122942 -0.0457452 1.55068e-11 -7.40976e-11 3.68612e-11 0 1.06397e-08
7 3 0.001 0.00167274 0.00152862 -0.0452995 3.07677e-11 -9.51311e-11 4.06955e-11 0 1.07836e-08
8 3 0.001 0.00200344 0.00182248 -0.0448489 3.37514e-11 -1.11236e-10 4.71745e-11 0 1.09564e-08
9 3 0.001 0.00233206 0.00210994 -0.0443928 3.25162e-11 -1.31185e-10 6.05796e-11 0 1.11564e-08
10 3 0.001 0.00265818 0.0023899 -0.0439302 5.33861e-11 -1.57118e-10 6.16456e-11 0 1.13812e-08
11 3 0.001 0.00298138 0.00266129 -0.0434606 3.23335e-11 -1.59209e-10 7.68502e-11 0 1.16281e-08
12 3 0.001 0.00330118 0.00292304 -0.0429833 6.74273e-11 -2.02494e-10 7.7213e-11 0 1.18939e-08
13 3 0.001 0.00361713 0.00317408 -0.0424977 3.89742e-11 -2.01104e-10 9.35045e-11 0 1.2175e-08
14 3 0.001 0.00392869 0.00341335 -0.0420035 7.92425e-11 -2.38618e-10 8.66423e-11 0 1.24674e-08
15 3 0.001 0.00423535 0.00363982 -0.0415004 4.67499e-11 -2.43862e-10 1.08442e-10 0 1.27667e-08
16 3 0.001 0.00453656 0.00385248 -0.040988 7.64657e-11 -2.79637e-10 1.06151e-10 0 1.30679e-08
17 3 0.001 0.00483175 0.00405034 -0.0404662 6.59771e-11 -2.8591e-10 1.14583e-10 0 1.33661e-08
18 3 0.001 0.00512034 0.00423248 -0.0399352 6.70655e-11 -3.14058e-10 1.21661e-10 0 1.36559e-08
19 3 0.001 0.00540175 0.00439802 -0.039395 8.11513e-11 -3.4091e-10 1.23745e-10 0 1.3932e-08
20 3 0.001 0.0056754 0.00454614 -0.0388459 7.49623e-11 -3.53845e-10 1.30334e-10 0 1.4189e-08
21 3 0.001 0.00594071 0.00467608 -0.0382881 6.78873e-11 -3.73885e-10 1.37409e-10 0 1.44219e-08
22 3 0.001 0.00619713 0.00478719 -0.0377222 8.40444e-11 -4.04499e-10 1.36042e-10 0 1.46258e-08
23 3 0.001 0.00644411 0.0048789 -0.0371487 7.64538e-11 -4.21009e-10 1.40685e-10 0 1.47964e-08
24 3 0.001 0.00668115 0.00495071 -0.0365682 7.30862e-11 -4.40668e-10 1.44965e-10 0 1.493e-08
25 3 0.001 0.0069078 0.00500227 -0.0359815 7.91485e-11 -4.68566e-10 1.44789e-10 0 1.50236e-08
26 3 0.001 0.00712362 0.0050333 -0.0353892 7.02194e-11 -4.81682e-10 1.47022e-10 0 1.50745e-08
27 3 0.001 0.00732826 0.00504366 -0.0347923 7.80666e-11 -5.10811e-10 1.44334e-10 0 1.50849e-08
28 3 0.001 0.00752141 0.00503331 -0.0341916 6.75514e-11 -5.28181e-10 1.46679e-10 0 1.50591e-08
29 3 0.001 0.00770284 0.00500231 -0.0335879 6.50833e-11 -5.45259e-10 1.4441e-10 0 1.49932e-08
30 3 0.001 0.00787238 0.00495084 -0.0329822 6.76669e-11 -5.70988e-10 1.41284e-10 0 1.48852e-08
31 3 0.001 0.00802992 0.00487917 -0.0323753 6.46999e-11 -5.8572e-10 1.3769e-10 0 1.47381e-08
32 3 0.001 0.00817546 0.0047877 -0.031768 4.74343e-11 -5.98177e-10 1.38606e-10 0 1.45553e-08
33 3 0.001 0.00830905 0.00467692 -0.0311612 6.57556e-11 -6.21693e-10 1.28431e-10 0 1.43407e-08
34 3 0.001 0.00843082 0.00454744 -0.0305555 4.37325e-11 -6.27445e-10 1.29511e-10 0 1.40987e-08
37 3 0.001 0.0087277 0.00405394 -0.0287523 3.10394e-11 -6.62636e-10 1.13919e-10 0 1.32595e-08
36 3 0.001 0.00863983 0.00423515 -0.0293505 4.95987e-11 -6.56788e-10 1.17215e-10 0 1.35529e-08
35 3 0.001 0.00854098 0.00439993 -0.0299518 4.33602e-11 -6.47383e-10 1.22318e-10 0 1.38344e-08
39 3 0.001 0.00887228 0.00364581 -0.0275665 2.91977e-11 -6.82658e-10 1.03379e-10 0 1.26585e-08
38 3 0.001 0.00880502 0.00385718 -0.0281575 3.4724e-11 -6.80278e-10 1.05737e-10 0 1.29597e-08
40 3 0.001 0.00893002 0.00342082 -0.0269795 2.84502e-11 -6.94877e-10 9.50867e-11 0 1.23612e-08
42 3 0.001 0.00901933 0.00293407 -0.0258179 3.61505e-11 -7.15e-10 8.00406e-11 0 1.1795e-08
41 3 0.001 0.00897882 0.00318323 -0.0263966 1.09534e-11 -6.92632e-10 9.4773e-11 0 1.20722e-08
45 3 0.001 0.00909809 0.00212785 -0.0241059 4.92141e-12 -7.08918e-10 7.51499e-11 0 1.10615e-08
44 3 0.001 0.00907825 0.00240531 -0.0246728 2.43069e-11 -7.25017e-10 7.02192e-11 0 1.12848e-08
43 3 0.001 0.00905224 0.0026744 -0.0252433 -4.9867e-12 -6.94912e-10 8.8643e-11 0 1.15313e-08
47 3 0.001 0.00912217 0.00155221 -0.0229821 -8.60465e-12 -7.1639e-10 6.60807e-11 0 1.07019e-08
46 3 0.001 0.0091125 0.00184313 -0.0235425 1.03949e-11 -7.20151e-10 6.65885e-11 0 1.08663e-08
50 3 0.001 0.0091293 0.000653127 -0.0213147 -2.25289e-14 -7.21697e-10 5.33397e-11 0 1.03998e-08
49 3 0.001 0.00912997 0.000956132 -0.0218688 -9.41117e-12 -7.16421e-10 6.01885e-11 0 1.04691e-08
48 3 0.001 0.00912779 0.00125619 -0.0224244 2.00122e-11 -7.26305e-10 5.61626e-11 0 1.05695e-08
53 3 0.001 0.00911536 -0.000262853 -0.0196565 -9.5927e-12 -7.14604e-10 4.95906e-11 0 1.03631e-08
52 3 0.001 0.00912151 4.25793e-05 -0.0202092 -2.34358e-12 -7.24044e-10 4.69673e-11 0 1.03489e-08
51 3 0.001 0.00912631 0.00034825 -0.0207617 2.75143e-12 -7.1912e-10 5.22762e-11 0 1.03604e-08
55 3 0.001 0.00910015 -0.000868769 -0.0185485 -9.23038e-12 -7.14583e-10 4.50385e-11 0 1.0464e-08
54 3 0.001 0.00910815 -0.000567002 -0.0191031 4.11521e-12 -7.1504e-10 4.55252e-11 0 1.04017e-08
58 3 0.001 0.00907366 -0.00174902 -0.0168713 -8.64654e-12 -7.03791e-10 4.34647e-11 0 1.07756e-08
57 3 0.001 0.00908271 -0.00146085 -0.0174331 -4.1399e-12 -7.09275e-10 4.30531e-11 0 1.06525e-08
56 3 0.001 0.0090916 -0.00116707 -0.017992 -2.10739e-12 -7.11923e-10 4.35702e-11 0 1.05481e-08
60 3 0.001 0.00905562 -0.00230436 -0.0157373 3.95745e-12 -7.00152e-10 4.17148e-11 0 1.1071e-08
59 3 0.001 0.00906459 -0.00203055 -0.0163062 -7.80596e-12 -7.02181e-10 4.29313e-11 0 1.09157e-08
61 3 0.001 0.00904685 -0.00256942 -0.0151642 -1.83064e-11 -6.91832e-10 4.36714e-11 0 1.12395e-08
63 3 0.001 0.00903017 -0.00306919 -0.0140047 -1.02798e-11 -6.8527e-10 4.38428e-11 0 1.16072e-08
62 3 0.001 0.00903835 -0.0028247 -0.0145868 2.34982e-12 -6.93253e-10 4.38422e-11 0 1.14191e-08
65 3 0.001 0.009015 -0.00352182 -0.0128261 5.79854e-12 -6.76865e-10 4.53725e-11 0 1.19989e-08
64 3 0.001 0.00902238 -0.00330188 -0.0134179 -1.24472e-11 -6.83757e-10 4.42924e-11 0 1.18014e-08
66 3 0.001 0.00900809 -0.00372807 -0.0122295 -1.82959e-11 -6.70208e-10 4.66112e-11 0 1.21966e-08
67 3 0.001 0.00900165 -0.00391974 -0.011628 -5.27333e-12 -6.72142e-10 4.65259e-11 0 1.23916e-08
68 3 0.001 0.00899574 -0.00409597 -0.0110218 -7.34745e-12 -6.63407e-10 4.85157e-11 0 1.25808e-08
69 3 0.001 0.00899037 -0.00425598 -0.0104111 -6.93565e-12 -6.56944e-10 4.85803e-11 0 1.27609e-08
70 3 0.001 0.00898556 -0.00439903 -0.00979631 -7.1256e-12 -6.54129e-10 4.92678e-11 0 1.29287e-08
71 3 0.001 0.00898135 -0.00452444 -0.00917764 -1.25591e-11 -6.4898e-10 5.03218e-11 0 1.30813e-08
72 3 0.001 0.00897774 -0.00463163 -0.00855557 -5.40911e-12 -6.4274e-10 5.07187e-11 0 1.32159e-08
73 3 0.001 0.00897477 -0.00472007 -0.00793056 -7.128e-12 -6.39233e-10 5.191e-11 0 1.33299e-08
75 3 0.001 0.00897075 -0.00483908 -0.00667389 -3.31022e-12 -6.27672e-10 5.17758e-11 0 1.34877e-08
74 3 0.001 0.00897243 -0.00478933 -0.00730315 -1.13319e-11 -6.33526e-10 5.22386e-11 0 1.34211e-08
76 3 0.001 0.00896974 -0.00486906 -0.00604338 -1.74602e-11 -6.22843e-10 5.20444e-11 0 1.35284e-08
77 3 0.001 0.00896939 -0.00487913 -0.00541224 -2.19969e-12 -6.18458e-10 5.30807e-11 0 1.35425e-08
78 3 0.001 0.0089697 -0.00486924 -0.00478109 -5.12177e-12 -6.14293e-10 5.24916e-11 0 1.35297e-08
79 3 0.001 0.00897069 -0.00483943 -0.00415058 -1.74336e-11 -6.05157e-10 5.15217e-11 0 1.34901e-08
80 3 0.001 0.00897234 -0.00478986 -0.0035213 -2.4596e-12 -6.07366e-10 5.24423e-11 0 1.34247e-08
81 3 0.001 0.00897464 -0.00472077 -0.00289387 -4.00804e-13 -5.97323e-10 5.07946e-11 0 1.33347e-08
82 3 0.001 0.00897759 -0.00463249 -0.00226884 -3.04454e-11 -5.93732e-10 4.99703e-11 0 1.32219e-08
83 3 0.001 0.00898117 -0.00452547 -0.00164674 1.93526e-11 -5.91887e-10 4.97131e-11 0 1.30884e-08
84 3 0.001 0.00898536 -0.0044002 -0.00102804 -2.78429e-11 -5.83361e-10 4.75116e-11 0 1.29367e-08
85 3 0.001 0.00899014 -0.0042573 -0.000413177 4.49325e-12 -5.83183e-10 4.71213e-11 0 1.27698e-08
86 3 0.001 0.00899549 -0.00409742 0.000197507 -1.43726e-11 -5.78287e-10 4.53537e-11 0 1.25905e-08
87 3 0.001 0.00900138 -0.0039213 0.000803717 -2.5101e-12 -5.73638e-10 4.37683e-11 0 1.24022e-08
88 3 0.001 0.0090078 -0.00372974 0.00140524 -1.00729e-11 -5.69274e-10 4.16987e-11 0 1.22078e-08
89 3 0.001 0.0090147 -0.00352358 0.00200192 3.47017e-12 -5.69678e-10 4.02271e-11 0 1.20107e-08
90 3 0.001 0.00902206 -0.00330373 0.00259371 -2.47052e-11 -5.61755e-10 3.70593e-11 0 1.18138e-08
91 3 0.001 0.00902985 -0.0030711 0.00318061 1.27133e-11 -5.62128e-10 3.55439e-11 0 1.16201e-08
92 3 0.001 0.00903802 -0.00282668 0.00376271 -1.4123e-11 -5.57688e-10 3.30814e-11 0 1.14324e-08
93 3 0.001 0.00904652 -0.00257144 0.00434015 -9.0608e-12 -5.5561e-10 3.09786e-11 0 1.12532e-08
94 3 0.001 0.00905529 -0.00230641 0.00491318 7.10523e-12 -5.51148e-10 2.6763e-11 0 1.10851e-08
95 3 0.001 0.00906427 -0.00203261 0.00548209 -1.79523e-11 -5.52819e-10 2.62857e-11 0 1.09301e-08
96 3 0.001 0.00907335 -0.00175109 0.00604723 3.97646e-12 -5.46106e-10 2.04831e-11 0 1.07903e-08
97 3 0.001 0.00908242 -0.0014629 0.00660901 -6.0049e-12 -5.44959e-10 1.83625e-11 0 1.06675e-08
98 3 0.001 0.00909134 -0.00116911 0.00716789 -7.92973e-12 -5.47427e-10 1.76744e-11 0 1.05633e-08
99 3 0.001 0.00909994 -0.000870766 0.00772438 8.02482e-12 -5.35553e-10 9.00624e-12 0 1.04794e-08
100 3 0.001 0.00910799 -0.000568953 0.008279 -2.25846e-11 -5.44501e-10 1.1662e-11 0 1.04174e-08
101 3 0.001 0.00911526 -0.000264745 0.00883233 1.85164e-11 -5.35779e-10 3.53461e-12 0 1.03789e-08
102 3 0.001 0.00912148 4.07575e-05 0.00938496 -1.45718e-11 -5.30243e-10 -1.62883e-12 0 1.0365e-08
103 3 0.001 0.00912638 0.000346507 0.00993747 1.99981e-13 -5.3943e-10 7.8717e-13 0 1.03767e-08
104 3 0.001 0.00912948 0.000651474 0.0104904 2.80147e-12 -5.27508e-10 -8.96145e-12 0 1.04163e-08
105 3 0.001 0.00913028 0.000954578 0.0110444 -6.03292e-13 -5.26633e-10 -1.21337e-11 0 1.04858e-08
106 3 0.001 0.00912825 0.00125474 0.0116 1.34818e-12 -5.25759e-10 -1.52051e-11 0 1.05864e-08
107 3 0.001 0.00912281 0.00155088 0.0121577 -3.37855e-12 -5.23776e-10 -2.02877e-11 0 1.0719e-08
108 3 0.001 0.00911333 0.00184192 0.0127179 1.68417e-11 -5.19707e-10 -2.4757e-11 0 1.08839e-08
109 3 0.001 0.00909914 0.00212678 0.0132813 -4.82182e-12 -5.14006e-10 -3.14304e-11 0 1.10797e-08
110 3 0.001 0.00907953 0.00240437 0.0138481 8.16199e-12 -5.09723e-10 -3.5976e-11 0 1.13038e-08
111 3 0.001 0.00905378 0.00267362 0.0144186 1.82953e-11 -5.13575e-10 -3.61782e-11 0 1.15516e-08
112 3 0.001 0.00902115 0.00293343 0.0149931 5.1728e-12 -4.99416e-10 -4.72929e-11 0 1.18168e-08
113 3 0.001 0.00898093 0.00318275 0.0155717 1.01183e-11 -4.95653e-10 -5.18429e-11 0 1.20956e-08
114 3 0.001 0.00893242 0.0034205 0.0161546 3.0127e-11 -4.98873e-10 -5.08892e-11 0 1.23861e-08
115 3 0.001 0.008875 0.00364566 0.0167416 1.45943e-11 -4.81255e-10 -6.25108e-11 0 1.26852e-08
116 3 0.001 0.00880805 0.00385719 0.0173326 1.74732e-11 -4.8036e-10 -6.52243e-11 0 1.29882e-08
117 3 0.001 0.00873103 0.00405412 0.0179273 3.34152e-11 -4.72118e-10 -6.84996e-11 0 1.32901e-08
118 3 0.001 0.00864346 0.0042355 0.0185256 2.77065e-11 -4.60221e-10 -7.57002e-11 0 1.35855e-08
119 3 0.001 0.00854492 0.00440045 0.0191268 3.09205e-11 -4.60757e-10 -7.66828e-11 0 1.38692e-08
121 3 0.001 0.00831353 0.00467776 0.0203362 3.47252e-11 -4.2986e-10 -8.74144e-11 0 1.43797e-08
120 3 0.001 0.00843504 0.00454812 0.0197306 3.57936e-11 -4.41877e-10 -8.41118e-11 0 1.41357e-08
122 3 0.001 0.0081802 0.00478869 0.0209431 4.70913e-11 -4.30073e-10 -8.7243e-11 0 1.45964e-08
123 3 0.001 0.00803489 0.00488031 0.0215504 4.22927e-11 -4.08222e-10 -9.27841e-11 0 1.47812e-08
124 3 0.001 0.00787755 0.00495212 0.0221573 3.98128e-11 -3.96655e-10 -9.74915e-11 0 1.49301e-08
125 3 0.001 0.00770819 0.00500374 0.0227631 5.30023e-11 -3.85549e-10 -9.55223e-11 0 1.50398e-08
126 3 0.001 0.00752691 0.00503486 0.0233668 4.65733e-11 -3.70143e-10 -9.967e-11 0 1.51071e-08
127 3 0.001 0.00733388 0.00504533 0.0239676 5.73165e-11 -3.56517e-10 -9.70304e-11 0 1.51344e-08
128 3 0.001 0.00712933 0.00503508 0.0245645 4.5486e-11 -3.36494e-10 -1.01243e-10 0 1.51257e-08
129 3 0.001 0.00691356 0.00500415 0.0251568 5.46663e-11 -3.2743e-10 -9.84804e-11 0 1.50766e-08
130 3 0.001 0.00668694 0.00495268 0.0257435 5.95734e-11 -3.08265e-10 -9.63547e-11 0 1.49845e-08
131 3 0.001 0.00644988 0.00488093 0.026324 4.92335e-11 -2.94235e-10 -9.86944e-11 0 1.4852e-08
132 3 0.001 0.00620286 0.00478928 0.0268975 5.1753e-11 -2.77127e-10 -9.55444e-11 0 1.46822e-08
133 3 0.001 0.00594636 0.0046782 0.0274634 5.96027e-11 -2.63782e-10 -8.88644e-11 0 1.44788e-08
134 3 0.001 0.00568094 0.00454827 0.0280211 5.31399e-11 -2.54384e-10 -9.02738e-11 0 1.42461e-08
136 3 0.001 0.00512557 0.0042346 0.0291102 5.36166e-11 -2.19582e-10 -8.12628e-11 0 1.37125e-08
137 3 0.001 0.00483678 0.00405242 0.0296411 5.57552e-11 -2.10691e-10 -7.7031e-11 0 1.34222e-08
135 3 0.001 0.00540715 0.00440016 0.0285701 4.48804e-11 -2.25751e-10 -8.67779e-11 0 1.3989e-08
138 3 0.001 0.00454137 0.0038545 0.0301627 3.60252e-11 -1.80822e-10 -7.70155e-11 0 1.31232e-08
139 3 0.001 0.00423991 0.00364178 0.0306749 5.12796e-11 -1.79295e-10 -6.71792e-11 0 1.28211e-08
140 3 0.001 0.00393297 0.00341522 0.0311779 3.87543e-11 -1.60971e-10 -6.63474e-11 0 1.25209e-08
142 3 0.001 0.00330487 0.00292469 0.0321571 3.56948e-11 -1.32642e-10 -5.59987e-11 0 1.19453e-08
143 3 0.001 0.00298473 0.00266281 0.0326342 3.24158e-11 -1.19025e-10 -4.9717e-11 0 1.16784e-08
141 3 0.001 0.00362112 0.00317585 0.0316719 4.10116e-11 -1.45825e-10 -5.82359e-11 0 1.22275e-08
146 3 0.001 0.00200575 0.00182355 0.0340214 3.20432e-11 -8.25535e-11 -2.95079e-11 0 1.10041e-08
144 3 0.001 0.0026612 0.00239128 0.0331034 3.56821e-11 -1.07302e-10 -4.17483e-11 0 1.14306e-08
145 3 0.001 0.00233473 0.00211116 0.0335656 1.47617e-11 -8.73509e-11 -4.44578e-11 0 1.12049e-08
150 3 0.001 0.000672612 0.000619665 0.035797 1.18173e-11 -2.79817e-11 -9.24356e-12 0 7.13581e-09
148 3 0.001 0.00134188 0.00123015 0.034917 9.43473e-12 -4.74376e-11 -2.41168e-11 0 1.06862e-08
149 3 0.001 0.00100775 0.000926516 0.0353584 1.40259e-11 -4.1227e-11 -1.68623e-11 0 1.03775e-08
147 3 0.001 0.00167467 0.00152952 0.0344716 2.06298e-11 -6.67117e-11 -2.7987e-11 0 1.08306e-08
151 3 0.001 0.000336468 0.000310365 0.036234 -1.79746e-12 -1.01355e-11 -8.13785e-12 0 4.12785e-09
2 2 0.001 0 0 0.03667 -0.00435171 -0.000144419 0.0128415 0 2.05878e-09
