ITEM: TIMESTEP
300000
ITEM: NUMBER OF ATOMS
151
ITEM: BOX BOUNDS ff ff ff
-1.0000000000000000e-02 1.0000000000000000e-02
-6.0000000000000001e-03 6.0000000000000001e-03
-5.2499999999999998e-02 5.2499999999999998e-02
ITEM: ATOMS id type radius x y z fx fy fz c_bendingE c_stretchingE
1 1 0.001 0 0 -0.0475 -0.000626465 0 -0.0059905 0 1.43574e-10
3 3 0.001 7.97165e-05 0 -0.046872 2.23575e-05 0 -2.22335e-05 0 2.90124e-10
4 3 0.001 0.00015938 0 -0.046244 1.52786e-06 0 -5.19749e-05 0 1.57641e-09
5 3 0.001 0.000238904 0 -0.0456167 -2.49641e-05 0 -9.04107e-05 0 3.00726e-09
6 3 0.001 0.000318332 0 -0.0449894 -1.41307e-05 0 1.99286e-05 0 3.14564e-09
7 3 0.001 0.000397642 0 -0.0443621 -1.04627e-06 0 -1.02545e-05 0 3.14174e-09
8 3 0.001 0.000476806 0 -0.0437347 2.40445e-05 0 2.70005e-05 0 3.13188e-09
9 3 0.001 0.000555801 0 -0.0431073 2.71973e-05 0 8.30935e-05 0 3.07358e-09
10 3 0.001 0.000634596 0 -0.0424799 -8.51984e-06 0 -3.77409e-05 0 3.04975e-09
11 3 0.001 0.000713159 0 -0.0418525 -1.22009e-05 0 4.79891e-05 0 3.04602e-09
12 3 0.001 0.000791458 0 -0.041225 -7.66372e-06 0 -1.84718e-05 0 3.03263e-09
13 3 0.001 0.000869466 0 -0.0405975 1.9685e-05 0 4.89249e-05 0 3.01691e-09
14 3 0.001 0.000947159 0 -0.03997 3.0687e-05 0 4.86718e-05 0 2.96582e-09
15 3 0.001 0.00102451 0 -0.0393424 -1.0014e-05 0 -0.000127303 0 3.00365e-09
16 3 0.001 0.00110148 0 -0.0387148 -1.68063e-05 0 -4.87603e-05 0 3.09271e-09
17 3 0.001 0.00117804 0 -0.0380871 -2.48457e-05 0 -9.40295e-05 0 3.16752e-09
18 3 0.001 0.00125417 0 -0.0374594 2.47039e-06 0 -4.09033e-05 0 3.23769e-09
19 3 0.001 0.00132983 0 -0.0368316 4.21861e-05 0 0.000149879 0 3.17984e-09
20 3 0.001 0.00140501 0 -0.0362038 1.97608e-05 0 2.77133e-05 0 3.08612e-09
21 3 0.001 0.00147967 0 -0.0355759 6.63541e-06 0 7.29956e-05 0 3.03453e-09
22 3 0.001 0.00155378 0 -0.0349479 -2.47631e-05 0 -8.1806e-05 0 3.04013e-09
23 3 0.001 0.0016273 0 -0.0343199 -2.18092e-05 0 -0.000190498 0 3.18056e-09
24 3 0.001 0.00170022 0 -0.0336918 1.5002e-05 0 -2.8897e-05 0 3.29294e-09
25 3 0.001 0.00177251 0 -0.0330637 1.2657e-05 0 -0.000123625 0 3.37113e-09
26 3 0.001 0.00184413 0 -0.0324355 1.45426e-05 0 6.49987e-05 0 3.40022e-09
27 3 0.001 0.00191506 0 -0.0318072 1.21132e-05 0 0.000192843 0 3.26519e-09
28 3 0.001 0.00198528 0 -0.0311788 -2.11342e-05 0 -0.000111873 0 3.22375e-09
29 3 0.001 0.00205474 0 -0.0305503 2.3244e-05 0 0.000108675 0 3.22541e-09
30 3 0.001 0.00212342 0 -0.0299218 2.86289e-05 0 2.84984e-05 0 3.15252e-09
31 3 0.001 0.00219131 0 -0.0292931 1.44936e-05 0 -7.50744e-05 0 3.17408e-09
32 3 0.001 0.00225837 0 -0.0286644 6.10734e-07 0 2.43347e-05 0 3.19922e-09
33 3 0.001 0.00232456 0 -0.0280355 -1.04923e-05 0 1.24849e-05 0 3.18116e-09
34 3 0.001 0.00238986 0 -0.0274066 1.17191e-06 0 -1.08265e-05 0 3.18101e-09
35 3 0.001 0.00245425 0 -0.0267776 2.37984e-05 0 1.81334e-05 0 3.17618e-09
36 3 0.001 0.0025177 0 -0.0261484 3.33456e-05 0 6.80672e-05 0 3.12983e-09
37 3 0.001 0.00258018 0 -0.0255192 -8.37793e-06 0 -0.000201024 0 3.19709e-09
38 3 0.001 0.00264166 0 -0.0248899 -8.67743e-06 0 -1.15416e-05 0 3.30689e-09
39 3 0.001 0.00270211 0 -0.0242605 -1.39943e-06 0 4.49836e-05 0 3.29028e-09
40 3 0.001 0.00276151 0 -0.023631 2.3868e-05 0 0.00010374 0 3.21291e-09
41 3 0.001 0.00281984 0 -0.0230014 3.2458e-05 0 5.62971e-05 0 3.12882e-09
42 3 0.001 0.00287706 0 -0.0223717 2.20831e-05 0 -1.9204e-05 0 3.10774e-09
43 3 0.001 0.00293316 0 -0.0217419 -3.90157e-06 0 -5.16395e-05 0 3.14303e-09
44 3 0.001 0.00298811 0 -0.0211119 -2.50879e-05 0 -0.000177512 0 3.26248e-09
45 3 0.001 0.00304186 0 -0.020482 1.0999e-05 0 6.66116e-05 0 3.32032e-09
46 3 0.001 0.00309441 0 -0.0198518 1.81614e-05 0 -4.88664e-05 0 3.30997e-09
47 3 0.001 0.00314573 0 -0.0192216 2.56602e-05 0 -6.52051e-05 0 3.36803e-09
48 3 0.001 0.0031958 0 -0.0185914 1.71379e-05 0 6.51777e-05 0 3.36651e-09
49 3 0.001 0.00324459 0 -0.017961 -3.06152e-06 0 1.53985e-05 0 3.32391e-09
50 3 0.001 0.00329208 0 -0.0173305 7.57016e-06 0 0.000134188 0 3.24669e-09
51 3 0.001 0.00333823 0 -0.0166998 2.19184e-05 0 9.93499e-05 0 3.12625e-09
52 3 0.001 0.00338304 0 -0.0160691 3.09849e-05 0 2.21481e-05 0 3.06315e-09
53 3 0.001 0.00342648 0 -0.0154383 2.46963e-05 0 2.49398e-05 0 3.0379e-09
54 3 0.001 0.00346853 0 -0.0148073 -2.50302e-06 0 -5.92368e-05 0 3.0546e-09
55 3 0.001 0.00350916 0 -0.0141763 -6.62024e-06 0 2.99972e-06 0 3.08328e-09
56 3 0.001 0.00354834 0 -0.0135452 4.17673e-06 0 -4.30557e-06 0 3.08421e-09
57 3 0.001 0.00358607 0 -0.012914 2.88322e-05 0 5.21172e-05 0 3.05945e-09
58 3 0.001 0.00362232 0 -0.0122827 3.33754e-05 0 2.54215e-05 0 3.01907e-09
59 3 0.001 0.00365707 0 -0.0116513 1.33227e-05 0 -1.69103e-05 0 3.01376e-09
60 3 0.001 0.0036903 0 -0.0110199 -1.11511e-05 0 -7.03268e-05 0 3.0576e-09
61 3 0.001 0.00372199 0 -0.0103883 -1.21471e-05 0 -0.000147493 0 3.16895e-09
62 3 0.001 0.00375212 0 -0.00975676 1.64073e-05 0 -4.63913e-05 0 3.26838e-09
63 3 0.001 0.00378068 0 -0.00912511 3.25896e-05 0 -1.2005e-05 0 3.29772e-09
64 3 0.001 0.00380765 0 -0.0084934 2.77533e-05 0 1.03526e-05 0 3.29743e-09
65 3 0.001 0.00383302 0 -0.00786162 7.84245e-06 0 9.43801e-05 0 3.24273e-09
66 3 0.001 0.00385676 0 -0.00722975 -1.06509e-05 0 4.32403e-05 0 3.17208e-09
67 3 0.001 0.00387885 0 -0.00659783 5.08467e-06 0 -8.78127e-06 0 3.1547e-09
68 3 0.001 0.00389929 0 -0.00596584 3.02502e-05 0 7.53896e-05 0 3.12049e-09
69 3 0.001 0.00391807 0 -0.0053338 3.66482e-05 0 -6.01561e-06 0 3.08443e-09
70 3 0.001 0.00393516 0 -0.0047017 1.47599e-05 0 -3.17565e-05 0 3.10297e-09
71 3 0.001 0.00395057 0 -0.00406957 -9.63784e-06 0 -2.05666e-05 0 3.12957e-09
72 3 0.001 0.00396426 0 -0.00343741 -1.05481e-05 0 -0.000165624 0 3.22575e-09
73 3 0.001 0.00397623 0 -0.00280523 1.72117e-05 0 -4.07008e-05 0 3.3325e-09
74 3 0.001 0.00398648 0 -0.00217303 3.8637e-05 0 3.403e-05 0 3.3356e-09
75 3 0.001 0.00399499 0 -0.0015408 3.09729e-05 0 -1.68513e-05 0 3.32619e-09
76 3 0.001 0.00400175 0 -0.000908555 1.3291e-06 0 0.000155037 0 3.25464e-09
77 3 0.001 0.00400676 0 -0.000276264 -1.27432e-05 0 2.29396e-06 0 3.17329e-09
78 3 0.001 0.00401 0 0.000356038 5.25455e-06 0 -0.000153528 0 3.25167e-09
79 3 0.001 0.00401147 0 0.000988321 3.21193e-05 0 1.43691e-05 0 3.32362e-09
80 3 0.001 0.00401117 0 0.00162061 3.68091e-05 0 -3.49628e-05 0 3.33449e-09
81 3 0.001 0.00400909 0 0.00225289 1.40543e-05 0 4.27394e-05 0 3.33057e-09
82 3 0.001 0.00400523 0 0.00288516 -1.04057e-05 0 0.000166238 0 3.22254e-09
84 3 0.001 0.00399212 0 0.00414973 2.16442e-05 0 3.0765e-05 0 3.1004e-09
83 3 0.001 0.00399957 0 0.00351745 -7.84577e-06 0 2.05518e-05 0 3.12634e-09
85 3 0.001 0.00398288 0 0.00478199 3.59227e-05 0 5.21068e-06 0 3.08261e-09
86 3 0.001 0.00397185 0 0.00541422 2.85465e-05 0 -7.45481e-05 0 3.11834e-09
87 3 0.001 0.00395903 0 0.0060464 -4.49893e-06 0 8.53501e-06 0 3.15202e-09
89 3 0.001 0.003928 0 0.00731064 1.17508e-05 0 -9.57483e-05 0 3.24136e-09
88 3 0.001 0.00394442 0 0.00667854 -1.01044e-05 0 -4.35062e-05 0 3.1697e-09
91 3 0.001 0.00388982 0 0.00857464 3.38935e-05 0 1.58481e-05 0 3.2946e-09
90 3 0.001 0.0039098 0 0.00794267 3.54695e-05 0 -9.92717e-06 0 3.29662e-09
94 3 0.001 0.00381923 0 0.0104702 -5.31271e-06 0 6.90164e-05 0 3.0517e-09
92 3 0.001 0.00386807 0 0.00920656 3.11799e-06 0 4.8351e-05 0 3.26186e-09
93 3 0.001 0.00384454 0 0.00983842 -1.63436e-05 0 0.000146599 0 3.16166e-09
96 3 0.001 0.00376334 0 0.0117337 3.73442e-05 0 -2.37492e-05 0 3.01372e-09
95 3 0.001 0.00379216 0 0.011102 2.48347e-05 0 1.68146e-05 0 3.009e-09
98 3 0.001 0.00370048 0 0.0129968 -7.5677e-06 0 5.05059e-06 0 3.07417e-09
97 3 0.001 0.00373278 0 0.0123653 1.9296e-05 0 -4.96793e-05 0 3.05166e-09
100 3 0.001 0.00363073 0 0.0142595 1.00048e-05 0 5.73418e-05 0 3.04628e-09
99 3 0.001 0.00366646 0 0.0136282 -9.42808e-06 0 -4.15249e-06 0 3.07308e-09
101 3 0.001 0.0035933 0 0.0148907 3.55563e-05 0 -2.49096e-05 0 3.03115e-09
102 3 0.001 0.00355418 0 0.0155218 2.72498e-05 0 -2.05529e-05 0 3.05562e-09
103 3 0.001 0.0035134 0 0.0161529 6.11105e-06 0 -9.83105e-05 0 3.11653e-09
105 3 0.001 0.00342688 0 0.0174145 3.92621e-06 0 -1.81314e-05 0 3.31616e-09
104 3 0.001 0.00347096 0 0.0167837 -6.53112e-07 0 -0.000136421 0 3.23654e-09
106 3 0.001 0.00338119 0 0.0180451 3.40733e-05 0 -6.4926e-05 0 3.36088e-09
108 3 0.001 0.00328501 0 0.019306 8.66492e-06 0 5.04132e-05 0 3.30319e-09
107 3 0.001 0.00333389 0 0.0186756 2.44491e-05 0 6.53899e-05 0 3.36266e-09
110 3 0.001 0.00318258 0 0.0205664 -1.72718e-05 0 0.000174972 0 3.25762e-09
109 3 0.001 0.00323457 0 0.0199363 -6.31242e-06 0 -6.95777e-05 0 3.31305e-09
112 3 0.001 0.00307406 0 0.0218264 2.64002e-05 0 2.11575e-05 0 3.10469e-09
111 3 0.001 0.00312907 0 0.0211965 1.25745e-05 0 5.20677e-05 0 3.14034e-09
113 3 0.001 0.00301757 0 0.0224562 2.26285e-05 0 -5.46258e-05 0 3.12357e-09
115 3 0.001 0.00290029 0 0.0237154 -3.19907e-06 0 -4.44333e-05 0 3.28159e-09
114 3 0.001 0.00295965 0 0.0230859 5.93137e-06 0 -0.000104047 0 3.2055e-09
117 3 0.001 0.00277741 0 0.024974 7.71728e-06 0 0.000202635 0 3.18819e-09
116 3 0.001 0.00283954 0 0.0243447 6.52448e-06 0 1.27771e-05 0 3.29781e-09
120 3 0.001 0.00258309 0 0.0268609 -1.08443e-05 0 8.85095e-06 0 3.16421e-09
119 3 0.001 0.00264916 0 0.0262321 2.71401e-06 0 -1.70846e-05 0 3.16078e-09
118 3 0.001 0.00271394 0 0.0256031 2.55536e-05 0 -6.41596e-05 0 3.11857e-09
122 3 0.001 0.00244721 0 0.0281182 2.20855e-05 0 -2.16816e-05 0 3.1832e-09
121 3 0.001 0.00251576 0 0.0274896 3.99147e-06 0 -1.18356e-05 0 3.16502e-09
124 3 0.001 0.00230656 0 0.029375 1.06614e-05 0 -2.57854e-05 0 3.13172e-09
123 3 0.001 0.00237746 0 0.0287467 1.31413e-05 0 7.71845e-05 0 3.15677e-09
125 3 0.001 0.00223453 0 0.0300032 6.61136e-06 0 -0.00010844 0 3.20079e-09
127 3 0.001 0.00208722 0 0.0312592 3.25875e-05 0 -0.000189144 0 3.23885e-09
126 3 0.001 0.00216141 0 0.0306313 -1.90642e-05 0 0.000111586 0 3.19817e-09
129 3 0.001 0.00193582 0 0.0325147 -3.00549e-06 0 0.000122394 0 3.34193e-09
128 3 0.001 0.00201201 0 0.031887 2.92274e-05 0 -6.19704e-05 0 3.37188e-09
131 3 0.001 0.00178061 0 0.0337697 -3.086e-05 0 0.000188116 0 3.15323e-09
130 3 0.001 0.00185867 0 0.0331422 -3.13531e-06 0 2.59001e-05 0 3.26416e-09
132 3 0.001 0.00170166 0 0.0343971 -8.05515e-06 0 8.26504e-05 0 3.01446e-09
134 3 0.001 0.00154128 0 0.0356515 1.82867e-05 0 -2.43779e-05 0 3.05931e-09
133 3 0.001 0.00162187 0 0.0350244 2.18126e-05 0 -7.14864e-05 0 3.00952e-09
136 3 0.001 0.00137787 0 0.0369056 -9.39889e-06 0 3.87482e-05 0 3.20501e-09
135 3 0.001 0.00145993 0 0.0362786 2.21508e-05 0 -0.00014872 0 3.14901e-09
137 3 0.001 0.00129511 0 0.0375324 -1.33146e-05 0 9.31466e-05 0 3.13656e-09
139 3 0.001 0.00112772 0 0.038786 -4.77712e-06 0 0.000129463 0 2.97525e-09
138 3 0.001 0.00121172 0 0.0381592 -2.26826e-06 0 4.90576e-05 0 3.06391e-09
141 3 0.001 0.000958081 0 0.0400392 7.5851e-06 0 -5.08944e-05 0 2.98586e-09
140 3 0.001 0.00104316 0 0.0394126 1.01313e-05 0 -4.91711e-05 0 2.93585e-09
144 3 0.001 0.000700164 0 0.0419186 -4.54406e-07 0 3.92161e-05 0 3.02047e-09
143 3 0.001 0.000786541 0 0.0412922 8.60356e-06 0 -4.61636e-05 0 3.01663e-09
142 3 0.001 0.000872528 0 0.0406658 -4.77297e-06 0 1.74492e-05 0 3.00231e-09
146 3 0.001 0.000526407 0 0.0431713 4.7641e-06 0 -2.8032e-05 0 3.0984e-09
145 3 0.001 0.000613437 0 0.042545 1.56091e-05 0 -8.16957e-05 0 3.04254e-09
147 3 0.001 0.000439116 0 0.0437976 -3.8175e-06 0 8.16693e-06 0 3.10832e-09
148 3 0.001 0.000351605 0 0.0444238 4.85682e-06 0 -2.08002e-05 0 3.11468e-09
149 3 0.001 0.000263919 0 0.04505 -1.09152e-05 0 9.00551e-05 0 2.97964e-09
150 3 0.001 0.000176095 0 0.0456762 -5.98555e-06 0 5.20077e-05 0 1.55922e-09
151 3 0.001 8.80916e-05 0 0.0463031 -2.64382e-06 0 2.16396e-05 0 2.81261e-10
2 2 0.001 0 0 0.04693 -0.00061239 0 0.00596423 0 1.38969e-10
