ITEM: TIMESTEP
7900000
ITEM: NUMBER OF ATOMS
151
ITEM: BOX BOUNDS ff ff ff
-1.0000000000000000e-02 1.0000000000000000e-02
-6.0000000000000001e-03 6.0000000000000001e-03
-5.2499999999999998e-02 5.2499999999999998e-02
ITEM: ATOMS id type radius x y z fx fy fz c_bendingE c_stretchingE
1 1 0.001 0 0 -0.0475 -0.00286467 0 -0.0149099 0 1.9983e-09
3 3 0.001 0.00050938 0 -0.0471256 9.33786e-12 0 -1.18314e-11 0 4.03483e-09
4 3 0.001 0.00101633 0 -0.0467479 -1.43559e-11 0 1.55069e-11 0 7.07968e-09
5 3 0.001 0.00152031 0 -0.0463674 1.66465e-11 0 -1.99793e-11 0 1.03716e-08
6 3 0.001 0.00202056 0 -0.045982 -1.19753e-11 0 2.01201e-11 0 1.0777e-08
7 3 0.001 0.00251585 0 -0.0455903 1.94275e-11 0 -3.06402e-11 0 1.10459e-08
8 3 0.001 0.00300484 0 -0.0451909 -1.02929e-11 0 1.15688e-11 0 1.13706e-08
9 3 0.001 0.00348618 0 -0.0447823 -8.20354e-13 0 2.26565e-12 0 1.17487e-08
10 3 0.001 0.00395844 0 -0.0443633 9.52886e-12 0 -1.14872e-11 0 1.21764e-08
11 3 0.001 0.00442015 0 -0.0439327 5.12667e-12 0 -1.15345e-11 0 1.26493e-08
12 3 0.001 0.0048698 0 -0.0434896 -1.35485e-12 0 7.88198e-12 0 1.31617e-08
13 3 0.001 0.00530582 0 -0.0430332 -5.91493e-12 0 1.97475e-12 0 1.37067e-08
14 3 0.001 0.00572659 0 -0.0425627 1.69148e-11 0 -2.11043e-11 0 1.42761e-08
15 3 0.001 0.00613049 0 -0.0420778 -2.19954e-12 0 3.25796e-12 0 1.48604e-08
16 3 0.001 0.00651588 0 -0.041578 3.75673e-12 0 -2.47956e-12 0 1.54492e-08
17 3 0.001 0.0068811 0 -0.0410634 -1.06855e-11 0 -1.43773e-12 0 1.60307e-08
18 3 0.001 0.00722456 0 -0.040534 1.7988e-11 0 -1.00897e-11 0 1.65929e-08
19 3 0.001 0.00754469 0 -0.0399903 -3.89501e-12 0 2.68839e-12 0 1.71229e-08
20 3 0.001 0.00784 0 -0.0394327 -1.09569e-11 0 -1.98962e-12 0 1.7608e-08
21 3 0.001 0.00810911 0 -0.0388621 1.63547e-11 0 -7.39921e-12 0 1.80362e-08
22 3 0.001 0.00835075 0 -0.0382793 2.6304e-12 0 -6.73446e-13 0 1.83962e-08
23 3 0.001 0.00856382 0 -0.0376855 -2.2e-11 0 3.16471e-12 0 1.86782e-08
24 3 0.001 0.00874736 0 -0.037082 2.06952e-11 0 -1.29977e-11 0 1.88745e-08
25 3 0.001 0.00890064 0 -0.03647 -9.2097e-12 0 5.57041e-12 0 1.89794e-08
26 3 0.001 0.00902312 0 -0.0358512 -3.33563e-12 0 -1.86312e-12 0 1.89854e-08
27 3 0.001 0.00911447 0 -0.035227 1.78974e-12 0 -1.31305e-12 0 1.88657e-08
28 3 0.001 0.00917458 0 -0.0345991 -6.66092e-12 0 -6.11111e-12 0 1.8647e-08
29 3 0.001 0.00920354 0 -0.0339689 -7.55971e-12 0 -2.67931e-12 0 1.84232e-08
30 3 0.001 0.00920154 0 -0.033338 1.57173e-12 0 3.70297e-13 0 1.82547e-08
31 3 0.001 0.00916887 0 -0.032708 8.74068e-13 0 -2.97663e-12 0 1.81377e-08
32 3 0.001 0.00910589 0 -0.0320802 -1.68389e-11 0 -4.51074e-12 0 1.80097e-08
33 3 0.001 0.00901311 0 -0.0314562 1.88733e-12 0 -8.26662e-13 0 1.77896e-08
34 3 0.001 0.00889114 0 -0.0308372 -1.01773e-11 0 -6.39347e-12 0 1.74694e-08
35 3 0.001 0.00874081 0 -0.0302244 1.17407e-12 0 -2.64096e-12 0 1.70849e-08
37 3 0.001 0.00835915 0 -0.0290218 -1.73041e-11 0 -1.33413e-11 0 1.61687e-08
36 3 0.001 0.0085631 0 -0.0296189 -6.65962e-12 0 -1.74556e-12 0 1.66478e-08
39 3 0.001 0.00787774 0 -0.0278554 -3.81123e-11 0 -3.02408e-11 0 1.51294e-08
40 3 0.001 0.00760311 0 -0.0272872 2.50533e-11 0 8.92312e-12 0 1.45916e-08
38 3 0.001 0.00813024 0 -0.0284338 2.93071e-11 0 1.42374e-11 0 1.56588e-08
43 3 0.001 0.00666209 0 -0.0256447 6.09974e-11 0 3.02353e-11 0 1.30276e-08
42 3 0.001 0.00699369 0 -0.0261819 -3.16554e-11 0 -3.05733e-11 0 1.35315e-08
41 3 0.001 0.0073079 0 -0.0267293 -2.23388e-13 0 1.48436e-13 0 1.40557e-08
45 3 0.001 0.00595323 0 -0.0246 3.59318e-11 0 1.32036e-11 0 1.21103e-08
44 3 0.001 0.00631472 0 -0.0251176 -4.63017e-11 0 -3.56001e-11 0 1.25517e-08
46 3 0.001 0.00557922 0 -0.0240914 -3.06456e-12 0 -1.47986e-11 0 1.17089e-08
48 3 0.001 0.00480004 0 -0.0230977 3.23417e-11 0 1.07882e-11 0 1.1043e-08
47 3 0.001 0.00519429 0 -0.0235909 1.86065e-12 0 -9.12828e-12 0 1.13519e-08
49 3 0.001 0.00439801 0 -0.0226108 -2.19386e-12 0 -1.7585e-11 0 1.07847e-08
51 3 0.001 0.00357671 0 -0.0216514 1.63203e-11 0 1.72235e-13 0 1.04281e-08
52 3 0.001 0.00316044 0 -0.0211766 1.75713e-11 0 -1.11912e-11 0 1.03323e-08
50 3 0.001 0.00398973 0 -0.0221291 1.59205e-11 0 -3.73367e-12 0 1.05793e-08
55 3 0.001 0.00190682 0 -0.0197562 2.57937e-11 0 1.01446e-12 0 1.03805e-08
54 3 0.001 0.00232402 0 -0.0202302 6.70353e-12 0 -1.25063e-11 0 1.03084e-08
53 3 0.001 0.00274239 0 -0.0207032 2.72523e-11 0 3.62594e-12 0 1.02923e-08
57 3 0.001 0.00108175 0 -0.0188 9.89926e-12 0 -9.75024e-12 0 1.06906e-08
56 3 0.001 0.00149223 0 -0.0192799 3.40269e-11 0 4.96732e-13 0 1.05082e-08
58 3 0.001 0.000676865 0 -0.0183155 3.50269e-11 0 1.82096e-12 0 1.09265e-08
60 3 0.001 -0.000109986 0 -0.0173278 3.44107e-11 0 4.95753e-12 0 1.15511e-08
59 3 0.001 0.000279107 0 -0.0178251 2.39795e-11 0 -1.03116e-11 0 1.12142e-08
61 3 0.001 -0.000488842 0 -0.0168227 2.62213e-11 0 3.62431e-12 0 1.1934e-08
63 3 0.001 -0.00120946 0 -0.0157861 5.91399e-11 0 1.10656e-11 0 1.28209e-08
64 3 0.001 -0.00154798 0 -0.0152533 1.07348e-11 0 -1.23584e-11 0 1.33138e-08
62 3 0.001 -0.00085587 0 -0.0163091 1.77255e-11 0 -1.64209e-11 0 1.2359e-08
65 3 0.001 -0.0018698 0 -0.0147102 4.83183e-11 0 1.03657e-11 0 1.38303e-08
66 3 0.001 -0.0021733 0 -0.0141568 3.09776e-11 0 -6.70601e-12 0 1.43624e-08
69 3 0.001 -0.00295815 0 -0.0124349 -3.46998e-12 0 -1.64223e-11 0 1.59545e-08
68 3 0.001 -0.00271901 0 -0.0130189 7.74554e-11 0 1.23838e-11 0 1.54349e-08
67 3 0.001 -0.00245689 0 -0.013593 1.61738e-11 0 -6.71635e-12 0 1.49006e-08
71 3 0.001 -0.00336194 0 -0.0112396 1.57028e-11 0 -3.49817e-12 0 1.69045e-08
70 3 0.001 -0.0031729 0 -0.0118416 6.91742e-11 0 8.60259e-12 0 1.64481e-08
72 3 0.001 -0.00352407 0 -0.0106298 5.71832e-11 0 2.04259e-12 0 1.73127e-08
73 3 0.001 -0.00365824 0 -0.0100133 2.39271e-11 0 -3.80547e-12 0 1.76625e-08
74 3 0.001 -0.00376355 0 -0.00939123 5.41681e-11 0 2.49266e-12 0 1.79449e-08
75 3 0.001 -0.0038393 0 -0.0087649 2.95779e-11 0 -4.5488e-12 0 1.81523e-08
76 3 0.001 -0.00388496 0 -0.00813567 4.26048e-11 0 2.62016e-12 0 1.82791e-08
77 3 0.001 -0.00390022 0 -0.00750498 4.19725e-11 0 -1.57798e-12 0 1.83218e-08
78 3 0.001 -0.00388496 0 -0.00687429 4.70492e-11 0 -4.10191e-12 0 1.82791e-08
79 3 0.001 -0.00383931 0 -0.00624506 2.62339e-11 0 4.49058e-12 0 1.81524e-08
80 3 0.001 -0.00376356 0 -0.00561874 3.96777e-11 0 8.2488e-13 0 1.7945e-08
81 3 0.001 -0.00365825 0 -0.00499668 5.02875e-11 0 -2.54279e-12 0 1.76626e-08
82 3 0.001 -0.00352409 0 -0.00438018 3.99324e-11 0 -6.41556e-12 0 1.73128e-08
83 3 0.001 -0.00336196 0 -0.00377041 1.73684e-11 0 5.58252e-12 0 1.69046e-08
84 3 0.001 -0.00317293 0 -0.0031684 4.81522e-11 0 1.2833e-12 0 1.64483e-08
85 3 0.001 -0.00295818 0 -0.00257504 5.36314e-11 0 -8.51399e-12 0 1.59546e-08
86 3 0.001 -0.00271904 0 -0.00199105 1.67579e-11 0 6.37636e-12 0 1.54351e-08
87 3 0.001 -0.00245693 0 -0.00141696 3.81403e-11 0 -2.37458e-13 0 1.49008e-08
88 3 0.001 -0.00217334 0 -0.000853126 3.18901e-11 0 3.6969e-13 0 1.43625e-08
89 3 0.001 -0.00186984 0 -0.000299708 4.14239e-11 0 -6.01035e-12 0 1.38305e-08
90 3 0.001 -0.00154802 0 0.000243308 2.13803e-11 0 1.44495e-11 0 1.33139e-08
91 3 0.001 -0.0012095 0 0.000776123 4.78123e-11 0 -1.12758e-11 0 1.28211e-08
92 3 0.001 -0.000855915 0 0.00129911 1.69336e-11 0 2.58573e-12 0 1.23592e-08
93 3 0.001 -0.000488888 0 0.00181279 3.16272e-11 0 9.26276e-13 0 1.19342e-08
94 3 0.001 -0.000110032 0 0.00231786 3.10082e-11 0 4.25561e-12 0 1.15512e-08
95 3 0.001 0.000279059 0 0.00281512 2.35144e-11 0 -4.23586e-13 0 1.12143e-08
96 3 0.001 0.000676817 0 0.00330551 2.61397e-11 0 6.67697e-12 0 1.09267e-08
97 3 0.001 0.0010817 0 0.00379007 3.66821e-11 0 -1.16485e-11 0 1.06908e-08
98 3 0.001 0.00149218 0 0.00426991 3.64298e-12 0 1.81167e-11 0 1.05083e-08
99 3 0.001 0.00190677 0 0.00474624 3.695e-11 0 -1.07396e-11 0 1.03806e-08
100 3 0.001 0.00232398 0 0.00522028 8.55744e-12 0 1.29588e-11 0 1.03085e-08
101 3 0.001 0.00274234 0 0.0056933 3.49774e-11 0 -9.96575e-12 0 1.02924e-08
102 3 0.001 0.00316039 0 0.0061666 -9.12557e-13 0 1.17595e-11 0 1.03324e-08
103 3 0.001 0.00357666 0 0.00664146 2.84356e-11 0 -3.7041e-12 0 1.04283e-08
104 3 0.001 0.00398968 0 0.00711913 9.0632e-12 0 1.11405e-11 0 1.05794e-08
105 3 0.001 0.00439796 0 0.00760084 1.69981e-11 0 4.4953e-13 0 1.07849e-08
106 3 0.001 0.0048 0 0.00808776 1.16837e-11 0 5.04222e-12 0 1.10431e-08
107 3 0.001 0.00519425 0 0.00858095 -7.63787e-12 0 9.69842e-12 0 1.13521e-08
108 3 0.001 0.00557918 0 0.00908143 2.98647e-11 0 -1.16007e-11 0 1.17091e-08
109 3 0.001 0.00595319 0 0.00959008 -7.71805e-12 0 1.73924e-11 0 1.21105e-08
110 3 0.001 0.00631469 0 0.0101076 -6.92308e-12 0 1.4109e-11 0 1.25519e-08
111 3 0.001 0.00666206 0 0.0106348 3.72564e-11 0 -1.8991e-11 0 1.30278e-08
112 3 0.001 0.00699366 0 0.0111719 -3.21331e-11 0 2.68562e-11 0 1.35317e-08
113 3 0.001 0.00730788 0 0.0117193 8.68921e-12 0 -1.77159e-12 0 1.40559e-08
114 3 0.001 0.00760309 0 0.0122772 1.27043e-11 0 -3.9193e-12 0 1.45918e-08
115 3 0.001 0.00787771 0 0.0128454 -2.06287e-11 0 1.08349e-11 0 1.51297e-08
116 3 0.001 0.00813022 0 0.0134238 2.62981e-12 0 7.81384e-12 0 1.56591e-08
117 3 0.001 0.00835914 0 0.0140118 -9.42805e-12 0 3.07308e-12 0 1.6169e-08
118 3 0.001 0.00856309 0 0.014609 7.56656e-12 0 7.32438e-13 0 1.66481e-08
119 3 0.001 0.0087408 0 0.0152144 -2.07107e-11 0 8.48089e-12 0 1.70853e-08
120 3 0.001 0.00889113 0 0.0158272 2.72606e-12 0 -6.16131e-12 0 1.74698e-08
121 3 0.001 0.0090131 0 0.0164462 3.96651e-12 0 1.08672e-11 0 1.779e-08
122 3 0.001 0.00910589 0 0.0170702 -2.96484e-11 0 -5.27287e-13 0 1.80101e-08
123 3 0.001 0.00916887 0 0.017698 2.24911e-11 0 -2.41117e-13 0 1.81381e-08
124 3 0.001 0.00920155 0 0.018328 -3.05181e-11 0 3.99189e-12 0 1.82551e-08
125 3 0.001 0.00920355 0 0.0189589 1.27735e-11 0 1.85534e-12 0 1.84236e-08
126 3 0.001 0.00917459 0 0.0195891 -8.28948e-12 0 1.96321e-12 0 1.86475e-08
127 3 0.001 0.00911448 0 0.0202171 3.64693e-12 0 1.72607e-12 0 1.88662e-08
128 3 0.001 0.00902313 0 0.0208412 -1.0877e-11 0 -9.80334e-13 0 1.8986e-08
129 3 0.001 0.00890066 0 0.0214601 2.76362e-12 0 1.84072e-14 0 1.898e-08
130 3 0.001 0.00874738 0 0.022072 8.47236e-12 0 6.21014e-12 0 1.88751e-08
132 3 0.001 0.00835077 0 0.0232693 5.73392e-12 0 7.90624e-12 0 1.83968e-08
131 3 0.001 0.00856384 0 0.0226755 -1.66122e-11 0 -3.9956e-12 0 1.86789e-08
133 3 0.001 0.00810913 0 0.0238521 1.36253e-11 0 3.81628e-12 0 1.80369e-08
134 3 0.001 0.00784003 0 0.0244227 -1.89497e-11 0 -1.26068e-11 0 1.76087e-08
135 3 0.001 0.00754472 0 0.0249803 3.3889e-12 0 7.67586e-12 0 1.71235e-08
137 3 0.001 0.00688113 0 0.0260534 -2.97051e-11 0 -1.59219e-11 0 1.60314e-08
138 3 0.001 0.0065159 0 0.026568 1.87857e-11 0 1.1683e-11 0 1.54498e-08
136 3 0.001 0.00722459 0 0.025524 2.32186e-11 0 1.90512e-11 0 1.65935e-08
141 3 0.001 0.00530584 0 0.0280232 -1.41313e-11 0 -1.23059e-11 0 1.37073e-08
139 3 0.001 0.00613052 0 0.0270678 -5.93138e-12 0 -7.94379e-12 0 1.4861e-08
140 3 0.001 0.00572661 0 0.0275528 1.3753e-11 0 1.62172e-11 0 1.42767e-08
142 3 0.001 0.00486982 0 0.0284797 1.03623e-11 0 1.55142e-11 0 1.31623e-08
143 3 0.001 0.00442017 0 0.0289227 2.73804e-12 0 2.7706e-12 0 1.26499e-08
144 3 0.001 0.00395845 0 0.0293533 -6.84805e-12 0 -7.6483e-12 0 1.21769e-08
148 3 0.001 0.00202057 0 0.030972 -2.9014e-11 0 -3.32837e-11 0 1.07775e-08
145 3 0.001 0.00348619 0 0.0297723 9.00211e-12 0 7.747e-12 0 1.17492e-08
146 3 0.001 0.00300485 0 0.0301809 -2.11709e-12 0 -5.51681e-12 0 1.13711e-08
147 3 0.001 0.00251586 0 0.0305804 1.49306e-11 0 2.52264e-11 0 1.10463e-08
151 3 0.001 0.000509382 0 0.0321156 3.86393e-12 0 -1.50861e-12 0 4.03511e-09
2 2 0.001 0 0 0.03249 -0.00286484 0 0.0149101 0 1.99844e-09
149 3 0.001 0.00152031 0 0.0313574 2.69569e-11 0 3.10214e-11 0 1.03721e-08
150 3 0.001 0.00101633 0 0.0317379 -1.15155e-11 0 -1.10761e-11 0 7.08004e-09
