ITEM: TIMESTEP
9800000
ITEM: NUMBER OF ATOMS
151
ITEM: BOX BOUNDS ff ff ff
-1.0000000000000000e-02 1.0000000000000000e-02
-6.0000000000000001e-03 6.0000000000000001e-03
-5.2499999999999998e-02 5.2499999999999998e-02
ITEM: ATOMS id type radius x y z fx fy fz c_bendingE c_stretchingE
1 1 0.001 0 0 -0.0475 -0.0015099 0 -0.0145538 0 1.14678e-09
3 3 0.001 0.000522634 0 -0.0471438 8.93282e-13 0 1.10169e-12 0 2.32765e-09
4 3 0.001 0.00104276 0 -0.046784 1.12153e-11 0 -1.69321e-11 0 4.81659e-09
5 3 0.001 0.00155981 0 -0.046421 -3.16562e-11 0 4.00623e-11 0 7.52615e-09
6 3 0.001 0.00207301 0 -0.0460526 3.90225e-11 0 -4.19926e-11 0 7.90245e-09
7 3 0.001 0.00258104 0 -0.0456771 -4.6426e-11 0 4.97625e-11 0 8.17564e-09
8 3 0.001 0.0030825 0 -0.045293 4.97264e-11 0 -6.67318e-11 0 8.50856e-09
9 3 0.001 0.00357594 0 -0.0448987 -3.76352e-11 0 5.00787e-11 0 8.89999e-09
10 3 0.001 0.00405981 0 -0.0444927 -1.64029e-11 0 2.17572e-11 0 9.34797e-09
11 3 0.001 0.00453252 0 -0.0440739 3.85857e-11 0 -4.5822e-11 0 9.84955e-09
12 3 0.001 0.00499239 0 -0.0436411 -1.20764e-11 0 2.56375e-11 0 1.04005e-08
13 3 0.001 0.00543765 0 -0.0431934 -2.10343e-11 0 6.85046e-12 0 1.09953e-08
14 3 0.001 0.0058665 0 -0.0427299 -3.57591e-13 0 -7.7041e-13 0 1.16267e-08
15 3 0.001 0.00627707 0 -0.0422503 2.77932e-11 0 -1.64548e-11 0 1.22857e-08
16 3 0.001 0.00666745 0 -0.0417542 -6.28419e-11 0 4.58524e-11 0 1.29619e-08
17 3 0.001 0.00703574 0 -0.0412415 7.03335e-11 0 -4.61454e-11 0 1.36429e-08
18 3 0.001 0.00738003 0 -0.0407125 -7.17872e-11 0 4.75751e-11 0 1.43152e-08
19 3 0.001 0.00769847 0 -0.0401676 2.01178e-11 0 -1.24745e-11 0 1.4964e-08
20 3 0.001 0.00798927 0 -0.0396075 2.12487e-11 0 -4.98091e-12 0 1.55741e-08
21 3 0.001 0.00825073 0 -0.0390332 -4.0884e-11 0 2.1314e-11 0 1.613e-08
22 3 0.001 0.00848133 0 -0.0384458 2.55279e-11 0 -1.08129e-11 0 1.6617e-08
23 3 0.001 0.00867967 0 -0.0378468 -2.40909e-11 0 4.91514e-12 0 1.70213e-08
24 3 0.001 0.00884459 0 -0.0372378 -1.6368e-11 0 1.30124e-11 0 1.73312e-08
25 3 0.001 0.00897512 0 -0.0366205 2.41437e-11 0 1.24214e-12 0 1.75376e-08
26 3 0.001 0.00907057 0 -0.0359969 -2.69335e-11 0 4.99469e-12 0 1.76187e-08
27 3 0.001 0.00913048 0 -0.0353688 2.53545e-12 0 5.56289e-13 0 1.75805e-08
28 3 0.001 0.00915467 0 -0.0347383 -1.4859e-11 0 7.54749e-12 0 1.74862e-08
29 3 0.001 0.00914315 0 -0.0341075 -1.75113e-11 0 -2.1604e-12 0 1.73826e-08
30 3 0.001 0.00909613 0 -0.0334783 4.1577e-11 0 1.36541e-11 0 1.72491e-08
31 3 0.001 0.00901401 0 -0.0328527 -5.88351e-11 0 1.19101e-12 0 1.70193e-08
32 3 0.001 0.00889742 0 -0.0322326 1.44316e-11 0 -1.73637e-13 0 1.66743e-08
33 3 0.001 0.00874722 0 -0.0316198 -1.76968e-11 0 -3.50968e-12 0 1.62403e-08
35 3 0.001 0.0083506 0 -0.030422 -4.06866e-11 0 -5.89105e-12 0 1.5162e-08
34 3 0.001 0.00856452 0 -0.0310158 2.61175e-11 0 1.66362e-11 0 1.57316e-08
37 3 0.001 0.00783515 0 -0.0292702 5.14909e-11 0 3.19289e-11 0 1.3899e-08
36 3 0.001 0.00810693 0 -0.0298399 -2.96611e-11 0 -1.24543e-11 0 1.45461e-08
38 3 0.001 0.00753697 0 -0.0287139 -3.93107e-11 0 -1.9429e-11 0 1.32354e-08
41 3 0.001 0.00650247 0 -0.0271286 3.4167e-11 0 2.71173e-11 0 1.12778e-08
39 3 0.001 0.00721422 0 -0.0281713 1.19654e-11 0 1.42546e-11 0 1.25691e-08
40 3 0.001 0.00686875 0 -0.0276429 -4.03225e-11 0 -2.47976e-11 0 1.19128e-08
43 3 0.001 0.00571503 0 -0.0261415 -2.15348e-11 0 -1.72371e-11 0 1.01082e-08
42 3 0.001 0.00611727 0 -0.0266283 -1.70882e-11 0 -9.4317e-12 0 1.06736e-08
44 3 0.001 0.00529761 0 -0.0256676 1.36748e-11 0 1.76223e-11 0 9.58812e-09
46 3 0.001 0.00442435 0 -0.024755 -2.611e-11 0 -3.48129e-11 0 8.70186e-09
45 3 0.001 0.0048668 0 -0.0252058 5.47438e-12 0 1.02405e-11 0 9.11813e-09
47 3 0.001 0.00397195 0 -0.0243142 3.45635e-11 0 3.10927e-11 0 8.34182e-09
51 3 0.001 0.00209474 0 -0.022623 -8.37039e-13 0 -1.10413e-11 0 7.48782e-09
49 3 0.001 0.00304379 0 -0.0234571 2.87188e-11 0 3.61059e-11 0 7.79629e-09
50 3 0.001 0.00257113 0 -0.0230379 -8.00142e-12 0 -1.26109e-11 0 7.61228e-09
48 3 0.001 0.00351124 0 -0.023882 -4.07901e-11 0 -4.18018e-11 0 8.03964e-09
53 3 0.001 0.00113659 0 -0.0217993 2.41956e-12 0 3.00775e-12 0 7.41777e-09
52 3 0.001 0.00161609 0 -0.0222107 9.61321e-12 0 3.95631e-12 0 7.42298e-09
54 3 0.001 0.00065768 0 -0.0213873 9.26658e-12 0 -2.8694e-12 0 7.47219e-09
58 3 0.001 -0.00122309 0 -0.0197 -7.55191e-11 0 -8.67652e-11 0 8.28482e-09
56 3 0.001 -0.000292625 0 -0.0205546 9.80606e-12 0 9.10506e-13 0 7.75985e-09
57 3 0.001 -0.000761094 0 -0.0201308 5.54898e-11 0 4.90681e-11 0 7.99286e-09
55 3 0.001 0.000180793 0 -0.0209729 -1.32799e-11 0 -1.97535e-11 0 7.58623e-09
61 3 0.001 -0.00255433 0 -0.018352 6.24561e-12 0 -4.29725e-12 0 9.50227e-09
60 3 0.001 -0.00212137 0 -0.0188118 -2.26433e-11 0 -3.82198e-11 0 9.04144e-09
59 3 0.001 -0.00167706 0 -0.0192608 8.01582e-11 0 7.28669e-11 0 8.63484e-09
63 3 0.001 -0.00337925 0 -0.0173958 -4.38366e-12 0 -1.8576e-11 0 1.05718e-08
62 3 0.001 -0.00297423 0 -0.0178803 3.35382e-11 0 2.31128e-11 0 1.0014e-08
64 3 0.001 -0.00376756 0 -0.0168978 1.51965e-12 0 -1.52064e-12 0 1.11697e-08
66 3 0.001 -0.00448652 0 -0.0158601 -2.12952e-11 0 -2.13421e-11 0 1.24534e-08
65 3 0.001 -0.00413728 0 -0.016386 4.57356e-11 0 1.56009e-11 0 1.18001e-08
67 3 0.001 -0.00481338 0 -0.01532 6.34501e-11 0 2.28527e-11 0 1.31188e-08
68 3 0.001 -0.00511599 0 -0.014766 -6.72796e-11 0 -3.09179e-11 0 1.37839e-08
69 3 0.001 -0.00539251 0 -0.0141987 8.28244e-11 0 2.56848e-11 0 1.44349e-08
70 3 0.001 -0.0056412 0 -0.0136186 3.41374e-11 0 3.26236e-12 0 1.50573e-08
71 3 0.001 -0.00586043 0 -0.0130268 -8.72423e-11 0 -3.01522e-11 0 1.56361e-08
72 3 0.001 -0.00604869 0 -0.0124245 1.24386e-10 0 3.37045e-11 0 1.61565e-08
73 3 0.001 -0.00620465 0 -0.0118131 -2.22764e-11 0 -1.29969e-11 0 1.66045e-08
74 3 0.001 -0.00632718 0 -0.0111941 -4.26391e-11 0 -1.09346e-11 0 1.69674e-08
75 3 0.001 -0.00641537 0 -0.0105694 1.41568e-10 0 1.39159e-11 0 1.72347e-08
76 3 0.001 -0.00646856 0 -0.00994066 -1.17152e-10 0 -7.96718e-12 0 1.73984e-08
77 3 0.001 -0.00648634 0 -0.00930998 1.25157e-10 0 4.78126e-12 0 1.74536e-08
78 3 0.001 -0.00646856 0 -0.00867929 -5.67076e-11 0 3.73854e-12 0 1.73984e-08
79 3 0.001 -0.00641538 0 -0.0080506 6.71975e-11 0 -1.12223e-11 0 1.72348e-08
80 3 0.001 -0.00632719 0 -0.00742583 -3.15054e-11 0 6.75346e-12 0 1.69675e-08
81 3 0.001 -0.00620467 0 -0.00680687 5.0276e-11 0 -1.2805e-12 0 1.66046e-08
82 3 0.001 -0.00604871 0 -0.00619543 1.24202e-11 0 -1.34245e-12 0 1.61567e-08
83 3 0.001 -0.00586045 0 -0.00559313 5.18792e-12 0 8.14323e-12 0 1.56363e-08
84 3 0.001 -0.00564123 0 -0.00500135 2.91965e-11 0 -1.14765e-11 0 1.50575e-08
85 3 0.001 -0.00539254 0 -0.00442128 -1.78988e-11 0 1.35784e-11 0 1.44351e-08
86 3 0.001 -0.00511602 0 -0.0038539 4.58196e-11 0 -8.3729e-12 0 1.37841e-08
87 3 0.001 -0.00481342 0 -0.00329993 3.02609e-11 0 -1.59727e-11 0 1.3119e-08
88 3 0.001 -0.00448656 0 -0.00275986 -3.95232e-11 0 3.6862e-11 0 1.24536e-08
89 3 0.001 -0.00413732 0 -0.00223392 5.926e-11 0 -3.18366e-11 0 1.18002e-08
90 3 0.001 -0.0037676 0 -0.0017221 -5.60519e-12 0 1.60515e-11 0 1.11699e-08
91 3 0.001 -0.00337929 0 -0.00122418 8.20141e-12 0 -1.79675e-12 0 1.0572e-08
92 3 0.001 -0.00297427 0 -0.000739675 1.45951e-11 0 6.56012e-12 0 1.00141e-08
93 3 0.001 -0.00255438 0 -0.000267939 2.24913e-11 0 -1.4347e-11 0 9.50244e-09
94 3 0.001 -0.00212141 0 0.000191886 -2.25577e-11 0 2.92581e-11 0 9.0416e-09
95 3 0.001 -0.00167711 0 0.000640824 4.89889e-11 0 -4.05612e-11 0 8.635e-09
96 3 0.001 -0.00122314 0 0.00108005 -1.61263e-11 0 2.89741e-11 0 8.28497e-09
97 3 0.001 -0.000761141 0 0.00151085 8.43947e-12 0 5.37511e-12 0 7.993e-09
98 3 0.001 -0.000292672 0 0.00193466 1.54148e-11 0 -1.00074e-11 0 7.75999e-09
99 3 0.001 0.000180746 0 0.00235296 -8.6516e-12 0 1.8572e-11 0 7.58636e-09
100 3 0.001 0.000657634 0 0.00276732 1.84265e-11 0 -2.17476e-11 0 7.47231e-09
101 3 0.001 0.00113654 0 0.00317936 5.98582e-12 0 -2.83438e-12 0 7.41789e-09
102 3 0.001 0.00161604 0 0.00359072 -2.3718e-11 0 5.1726e-11 0 7.42309e-09
103 3 0.001 0.0020947 0 0.00400305 4.85519e-11 0 -6.23522e-11 0 7.48793e-09
104 3 0.001 0.00257109 0 0.00441798 -4.67039e-11 0 5.61526e-11 0 7.61239e-09
105 3 0.001 0.00304375 0 0.00483713 3.54377e-11 0 -4.0212e-11 0 7.79641e-09
106 3 0.001 0.0035112 0 0.00526206 -2.75129e-11 0 3.70987e-11 0 8.03976e-09
107 3 0.001 0.00397191 0 0.00569423 3.47173e-11 0 -3.1221e-11 0 8.34195e-09
108 3 0.001 0.00442431 0 0.00613506 -6.35082e-11 0 5.06446e-11 0 8.70199e-09
109 3 0.001 0.00486676 0 0.00658582 8.06747e-11 0 -7.05316e-11 0 9.11826e-09
110 3 0.001 0.00529758 0 0.00704765 -5.97994e-11 0 5.02009e-11 0 9.58827e-09
111 3 0.001 0.005715 0 0.00752156 -2.35586e-13 0 4.42744e-12 0 1.01084e-08
112 3 0.001 0.00611724 0 0.00800836 2.81805e-12 0 -1.3483e-11 0 1.06738e-08
113 3 0.001 0.00650244 0 0.00850868 1.81487e-11 0 -1.36377e-11 0 1.1278e-08
114 3 0.001 0.00686873 0 0.00902295 -2.19053e-11 0 1.61016e-11 0 1.1913e-08
115 3 0.001 0.0072142 0 0.00955137 -4.67373e-11 0 2.0601e-11 0 1.25693e-08
116 3 0.001 0.00753696 0 0.0100939 7.03742e-11 0 -4.72698e-11 0 1.32357e-08
117 3 0.001 0.00783514 0 0.0106502 -7.41864e-11 0 3.62152e-11 0 1.38993e-08
118 3 0.001 0.00810692 0 0.0112199 4.33036e-11 0 -2.62889e-11 0 1.45464e-08
119 3 0.001 0.00835059 0 0.0118021 -2.92952e-11 0 1.14578e-11 0 1.51623e-08
120 3 0.001 0.00856451 0 0.0123958 -3.22735e-11 0 3.37814e-12 0 1.5732e-08
121 3 0.001 0.00874722 0 0.0129998 5.05555e-11 0 -2.13586e-11 0 1.62407e-08
122 3 0.001 0.00889742 0 0.0136127 -5.62416e-11 0 6.42544e-12 0 1.66747e-08
123 3 0.001 0.00901402 0 0.0142328 1.34391e-11 0 -3.3505e-12 0 1.70197e-08
124 3 0.001 0.00909614 0 0.0148584 -1.65342e-11 0 -6.60614e-12 0 1.72495e-08
125 3 0.001 0.00914316 0 0.0154875 2.41968e-11 0 2.70377e-12 0 1.7383e-08
126 3 0.001 0.00915468 0 0.0161184 -8.29238e-11 0 -1.12758e-11 0 1.74866e-08
127 3 0.001 0.0091305 0 0.0167488 9.36632e-11 0 6.3963e-12 0 1.7581e-08
128 3 0.001 0.00907059 0 0.0173769 -7.24905e-11 0 -1.72465e-11 0 1.76192e-08
129 3 0.001 0.00897514 0 0.0180006 1.15199e-11 0 2.49533e-12 0 1.75381e-08
130 3 0.001 0.00884461 0 0.0186178 -1.38729e-11 0 -9.55488e-12 0 1.73318e-08
133 3 0.001 0.00825076 0 0.0204132 3.00935e-11 0 1.41957e-11 0 1.61307e-08
132 3 0.001 0.00848135 0 0.0198259 -5.17033e-11 0 -2.93627e-11 0 1.66176e-08
131 3 0.001 0.0086797 0 0.0192269 2.86741e-11 0 1.29424e-11 0 1.70219e-08
134 3 0.001 0.00798929 0 0.0209876 -2.64533e-11 0 -1.69036e-11 0 1.55747e-08
135 3 0.001 0.0076985 0 0.0215477 1.0878e-11 0 4.16362e-12 0 1.49646e-08
136 3 0.001 0.00738006 0 0.0220926 -1.32182e-11 0 -6.51122e-13 0 1.43158e-08
138 3 0.001 0.00666748 0 0.0231342 -3.50116e-12 0 -6.57638e-12 0 1.29624e-08
137 3 0.001 0.00703577 0 0.0226216 -1.06188e-12 0 -1.08741e-11 0 1.36435e-08
142 3 0.001 0.00499241 0 0.0250211 1.38177e-11 0 1.64624e-11 0 1.0401e-08
139 3 0.001 0.00627709 0 0.0236304 -3.87088e-12 0 2.60119e-12 0 1.22863e-08
140 3 0.001 0.00586652 0 0.02411 1.85957e-11 0 1.76976e-11 0 1.16272e-08
141 3 0.001 0.00543767 0 0.0245734 -4.45393e-11 0 -4.85621e-11 0 1.09958e-08
145 3 0.001 0.00357595 0 0.0262787 -1.76424e-11 0 -1.2631e-11 0 8.9004e-09
143 3 0.001 0.00453254 0 0.0254539 1.80607e-11 0 2.1216e-11 0 9.85001e-09
144 3 0.001 0.00405983 0 0.0258728 -1.81588e-11 0 -2.72372e-11 0 9.34841e-09
148 3 0.001 0.00207302 0 0.0274326 -3.23211e-13 0 -1.33939e-12 0 7.90282e-09
149 3 0.001 0.00155982 0 0.027801 2.24194e-11 0 3.93788e-11 0 7.52651e-09
146 3 0.001 0.00308251 0 0.026673 3.59601e-11 0 4.07669e-11 0 8.50896e-09
147 3 0.001 0.00258105 0 0.0270571 -3.20533e-11 0 -4.18334e-11 0 8.17603e-09
151 3 0.001 0.000522636 0 0.0285238 7.66553e-12 0 1.95691e-11 0 2.32785e-09
2 2 0.001 0 0 0.02888 -0.00151006 0 0.0145541 0 1.14688e-09
150 3 0.001 0.00104276 0 0.028164 -2.27319e-11 0 -4.32222e-11 0 4.81686e-09
