ITEM: TIMESTEP
7200000
ITEM: NUMBER OF ATOMS
151
ITEM: BOX BOUNDS ff ff ff
-1.0000000000000000e-02 1.0000000000000000e-02
-6.0000000000000001e-03 6.0000000000000001e-03
-5.2499999999999998e-02 5.2499999999999998e-02
ITEM: ATOMS id type radius x y z fx fy fz c_bendingE c_stretchingE
1 1 0.001 0 0 -0.0475 -0.00340655 0 -0.0151173 0 2.42566e-09
3 3 0.001 0.000503586 0 -0.047118 2.4546e-12 0 -4.73607e-12 0 4.89072e-09
4 3 0.001 0.00100477 0 -0.0467329 1.67035e-11 0 -2.38452e-11 0 8.16859e-09
5 3 0.001 0.00150303 0 -0.0463451 -7.28916e-11 0 8.12399e-11 0 1.1705e-08
6 3 0.001 0.00199762 0 -0.0459527 1.29857e-10 0 -1.51192e-10 0 1.21219e-08
7 3 0.001 0.00248731 0 -0.0455542 -2.10782e-10 0 2.53314e-10 0 1.23878e-08
8 3 0.001 0.00297083 0 -0.0451483 2.67425e-10 0 -3.13874e-10 0 1.27081e-08
9 3 0.001 0.00344683 0 -0.0447337 -2.44099e-10 0 2.68823e-10 0 1.30795e-08
10 3 0.001 0.00391395 0 -0.0443091 1.55366e-10 0 -1.74893e-10 0 1.3498e-08
11 3 0.001 0.00437076 0 -0.0438735 -1.8311e-10 0 1.88045e-10 0 1.39585e-08
12 3 0.001 0.0048158 0 -0.043426 2.11656e-10 0 -2.15117e-10 0 1.44548e-08
13 3 0.001 0.00524759 0 -0.0429657 -1.66896e-10 0 1.62215e-10 0 1.49798e-08
14 3 0.001 0.00566457 0 -0.0424919 5.96724e-11 0 -6.11567e-11 0 1.55248e-08
15 3 0.001 0.00606523 0 -0.0420044 -7.17932e-12 0 5.37711e-14 0 1.60805e-08
16 3 0.001 0.00644799 0 -0.0415027 2.74594e-11 0 -3.50979e-11 0 1.66362e-08
17 3 0.001 0.00681133 0 -0.0409869 -1.46964e-10 0 9.46956e-11 0 1.71808e-08
18 3 0.001 0.00715374 0 -0.0404569 3.25831e-10 0 -1.96438e-10 0 1.77023e-08
19 3 0.001 0.00747377 0 -0.0399132 -3.48239e-10 0 1.76579e-10 0 1.8189e-08
20 3 0.001 0.00777004 0 -0.0393563 3.45924e-10 0 -1.89981e-10 0 1.86289e-08
21 3 0.001 0.00804129 0 -0.0387867 -2.76946e-10 0 1.05664e-10 0 1.90112e-08
22 3 0.001 0.00828635 0 -0.0382054 3.55726e-10 0 -1.5416e-10 0 1.93257e-08
23 3 0.001 0.00850422 0 -0.0376135 -2.27919e-10 0 6.08752e-11 0 1.95641e-08
24 3 0.001 0.00869406 0 -0.0370119 2.17809e-10 0 -8.89687e-11 0 1.97198e-08
25 3 0.001 0.0088552 0 -0.0364021 -2.90531e-11 0 -2.22497e-11 0 1.97884e-08
26 3 0.001 0.00898717 0 -0.0357853 3.71521e-11 0 -4.35569e-11 0 1.97681e-08
27 3 0.001 0.0090897 0 -0.0351629 8.96846e-11 0 -4.02652e-11 0 1.96312e-08
28 3 0.001 0.00916275 0 -0.0345363 8.47024e-11 0 -4.14544e-11 0 1.93794e-08
29 3 0.001 0.00920643 0 -0.033907 6.47511e-11 0 -4.55606e-11 0 1.90939e-08
30 3 0.001 0.00922099 0 -0.0332763 -7.512e-11 0 -5.57481e-11 0 1.88582e-08
31 3 0.001 0.00920672 0 -0.0326457 4.74465e-10 0 -2.81885e-11 0 1.87033e-08
32 3 0.001 0.00916399 0 -0.0320163 -3.43962e-10 0 -8.32751e-11 0 1.85993e-08
33 3 0.001 0.00909322 0 -0.0313894 4.44135e-10 0 -4.81914e-12 0 1.84705e-08
34 3 0.001 0.00899491 0 -0.0307662 -5.41869e-11 0 -8.54741e-11 0 1.82461e-08
35 3 0.001 0.00886972 0 -0.0301479 1.964e-10 0 -3.83647e-11 0 1.79332e-08
36 3 0.001 0.00871844 0 -0.0295354 2.74607e-10 0 -5.19816e-12 0 1.75676e-08
37 3 0.001 0.00854203 0 -0.0289296 -1.74997e-10 0 -1.49434e-10 0 1.71584e-08
39 3 0.001 0.00811829 0 -0.0277411 -1.59346e-10 0 -1.85591e-10 0 1.62476e-08
40 3 0.001 0.00787346 0 -0.0271595 3.69083e-10 0 3.60705e-11 0 1.5766e-08
38 3 0.001 0.00834158 0 -0.0283313 6.0572e-10 0 1.11876e-10 0 1.6715e-08
42 3 0.001 0.00732473 0 -0.0260231 2.17564e-10 0 -1.7088e-11 0 1.47987e-08
41 3 0.001 0.00760846 0 -0.0265868 1.49202e-10 0 -5.51931e-11 0 1.52799e-08
45 3 0.001 0.00637615 0 -0.0243848 3.64509e-10 0 5.13776e-11 0 1.34648e-08
44 3 0.001 0.00670706 0 -0.0249223 1.89356e-10 0 -6.70067e-11 0 1.38839e-08
43 3 0.001 0.00702376 0 -0.0254683 2.10895e-10 0 -4.04823e-11 0 1.43308e-08
47 3 0.001 0.00567788 0 -0.0233331 3.09291e-10 0 2.64894e-11 0 1.2733e-08
46 3 0.001 0.00603258 0 -0.0238553 1.15403e-10 0 -9.86356e-11 0 1.30795e-08
48 3 0.001 0.00531357 0 -0.0228175 2.56835e-10 0 -2.00901e-11 0 1.24292e-08
50 3 0.001 0.00456217 0 -0.0218028 3.3421e-10 0 2.63559e-11 0 1.19627e-08
49 3 0.001 0.00494117 0 -0.0223077 2.38021e-10 0 -4.87624e-11 0 1.21716e-08
51 3 0.001 0.00417807 0 -0.0213017 1.02103e-10 0 -1.46473e-10 0 1.18045e-08
54 3 0.001 0.00300979 0 -0.0198108 1.54872e-10 0 -1.15958e-10 0 1.16455e-08
53 3 0.001 0.00340042 0 -0.0203068 2.50393e-10 0 -3.64235e-11 0 1.16452e-08
52 3 0.001 0.00379033 0 -0.0208034 4.52248e-10 0 1.28507e-10 0 1.16984e-08
57 3 0.001 0.00184813 0 -0.0183148 1.87718e-10 0 -9.40771e-11 0 1.19645e-08
56 3 0.001 0.00223219 0 -0.0188159 3.9569e-10 0 6.08502e-11 0 1.18058e-08
55 3 0.001 0.00261989 0 -0.0193142 2.98474e-10 0 -1.25577e-11 0 1.16992e-08
59 3 0.001 0.00109687 0 -0.0173 5.07132e-10 0 1.34328e-10 0 1.2432e-08
58 3 0.001 0.00146919 0 -0.0178098 2.02516e-10 0 -8.23081e-11 0 1.21739e-08
60 3 0.001 0.000732645 0 -0.0167844 -3.80916e-11 0 -2.53299e-10 0 1.27362e-08
62 3 0.001 3.45921e-05 0 -0.0157325 2.57292e-11 0 -1.95885e-10 0 1.34689e-08
61 3 0.001 0.000378045 0 -0.0162621 6.09553e-10 0 1.757e-10 0 1.30832e-08
63 3 0.001 -0.00029618 0 -0.0151949 4.51291e-10 0 7.05465e-11 0 1.38882e-08
64 3 0.001 -0.000612734 0 -0.0146488 2.99966e-10 0 -3.11486e-11 0 1.43354e-08
65 3 0.001 -0.00091354 0 -0.014094 1.48157e-10 0 -1.03931e-10 0 1.48035e-08
66 3 0.001 -0.00119709 0 -0.0135301 4.79081e-10 0 5.01472e-11 0 1.52848e-08
67 3 0.001 -0.00146189 0 -0.0129573 2.4577e-10 0 -6.05964e-11 0 1.57708e-08
68 3 0.001 -0.00170651 0 -0.0123756 3.82735e-10 0 7.41509e-12 0 1.62524e-08
69 3 0.001 -0.00192958 0 -0.0117854 2.38537e-10 0 -4.34548e-11 0 1.67196e-08
70 3 0.001 -0.0021298 0 -0.011187 5.8317e-10 0 5.97515e-11 0 1.71627e-08
72 3 0.001 -0.00245698 0 -0.00996859 6.07803e-10 0 3.99773e-11 0 1.79366e-08
71 3 0.001 -0.00230596 0 -0.0105812 7.48403e-11 0 -9.06242e-11 0 1.75716e-08
73 3 0.001 -0.00258191 0 -0.00935019 3.29898e-10 0 -7.78139e-12 0 1.8249e-08
75 3 0.001 -0.00275043 0 -0.00810008 5.10679e-10 0 6.43613e-12 0 1.86857e-08
74 3 0.001 -0.00267994 0 -0.00872698 3.30618e-10 0 -2.78478e-12 0 1.85009e-08
76 3 0.001 -0.00279291 0 -0.00747066 3.29589e-10 0 -5.51345e-12 0 1.87986e-08
77 3 0.001 -0.00280711 0 -0.00683998 5.23983e-10 0 -1.18262e-11 0 1.88365e-08
78 3 0.001 -0.00279292 0 -0.0062093 2.6042e-10 0 1.19538e-11 0 1.87986e-08
79 3 0.001 -0.00275044 0 -0.00557989 5.80638e-10 0 -7.83732e-14 0 1.86857e-08
80 3 0.001 -0.00267995 0 -0.00495298 2.83179e-10 0 1.25728e-11 0 1.85009e-08
81 3 0.001 -0.00258192 0 -0.00432977 4.88623e-10 0 -2.28284e-11 0 1.82491e-08
82 3 0.001 -0.002457 0 -0.00371138 2.47328e-10 0 3.19551e-11 0 1.79367e-08
83 3 0.001 -0.00230598 0 -0.0030988 5.41265e-10 0 -3.17868e-11 0 1.75717e-08
84 3 0.001 -0.00212982 0 -0.00249296 2.08433e-10 0 5.92161e-11 0 1.71628e-08
85 3 0.001 -0.00192961 0 -0.00189459 4.16454e-10 0 -1.08008e-11 0 1.67198e-08
86 3 0.001 -0.00170655 0 -0.00130434 3.52908e-10 0 3.24462e-13 0 1.62525e-08
87 3 0.001 -0.00146193 0 -0.000722644 2.31594e-10 0 5.66514e-11 0 1.5771e-08
88 3 0.001 -0.00119712 0 -0.000149817 3.55579e-10 0 5.37135e-12 0 1.5285e-08
89 3 0.001 -0.00091358 0 0.000414006 3.17233e-10 0 2.0861e-11 0 1.48036e-08
90 3 0.001 -0.000612776 0 0.000968854 2.90051e-10 0 2.52966e-11 0 1.43355e-08
91 3 0.001 -0.000296223 0 0.00151491 1.64277e-10 0 1.04332e-10 0 1.38884e-08
92 3 0.001 3.45473e-05 0 0.00205251 5.37459e-10 0 -1.30268e-10 0 1.34691e-08
93 3 0.001 0.000377999 0 0.00258214 -1.97327e-11 0 2.29689e-10 0 1.30834e-08
94 3 0.001 0.000732598 0 0.00310441 5.28771e-10 0 -1.35814e-10 0 1.27364e-08
95 3 0.001 0.00109682 0 0.00362004 8.47181e-11 0 1.67408e-10 0 1.24322e-08
96 3 0.001 0.00146914 0 0.00412988 4.23799e-10 0 -9.40048e-11 0 1.21741e-08
97 3 0.001 0.00184808 0 0.00463486 1.80537e-10 0 1.04496e-10 0 1.19647e-08
98 3 0.001 0.00223214 0 0.00513596 2.53221e-10 0 4.05082e-11 0 1.1806e-08
99 3 0.001 0.00261985 0 0.00563427 3.9606e-10 0 -6.07386e-11 0 1.16993e-08
100 3 0.001 0.00300974 0 0.00613087 1.12984e-10 0 1.40101e-10 0 1.16457e-08
101 3 0.001 0.00340037 0 0.00662689 3.44044e-10 0 -4.12083e-11 0 1.16454e-08
102 3 0.001 0.00379029 0 0.00712348 3.30734e-10 0 -2.89319e-11 0 1.16985e-08
103 3 0.001 0.00417803 0 0.00762176 1.39679e-10 0 1.15816e-10 0 1.18046e-08
104 3 0.001 0.00456213 0 0.00812283 3.61093e-10 0 -4.76776e-11 0 1.19628e-08
105 3 0.001 0.00494112 0 0.00862776 2.57094e-10 0 1.78785e-11 0 1.21717e-08
106 3 0.001 0.00531353 0 0.00913754 2.3551e-10 0 2.85112e-11 0 1.24294e-08
107 3 0.001 0.00567784 0 0.00965311 2.82229e-10 0 -2.41292e-12 0 1.27331e-08
108 3 0.001 0.00603254 0 0.0101753 2.21728e-10 0 4.03377e-11 0 1.30797e-08
109 3 0.001 0.00637612 0 0.0107049 3.76896e-10 0 -6.302e-11 0 1.3465e-08
110 3 0.001 0.00670702 0 0.0112424 -4.85371e-11 0 1.91414e-10 0 1.38841e-08
111 3 0.001 0.00702373 0 0.0117883 5.537e-10 0 -1.62104e-10 0 1.4331e-08
112 3 0.001 0.00732471 0 0.0123431 -1.60654e-11 0 1.57034e-10 0 1.47989e-08
113 3 0.001 0.00760843 0 0.0129068 4.17782e-10 0 -6.63074e-11 0 1.52802e-08
114 3 0.001 0.00787344 0 0.0134796 -1.24164e-10 0 1.64281e-10 0 1.57662e-08
115 3 0.001 0.00811827 0 0.0140612 6.34971e-10 0 -1.35976e-10 0 1.62478e-08
116 3 0.001 0.00834157 0 0.0146513 -2.01851e-10 0 1.76474e-10 0 1.67153e-08
117 3 0.001 0.00854202 0 0.0152496 3.03065e-10 0 -7.75685e-12 0 1.71587e-08
118 3 0.001 0.00871843 0 0.0158554 1.8568e-10 0 3.71136e-11 0 1.75679e-08
119 3 0.001 0.00886971 0 0.0164679 1.37491e-10 0 5.00477e-11 0 1.79335e-08
120 3 0.001 0.00899491 0 0.0170862 -8.61849e-11 0 7.81372e-11 0 1.82465e-08
121 3 0.001 0.00909321 0 0.0177094 5.13221e-10 0 -7.48207e-12 0 1.84709e-08
122 3 0.001 0.00916399 0 0.0183363 -2.65403e-10 0 8.64103e-11 0 1.85997e-08
123 3 0.001 0.00920672 0 0.0189657 2.75151e-10 0 3.64289e-11 0 1.87037e-08
124 3 0.001 0.00922099 0 0.0195964 1.76658e-11 0 4.27444e-11 0 1.88587e-08
125 3 0.001 0.00920644 0 0.020227 1.63755e-10 0 5.77387e-11 0 1.90943e-08
126 3 0.001 0.00916276 0 0.0208563 -4.8569e-11 0 3.04648e-11 0 1.93799e-08
127 3 0.001 0.00908972 0 0.0214829 1.05375e-10 0 4.92413e-11 0 1.96317e-08
128 3 0.001 0.00898718 0 0.0221053 9.66522e-11 0 4.73146e-11 0 1.97686e-08
129 3 0.001 0.00885522 0 0.0227221 -5.1365e-11 0 8.32294e-12 0 1.9789e-08
130 3 0.001 0.00869408 0 0.023332 8.28449e-11 0 5.69246e-11 0 1.97204e-08
132 3 0.001 0.00828637 0 0.0245255 -1.14791e-10 0 -1.92096e-11 0 1.93264e-08
131 3 0.001 0.00850424 0 0.0239335 1.38044e-10 0 6.75696e-11 0 1.95648e-08
133 3 0.001 0.00804131 0 0.0251067 3.56262e-11 0 2.00833e-11 0 1.90119e-08
134 3 0.001 0.00777007 0 0.0256763 2.06931e-10 0 1.14076e-10 0 1.86296e-08
135 3 0.001 0.00747379 0 0.0262333 -2.11065e-10 0 -1.01788e-10 0 1.81896e-08
137 3 0.001 0.00681135 0 0.0273069 -1.78949e-11 0 6.76539e-12 0 1.71814e-08
138 3 0.001 0.00644802 0 0.0278228 -6.55799e-11 0 -4.2939e-11 0 1.66369e-08
136 3 0.001 0.00715376 0 0.026777 1.52192e-10 0 1.01397e-10 0 1.7703e-08
141 3 0.001 0.00524761 0 0.0292857 3.2858e-10 0 2.8955e-10 0 1.49804e-08
139 3 0.001 0.00606525 0 0.0283244 1.9117e-10 0 1.56828e-10 0 1.60811e-08
140 3 0.001 0.0056646 0 0.028812 -3.05316e-10 0 -2.62209e-10 0 1.55254e-08
145 3 0.001 0.00344685 0 0.0310537 -3.99197e-11 0 -5.52519e-11 0 1.308e-08
142 3 0.001 0.00481583 0 0.029746 -2.09765e-10 0 -1.70086e-10 0 1.44554e-08
143 3 0.001 0.00437078 0 0.0301936 2.22814e-11 0 3.49189e-11 0 1.3959e-08
144 3 0.001 0.00391397 0 0.0306291 3.81287e-11 0 4.09749e-11 0 1.34985e-08
148 3 0.001 0.00199763 0 0.0322727 -1.76158e-11 0 5.76916e-12 0 1.21224e-08
146 3 0.001 0.00297084 0 0.0314684 2.33891e-11 0 1.86247e-11 0 1.27086e-08
147 3 0.001 0.00248733 0 0.0318743 -6.44866e-12 0 5.82875e-12 0 1.23883e-08
151 3 0.001 0.000503589 0 0.033438 -1.48486e-11 0 -3.84978e-11 0 4.89103e-09
2 2 0.001 0 0 0.03382 -0.00340671 0 0.0151175 0 2.42581e-09
149 3 0.001 0.00150303 0 0.0326651 -2.10896e-11 0 -2.09813e-11 0 1.17055e-08
150 3 0.001 0.00100478 0 0.0330529 4.02749e-11 0 3.16914e-11 0 8.16898e-09
