ITEM: TIMESTEP
8500000
ITEM: NUMBER OF ATOMS
151
ITEM: BOX BOUNDS ff ff ff
-1.0000000000000000e-02 1.0000000000000000e-02
-6.0000000000000001e-03 6.0000000000000001e-03
-5.2499999999999998e-02 5.2499999999999998e-02
ITEM: ATOMS id type radius x y z fx fy fz c_bendingE c_stretchingE
1 1 0.001 0 0 -0.0475 -0.00242003 0 -0.014769 0 1.68681e-09
3 3 0.001 0.000513907 0 -0.0471317 8.26117e-09 0 -1.25507e-08 0 3.41069e-09
4 3 0.001 0.00102536 0 -0.0467599 -9.36308e-09 0 1.2989e-08 0 6.26942e-09
5 3 0.001 0.0015338 0 -0.0463852 3.53532e-09 0 -4.10461e-09 0 9.36625e-09
6 3 0.001 0.00203848 0 -0.0460056 3.13369e-09 0 -3.75526e-09 0 9.76226e-09
7 3 0.001 0.00253813 0 -0.0456193 -1.09706e-08 0 1.33149e-08 0 1.0033e-08
8 3 0.001 0.00303139 0 -0.045225 1.98418e-08 0 -2.56013e-08 0 1.03611e-08
9 3 0.001 0.00351687 0 -0.0448212 -2.27116e-08 0 2.7142e-08 0 1.07441e-08
10 3 0.001 0.00399312 0 -0.0444066 1.43731e-08 0 -1.50798e-08 0 1.1179e-08
11 3 0.001 0.00445863 0 -0.04398 -8.71222e-09 0 1.00458e-08 0 1.16618e-08
12 3 0.001 0.00491181 0 -0.0435404 1.96248e-08 0 -1.98878e-08 0 1.21871e-08
13 3 0.001 0.00535105 0 -0.043087 -2.61429e-08 0 2.29615e-08 0 1.27486e-08
14 3 0.001 0.00577468 0 -0.042619 7.38759e-09 0 -7.33246e-09 0 1.33381e-08
15 3 0.001 0.00618098 0 -0.0421359 1.4315e-08 0 -9.85389e-09 0 1.39466e-08
16 3 0.001 0.00656822 0 -0.0416375 -7.34041e-09 0 7.63713e-09 0 1.45632e-08
17 3 0.001 0.0069347 0 -0.0411237 -2.50805e-08 0 1.53491e-08 0 1.51763e-08
18 3 0.001 0.00727869 0 -0.0405946 4.73674e-08 0 -3.11206e-08 0 1.57732e-08
19 3 0.001 0.00759855 0 -0.0400507 -2.81712e-08 0 1.65157e-08 0 1.63405e-08
20 3 0.001 0.00789269 0 -0.0394924 -1.72214e-08 0 7.87053e-09 0 1.68646e-08
21 3 0.001 0.00815963 0 -0.0389207 4.82044e-08 0 -1.91584e-08 0 1.73326e-08
22 3 0.001 0.00839801 0 -0.0383366 -4.46053e-08 0 1.8255e-08 0 1.7732e-08
23 3 0.001 0.00860665 0 -0.0377411 9.01939e-09 0 -5.62026e-09 0 1.8052e-08
24 3 0.001 0.00878452 0 -0.0371359 1.97598e-08 0 -5.54334e-09 0 1.82835e-08
25 3 0.001 0.0089308 0 -0.0365222 -6.79658e-09 0 2.66687e-09 0 1.84199e-08
26 3 0.001 0.0090449 0 -0.0359017 -2.19521e-08 0 2.8932e-09 0 1.84464e-08
27 3 0.001 0.00912645 0 -0.0352761 3.76368e-08 0 -3.7818e-09 0 1.83467e-08
28 3 0.001 0.00917531 0 -0.0346472 -3.32356e-08 0 1.94288e-09 0 1.81673e-08
29 3 0.001 0.00919152 0 -0.0340165 2.06144e-09 0 -2.8326e-10 0 1.79944e-08
30 3 0.001 0.00917527 0 -0.0333858 3.31242e-08 0 2.64012e-09 0 1.78635e-08
31 3 0.001 0.00912684 0 -0.0327567 -4.31592e-08 0 -5.03847e-09 0 1.77419e-08
32 3 0.001 0.00904667 0 -0.0321309 3.12529e-08 0 3.94369e-09 0 1.75514e-08
33 3 0.001 0.00893532 0 -0.0315099 -1.5571e-08 0 -2.79503e-09 0 1.72538e-08
34 3 0.001 0.00879359 0 -0.0308951 3.20879e-09 0 1.47371e-09 0 1.68721e-08
35 3 0.001 0.00862243 0 -0.0302877 1.64143e-08 0 5.86712e-09 0 1.64275e-08
37 3 0.001 0.00819656 0 -0.0291 4.21244e-08 0 1.66601e-08 0 1.53959e-08
36 3 0.001 0.00842299 0 -0.0296891 -3.96069e-08 0 -1.57796e-08 0 1.59314e-08
39 3 0.001 0.00766852 0 -0.0279538 1.24739e-08 0 7.36097e-09 0 1.4256e-08
40 3 0.001 0.00737004 0 -0.0273977 -1.20356e-08 0 -7.04111e-09 0 1.36757e-08
38 3 0.001 0.00794456 0 -0.0285214 -2.49552e-08 0 -1.05663e-08 0 1.48333e-08
43 3 0.001 0.00635669 0 -0.0257986 -6.97594e-09 0 -4.59659e-09 0 1.20201e-08
42 3 0.001 0.00671242 0 -0.0263202 6.89861e-10 0 6.54976e-10 0 1.25486e-08
41 3 0.001 0.00705077 0 -0.0268531 1.02078e-08 0 5.09412e-09 0 1.31033e-08
46 3 0.001 0.00520228 0 -0.0242974 8.08701e-10 0 8.10922e-10 0 1.06605e-08
45 3 0.001 0.00559994 0 -0.0247879 9.7057e-09 0 7.69111e-09 0 1.10706e-08
44 3 0.001 0.0059853 0 -0.0252881 -1.78022e-09 0 -1.20045e-09 0 1.15254e-08
48 3 0.001 0.00437661 0 -0.0233418 2.01904e-08 0 1.78389e-08 0 9.9897e-09
47 3 0.001 0.00479397 0 -0.0238157 -1.88198e-08 0 -1.60961e-08 0 1.02992e-08
49 3 0.001 0.00395179 0 -0.0228745 1.01304e-09 0 5.99014e-10 0 9.73409e-09
51 3 0.001 0.00308587 0 -0.0219549 4.06721e-08 0 3.88373e-08 0 9.39046e-09
52 3 0.001 0.00264778 0 -0.0215 -3.86231e-08 0 -3.71836e-08 0 9.30419e-09
50 3 0.001 0.00352104 0 -0.0224126 -2.76749e-08 0 -2.64417e-08 0 9.53398e-09
55 3 0.001 0.0013306 0 -0.0201379 3.25301e-08 0 3.09752e-08 0 9.39138e-09
54 3 0.001 0.00176868 0 -0.0205929 -2.76866e-08 0 -2.6481e-08 0 9.30465e-09
56 3 0.001 0.000895463 0 -0.0196802 -2.71661e-08 0 -2.63845e-08 0 9.53536e-09
53 3 0.001 0.00220822 0 -0.0210464 3.05966e-08 0 3.02872e-08 0 9.27555e-09
58 3 0.001 3.99846e-05 0 -0.018751 2.63262e-08 0 2.31047e-08 0 9.99195e-09
57 3 0.001 0.000464754 0 -0.0192183 3.30162e-09 0 4.09679e-09 0 9.7359e-09
59 3 0.001 -0.000377304 0 -0.018277 -4.17636e-08 0 -3.69452e-08 0 1.03019e-08
61 3 0.001 -0.0011831 0 -0.0173046 -5.93386e-09 0 -4.93229e-09 0 1.1074e-08
62 3 0.001 -0.00156836 0 -0.0168044 1.65671e-09 0 1.49529e-09 0 1.15292e-08
60 3 0.001 -0.000785536 0 -0.0177952 2.83763e-08 0 2.4188e-08 0 1.06636e-08
65 3 0.001 -0.00263344 0 -0.015239 -1.3331e-08 0 -7.84489e-09 0 1.31078e-08
63 3 0.001 -0.00193964 0 -0.0162937 -7.27488e-09 0 -5.08326e-09 0 1.20242e-08
64 3 0.001 -0.00229523 0 -0.0157721 1.03125e-08 0 6.55609e-09 0 1.25529e-08
66 3 0.001 -0.00295254 0 -0.0146944 1.55824e-08 0 8.42283e-09 0 1.36804e-08
67 3 0.001 -0.00325085 0 -0.0141382 -1.30544e-08 0 -6.85664e-09 0 1.42607e-08
69 3 0.001 -0.00377851 0 -0.0129918 1.34634e-08 0 4.95263e-09 0 1.54003e-08
68 3 0.001 -0.00352671 0 -0.0135705 3.99169e-09 0 2.31036e-09 0 1.48379e-08
70 3 0.001 -0.00400473 0 -0.0124027 -3.23763e-08 0 -1.13225e-08 0 1.59356e-08
71 3 0.001 -0.00420395 0 -0.0118039 4.39214e-08 0 1.32822e-08 0 1.64314e-08
72 3 0.001 -0.00437487 0 -0.0111965 -3.77946e-08 0 -9.31595e-09 0 1.68755e-08
74 3 0.001 -0.00462747 0 -0.00996057 4.28724e-08 0 4.08646e-09 0 1.75646e-08
73 3 0.001 -0.00451637 0 -0.0105816 3.55146e-09 0 2.00014e-09 0 1.72566e-08
75 3 0.001 -0.00470739 0 -0.00933473 -6.56687e-08 0 -6.61871e-09 0 1.7791e-08
76 3 0.001 -0.00475557 0 -0.00870567 4.89674e-08 0 4.24297e-09 0 1.79295e-08
77 3 0.001 -0.00477167 0 -0.00807498 -5.51773e-09 0 -7.49657e-10 0 1.79761e-08
78 3 0.001 -0.00475558 0 -0.00744429 -2.98857e-08 0 1.95653e-09 0 1.79295e-08
79 3 0.001 -0.0047074 0 -0.00681522 3.38356e-08 0 -3.73991e-09 0 1.77911e-08
80 3 0.001 -0.00462748 0 -0.00618939 -1.46957e-08 0 1.20168e-09 0 1.75647e-08
81 3 0.001 -0.00451639 0 -0.00556831 -1.32021e-08 0 3.4868e-09 0 1.72567e-08
82 3 0.001 -0.00437489 0 -0.00495342 2.92143e-08 0 -7.05126e-09 0 1.68756e-08
83 3 0.001 -0.00420397 0 -0.00434602 -1.60073e-08 0 4.30232e-09 0 1.64315e-08
84 3 0.001 -0.00400475 0 -0.00374727 -1.88369e-09 0 8.24679e-10 0 1.59357e-08
85 3 0.001 -0.00377854 0 -0.00315815 -1.8897e-09 0 1.35714e-09 0 1.54005e-08
86 3 0.001 -0.00352674 0 -0.00257946 1.72623e-08 0 -8.44052e-09 0 1.48381e-08
87 3 0.001 -0.00325089 0 -0.00201179 -2.89712e-08 0 1.51468e-08 0 1.42609e-08
88 3 0.001 -0.00295258 0 -0.00145555 2.97741e-08 0 -1.66524e-08 0 1.36806e-08
89 3 0.001 -0.00263348 0 -0.000910913 -1.37861e-08 0 7.37543e-09 0 1.3108e-08
90 3 0.001 -0.00229528 0 -0.000377877 -9.17333e-09 0 7.24525e-09 0 1.25531e-08
91 3 0.001 -0.00193968 0 0.000143773 2.54163e-08 0 -1.75756e-08 0 1.20244e-08
92 3 0.001 -0.00156841 0 0.000654434 -2.83529e-08 0 2.01805e-08 0 1.15294e-08
93 3 0.001 -0.00118315 0 0.00115468 1.58531e-08 0 -1.27638e-08 0 1.10742e-08
94 3 0.001 -0.000785583 0 0.00164525 -1.2694e-09 0 9.48838e-10 0 1.06638e-08
95 3 0.001 -0.000377352 0 0.00212703 -1.21663e-09 0 2.01927e-09 0 1.03021e-08
96 3 0.001 3.99363e-05 0 0.00260102 -5.99189e-10 0 1.079e-09 0 9.99211e-09
97 3 0.001 0.000464705 0 0.00306835 -4.92002e-09 0 3.95144e-09 0 9.73606e-09
98 3 0.001 0.000895415 0 0.00353025 1.78976e-08 0 -1.73335e-08 0 9.5355e-09
99 3 0.001 0.00133055 0 0.003988 -2.9693e-08 0 2.8206e-08 0 9.39152e-09
100 3 0.001 0.00176863 0 0.00444295 3.22117e-08 0 -3.05432e-08 0 9.30479e-09
101 3 0.001 0.00220818 0 0.00489649 -2.45578e-08 0 2.47547e-08 0 9.27569e-09
102 3 0.001 0.00264773 0 0.00535002 1.09169e-08 0 -1.13121e-08 0 9.30433e-09
103 3 0.001 0.00308583 0 0.00580495 -1.62654e-10 0 -6.71547e-10 0 9.3906e-09
104 3 0.001 0.00352099 0 0.00626267 -4.94093e-10 0 3.48392e-10 0 9.53412e-09
105 3 0.001 0.00395175 0 0.00672453 -1.39762e-09 0 2.47363e-09 0 9.73422e-09
106 3 0.001 0.00437657 0 0.00719181 -1.22411e-09 0 1.68119e-09 0 9.98984e-09
107 3 0.001 0.00479393 0 0.00766575 5.51578e-09 0 -6.03729e-09 0 1.02994e-08
108 3 0.001 0.00520224 0 0.00814745 -1.68671e-08 0 1.3133e-08 0 1.06607e-08
109 3 0.001 0.0055999 0 0.00863795 3.52255e-08 0 -2.636e-08 0 1.10707e-08
110 3 0.001 0.00598527 0 0.00913811 -4.1179e-08 0 3.16611e-08 0 1.15256e-08
111 3 0.001 0.00635666 0 0.00964868 2.43331e-08 0 -1.86771e-08 0 1.20203e-08
112 3 0.001 0.00671239 0 0.0101702 -1.93593e-09 0 1.00107e-09 0 1.25488e-08
113 3 0.001 0.00705075 0 0.0107032 2.31376e-09 0 -4.00562e-10 0 1.31035e-08
114 3 0.001 0.00737001 0 0.0112477 -2.18179e-08 0 1.17431e-08 0 1.3676e-08
115 3 0.001 0.0076685 0 0.0118039 2.04034e-08 0 -1.08353e-08 0 1.42563e-08
116 3 0.001 0.00794454 0 0.0123714 8.8075e-09 0 -2.25426e-09 0 1.48336e-08
117 3 0.001 0.00819654 0 0.01295 -2.42802e-08 0 9.42784e-09 0 1.53962e-08
118 3 0.001 0.00842298 0 0.0135391 1.37343e-08 0 -6.45767e-09 0 1.59317e-08
119 3 0.001 0.00862242 0 0.0141378 -4.58747e-09 0 1.13233e-09 0 1.64279e-08
120 3 0.001 0.00879358 0 0.0147451 1.43784e-08 0 -2.32658e-09 0 1.68725e-08
121 3 0.001 0.00893532 0 0.0153599 -3.19862e-08 0 7.15575e-09 0 1.72542e-08
122 3 0.001 0.00904667 0 0.015981 2.93066e-08 0 -5.47513e-09 0 1.75518e-08
123 3 0.001 0.00912684 0 0.0166068 -8.16847e-09 0 8.37463e-10 0 1.77423e-08
124 3 0.001 0.00917527 0 0.0172358 2.1487e-10 0 -1.39864e-10 0 1.78639e-08
125 3 0.001 0.00919153 0 0.0178665 -1.92201e-08 0 -5.52298e-10 0 1.79949e-08
126 3 0.001 0.00917532 0 0.0184972 5.52741e-08 0 4.38492e-09 0 1.81678e-08
127 3 0.001 0.00912646 0 0.0191262 -7.89976e-08 0 -8.47585e-09 0 1.83472e-08
128 3 0.001 0.00904491 0 0.0197517 6.08201e-08 0 8.1854e-09 0 1.8447e-08
129 3 0.001 0.00893082 0 0.0203722 -9.56535e-09 0 -7.09611e-10 0 1.84205e-08
130 3 0.001 0.00878454 0 0.0209859 -3.82168e-08 0 -1.11048e-08 0 1.82841e-08
131 3 0.001 0.00860667 0 0.0215912 5.72714e-08 0 1.90466e-08 0 1.80526e-08
132 3 0.001 0.00839804 0 0.0221866 -4.59349e-08 0 -1.67267e-08 0 1.77326e-08
133 3 0.001 0.00815965 0 0.0227707 1.89275e-08 0 6.83247e-09 0 1.73332e-08
134 3 0.001 0.00789271 0 0.0233425 1.07105e-09 0 8.71718e-10 0 1.68653e-08
137 3 0.001 0.00693472 0 0.0249737 -1.4464e-08 0 -1.08907e-08 0 1.5177e-08
135 3 0.001 0.00759857 0 0.0239007 -3.81622e-09 0 -1.67398e-09 0 1.63411e-08
136 3 0.001 0.00727872 0 0.0244447 5.00643e-09 0 3.38298e-09 0 1.57738e-08
138 3 0.001 0.00656825 0 0.0254875 1.79823e-08 0 1.3221e-08 0 1.45638e-08
139 3 0.001 0.006181 0 0.0259859 -1.17886e-08 0 -8.32417e-09 0 1.39471e-08
140 3 0.001 0.0057747 0 0.026469 1.16864e-08 0 1.03801e-08 0 1.33387e-08
141 3 0.001 0.00535107 0 0.026937 -2.34258e-08 0 -2.30306e-08 0 1.27491e-08
142 3 0.001 0.00491183 0 0.0273905 3.15164e-08 0 3.15399e-08 0 1.21877e-08
143 3 0.001 0.00445864 0 0.02783 -2.23591e-08 0 -2.27237e-08 0 1.16623e-08
145 3 0.001 0.00351688 0 0.0286712 -4.6666e-09 0 -6.65673e-09 0 1.07445e-08
146 3 0.001 0.0030314 0 0.029075 5.96552e-09 0 7.7266e-09 0 1.03615e-08
147 3 0.001 0.00253814 0 0.0294693 -4.35285e-09 0 -4.97652e-09 0 1.00335e-08
144 3 0.001 0.00399314 0 0.0282566 8.26213e-09 0 8.93388e-09 0 1.11795e-08
151 3 0.001 0.00051391 0 0.0309817 1.17695e-08 0 1.51676e-08 0 3.41094e-09
148 3 0.001 0.00203849 0 0.0298556 -4.36483e-09 0 -5.52467e-09 0 9.76269e-09
149 3 0.001 0.00153381 0 0.0302352 1.76024e-08 0 2.44899e-08 0 9.36666e-09
150 3 0.001 0.00102536 0 0.0306099 -2.10932e-08 0 -2.99329e-08 0 6.26975e-09
2 2 0.001 0 0 0.03135 -0.00242019 0 0.0147693 0 1.68693e-09
