ITEM: TIMESTEP
8800000
ITEM: NUMBER OF ATOMS
151
ITEM: BOX BOUNDS ff ff ff
-1.0000000000000000e-02 1.0000000000000000e-02
-6.0000000000000001e-03 6.0000000000000001e-03
-5.2499999999999998e-02 5.2499999999999998e-02
ITEM: ATOMS id type radius x y z fx fy fz c_bendingE c_stretchingE
1 1 0.001 0 0 -0.0475 -0.00220756 0 -0.0147111 0 1.54902e-09
3 3 0.001 0.000516052 0 -0.0471346 8.48461e-10 0 -9.22578e-10 0 3.13449e-09
4 3 0.001 0.00102963 0 -0.0467657 -2.16826e-09 0 2.49878e-09 0 5.90541e-09
5 3 0.001 0.0015402 0 -0.0463939 3.00977e-09 0 -4.08594e-09 0 8.91024e-09
6 3 0.001 0.00204697 0 -0.0460169 -2.58882e-09 0 3.62279e-09 0 9.30177e-09
7 3 0.001 0.00254868 0 -0.0456333 -4.52167e-11 0 4.4847e-11 0 9.57341e-09
8 3 0.001 0.00304396 0 -0.0452414 1.62999e-09 0 -1.64014e-09 0 9.9029e-09
9 3 0.001 0.00353141 0 -0.0448399 1.82599e-09 0 -2.06648e-09 0 1.02882e-08
10 3 0.001 0.00400954 0 -0.0444275 -6.74068e-09 0 6.88914e-09 0 1.07266e-08
11 3 0.001 0.00447683 0 -0.0440028 8.67621e-09 0 -9.68242e-09 0 1.12141e-08
12 3 0.001 0.00493169 0 -0.0435649 -8.18841e-09 0 8.8654e-09 0 1.17457e-08
13 3 0.001 0.00537244 0 -0.0431129 6.60494e-09 0 -5.69457e-09 0 1.23152e-08
14 3 0.001 0.00579739 0 -0.042646 -4.36595e-09 0 3.75825e-09 0 1.29147e-08
15 3 0.001 0.0062048 0 -0.0421638 1.29993e-09 0 -1.48335e-09 0 1.3535e-08
16 3 0.001 0.00659289 0 -0.041666 2.32992e-09 0 -2.04764e-09 0 1.41655e-08
17 3 0.001 0.00695991 0 -0.0411526 -4.45911e-09 0 3.15009e-09 0 1.47944e-08
18 3 0.001 0.00730409 0 -0.0406236 3.76743e-09 0 -1.74528e-09 0 1.54085e-08
19 3 0.001 0.00762374 0 -0.0400795 -1.28776e-09 0 6.77874e-10 0 1.59944e-08
20 3 0.001 0.00791723 0 -0.0395209 -7.57532e-10 0 -1.28816e-10 0 1.65381e-08
21 3 0.001 0.00818303 0 -0.0389486 1.12873e-09 0 -5.36933e-10 0 1.7026e-08
22 3 0.001 0.00841974 0 -0.0383637 -4.49663e-10 0 3.51098e-10 0 1.74451e-08
23 3 0.001 0.00862612 0 -0.0377675 -1.69441e-09 0 5.88127e-10 0 1.77841e-08
24 3 0.001 0.00880112 0 -0.0371614 6.5557e-09 0 -1.48787e-09 0 1.80332e-08
25 3 0.001 0.00894389 0 -0.0365469 -1.12561e-08 0 2.109e-09 0 1.81853e-08
26 3 0.001 0.00905379 0 -0.0359256 1.12796e-08 0 -1.96921e-09 0 1.82227e-08
27 3 0.001 0.00913046 0 -0.0352994 -7.80093e-09 0 1.07455e-09 0 1.81347e-08
28 3 0.001 0.00917373 0 -0.03467 2.56797e-09 0 4.14407e-11 0 1.79756e-08
29 3 0.001 0.00918363 0 -0.0340392 2.50508e-09 0 -1.92492e-10 0 1.7825e-08
30 3 0.001 0.00916033 0 -0.0334087 -2.58127e-09 0 -2.39475e-10 0 1.77052e-08
31 3 0.001 0.00910415 0 -0.0327803 -1.30808e-09 0 -1.66829e-10 0 1.75707e-08
32 3 0.001 0.00901555 0 -0.0321556 4.19621e-09 0 8.10456e-10 0 1.73438e-08
33 3 0.001 0.00889515 0 -0.0315363 -3.2522e-09 0 -5.09126e-10 0 1.70087e-08
34 3 0.001 0.00874381 0 -0.0309237 -1.5843e-09 0 -7.02093e-10 0 1.65975e-08
35 3 0.001 0.00856258 0 -0.0303193 2.50342e-09 0 4.84687e-10 0 1.61235e-08
37 3 0.001 0.00811544 0 -0.0291394 -9.41623e-09 0 -3.84189e-09 0 1.5036e-08
36 3 0.001 0.00835266 0 -0.0297242 4.14631e-09 0 2.06767e-09 0 1.55987e-08
38 3 0.001 0.0078524 0 -0.0285657 9.24383e-09 0 4.24181e-09 0 1.44485e-08
39 3 0.001 0.00756513 0 -0.0280037 -9.03946e-09 0 -5.24616e-09 0 1.38488e-08
40 3 0.001 0.00725531 0 -0.0274537 1.01199e-08 0 5.98338e-09 0 1.32489e-08
43 3 0.001 0.00620782 0 -0.0258767 -5.11067e-09 0 -3.50302e-09 0 1.15527e-08
42 3 0.001 0.0065749 0 -0.0263904 6.0529e-09 0 4.35347e-09 0 1.20917e-08
41 3 0.001 0.00692465 0 -0.026916 -9.04257e-09 0 -5.55137e-09 0 1.26599e-08
46 3 0.001 0.0050199 0 -0.0244017 -1.38007e-09 0 -9.34494e-10 0 1.0177e-08
45 3 0.001 0.00542861 0 -0.0248831 -1.51383e-09 0 -1.59398e-09 0 1.059e-08
44 3 0.001 0.00582515 0 -0.0253745 5.15928e-09 0 3.62071e-09 0 1.10501e-08
48 3 0.001 0.00417259 0 -0.0234651 7.54607e-09 0 7.28795e-09 0 9.50566e-09
47 3 0.001 0.00460069 0 -0.0239294 -2.82648e-09 0 -2.60336e-09 0 9.81462e-09
49 3 0.001 0.00373718 0 -0.0230076 -4.51615e-09 0 -4.22761e-09 0 9.25202e-09
53 3 0.001 0.00195285 0 -0.021219 -5.20383e-10 0 -5.64327e-10 0 8.81096e-09
51 3 0.001 0.00285057 0 -0.0221078 3.85624e-09 0 3.84578e-09 0 8.91554e-09
52 3 0.001 0.00240237 0 -0.0216628 -5.17183e-10 0 -1.24712e-10 0 8.8341e-09
50 3 0.001 0.00329601 0 -0.0225556 -2.04778e-09 0 -2.53868e-09 0 9.05502e-09
55 3 0.001 0.00105574 0 -0.0203297 3.60871e-09 0 3.71471e-09 0 8.93973e-09
54 3 0.001 0.00150349 0 -0.0207751 -2.54787e-09 0 -2.9679e-09 0 8.84621e-09
56 3 0.001 0.000611067 0 -0.0198811 -5.87073e-10 0 -3.7244e-10 0 9.0912e-09
58 3 0.001 -0.000263058 0 -0.0189693 2.87865e-09 0 2.86391e-09 0 9.56528e-09
57 3 0.001 0.000170963 0 -0.0194281 -2.72462e-09 0 -2.87744e-09 0 9.30003e-09
59 3 0.001 -0.000689445 0 -0.0185034 1.93089e-09 0 1.80199e-09 0 9.8855e-09
61 3 0.001 -0.00151293 0 -0.0175459 4.61289e-09 0 3.97326e-09 0 1.06818e-08
62 3 0.001 -0.00190673 0 -0.0170523 3.32814e-10 0 9.11666e-11 0 1.11511e-08
60 3 0.001 -0.00110661 0 -0.0180293 -6.40984e-09 0 -5.80487e-09 0 1.02586e-08
65 3 0.001 -0.00299587 0 -0.0155036 -5.5795e-09 0 -3.21541e-09 0 1.27808e-08
64 3 0.001 -0.00264994 0 -0.0160316 3.53342e-09 0 2.58883e-09 0 1.22075e-08
63 3 0.001 -0.00228631 0 -0.0165478 -2.75441e-09 0 -2.25494e-09 0 1.16618e-08
66 3 0.001 -0.00332235 0 -0.0149633 8.13629e-09 0 4.5512e-09 0 1.33729e-08
67 3 0.001 -0.00362763 0 -0.0144108 -6.15529e-09 0 -3.65435e-09 0 1.39737e-08
68 3 0.001 -0.00391 0 -0.0138463 1.19011e-09 0 7.72725e-10 0 1.45719e-08
70 3 0.001 -0.00439949 0 -0.0126833 2.38043e-09 0 7.3413e-10 0 1.57112e-08
69 3 0.001 -0.00416781 0 -0.0132703 8.57993e-11 0 1.90168e-10 0 1.51553e-08
71 3 0.001 -0.00460356 0 -0.0120861 -3.97987e-09 0 -1.15198e-09 0 1.62265e-08
72 3 0.001 -0.00477868 0 -0.0114799 4.52709e-09 0 9.92988e-10 0 1.66885e-08
73 3 0.001 -0.00492368 0 -0.0108658 -2.67785e-09 0 -6.06078e-10 0 1.70852e-08
74 3 0.001 -0.00503754 0 -0.0102452 -2.64407e-09 0 3.43474e-11 0 1.7406e-08
75 3 0.001 -0.00511946 0 -0.00961965 8.28296e-09 0 4.44209e-10 0 1.76419e-08
76 3 0.001 -0.00516885 0 -0.00899067 -8.43136e-09 0 -5.43302e-10 0 1.77863e-08
77 3 0.001 -0.00518535 0 -0.00835998 2.31579e-09 0 5.14737e-10 0 1.78349e-08
78 3 0.001 -0.00516885 0 -0.00772929 2.33854e-09 0 -3.29331e-10 0 1.77863e-08
79 3 0.001 -0.00511946 0 -0.00710031 -1.0096e-09 0 -2.31646e-10 0 1.7642e-08
80 3 0.001 -0.00503755 0 -0.00647472 5.65764e-10 0 -7.40636e-11 0 1.74061e-08
81 3 0.001 -0.00492369 0 -0.00585413 -4.75996e-09 0 1.25457e-09 0 1.70854e-08
82 3 0.001 -0.0047787 0 -0.00524005 1.05487e-08 0 -2.83937e-09 0 1.66886e-08
83 3 0.001 -0.00460358 0 -0.00463383 -1.29798e-08 0 4.3647e-09 0 1.62266e-08
84 3 0.001 -0.00439951 0 -0.0040367 1.00659e-08 0 -3.53559e-09 0 1.57113e-08
85 3 0.001 -0.00416784 0 -0.00344969 -2.57523e-09 0 3.90305e-10 0 1.51555e-08
86 3 0.001 -0.00391003 0 -0.00287363 -4.62827e-09 0 2.36513e-09 0 1.45721e-08
87 3 0.001 -0.00362766 0 -0.00230915 5.82094e-09 0 -2.78004e-09 0 1.39739e-08
88 3 0.001 -0.00332239 0 -0.00175667 -1.98988e-09 0 1.01475e-09 0 1.33731e-08
89 3 0.001 -0.00299591 0 -0.00121639 -9.94118e-10 0 9.38463e-10 0 1.2781e-08
90 3 0.001 -0.00264998 0 -0.000688304 1.77252e-09 0 -1.27462e-09 0 1.22077e-08
91 3 0.001 -0.00228635 0 -0.000172188 -1.01934e-09 0 3.68847e-10 0 1.16619e-08
92 3 0.001 -0.00190677 0 0.000332369 -1.18696e-09 0 1.02162e-09 0 1.11513e-08
93 3 0.001 -0.00151297 0 0.000825962 6.3497e-09 0 -5.13956e-09 0 1.06819e-08
94 3 0.001 -0.00110666 0 0.00130936 -1.2101e-08 0 1.06993e-08 0 1.02588e-08
95 3 0.001 -0.000689493 0 0.00178347 1.24336e-08 0 -1.11102e-08 0 9.88566e-09
96 3 0.001 -0.000263106 0 0.00224934 -5.70684e-09 0 5.151e-09 0 9.56543e-09
97 3 0.001 0.000170915 0 0.00270815 -3.4598e-09 0 3.26983e-09 0 9.30018e-09
98 3 0.001 0.000611019 0 0.00316116 9.10702e-09 0 -9.05766e-09 0 9.09134e-09
99 3 0.001 0.00105569 0 0.00360971 -7.59999e-09 0 7.76114e-09 0 8.93987e-09
100 3 0.001 0.00150344 0 0.00405521 3.18734e-09 0 -3.16492e-09 0 8.84634e-09
101 3 0.001 0.00195281 0 0.00449909 -9.72802e-10 0 1.09303e-09 0 8.81109e-09
102 3 0.001 0.00240232 0 0.00494281 1.97489e-09 0 -1.78903e-09 0 8.83423e-09
103 3 0.001 0.00285053 0 0.00538785 -4.99873e-09 0 4.68494e-09 0 8.91567e-09
104 3 0.001 0.00329596 0 0.00583565 7.0757e-09 0 -7.04411e-09 0 9.05515e-09
105 3 0.001 0.00373714 0 0.00628762 -6.61506e-09 0 6.54804e-09 0 9.25215e-09
106 3 0.001 0.00417255 0 0.00674512 4.32668e-09 0 -4.1511e-09 0 9.50579e-09
107 3 0.001 0.00460065 0 0.00720943 -1.29136e-09 0 1.37434e-09 0 9.81475e-09
108 3 0.001 0.00501987 0 0.00768174 1.30915e-09 0 -1.02893e-09 0 1.01771e-08
109 3 0.001 0.00542857 0 0.00816312 -4.94062e-09 0 3.81507e-09 0 1.05902e-08
110 3 0.001 0.00582511 0 0.00865452 7.56084e-09 0 -6.10984e-09 0 1.10503e-08
111 3 0.001 0.00620779 0 0.00915675 -5.44792e-09 0 4.2848e-09 0 1.15528e-08
112 3 0.001 0.00657488 0 0.00967042 -6.36388e-10 0 4.96209e-10 0 1.20919e-08
113 3 0.001 0.00692463 0 0.010196 5.89568e-09 0 -3.75545e-09 0 1.26602e-08
114 3 0.001 0.00725529 0 0.0107337 -7.73791e-09 0 4.6464e-09 0 1.32492e-08
115 3 0.001 0.00756511 0 0.0112837 6.57866e-09 0 -3.80882e-09 0 1.38491e-08
116 3 0.001 0.00785238 0 0.0118457 -1.05104e-09 0 5.5692e-10 0 1.44488e-08
117 3 0.001 0.00811542 0 0.0124194 -6.4619e-09 0 3.01388e-09 0 1.50363e-08
118 3 0.001 0.00835265 0 0.0130042 1.0087e-08 0 -3.94732e-09 0 1.5599e-08
119 3 0.001 0.00856257 0 0.0135993 -7.84078e-09 0 2.37568e-09 0 1.61238e-08
120 3 0.001 0.00874381 0 0.0142037 1.36155e-09 0 -3.92815e-10 0 1.65979e-08
121 3 0.001 0.00889515 0 0.0148163 3.52269e-09 0 -5.06432e-10 0 1.70091e-08
122 3 0.001 0.00901555 0 0.0154356 -2.34441e-09 0 6.50104e-10 0 1.73441e-08
123 3 0.001 0.00910415 0 0.0160603 -1.71555e-09 0 -3.34762e-11 0 1.75711e-08
124 3 0.001 0.00916034 0 0.0166887 2.30442e-09 0 -5.30636e-10 0 1.77056e-08
125 3 0.001 0.00918363 0 0.0173192 4.67118e-09 0 6.89116e-11 0 1.78255e-08
126 3 0.001 0.00917374 0 0.01795 -1.47702e-08 0 -6.39792e-10 0 1.79761e-08
127 3 0.001 0.00913047 0 0.0185795 1.71553e-08 0 1.93593e-09 0 1.81352e-08
128 3 0.001 0.00905381 0 0.0192057 -9.82827e-09 0 -1.36428e-09 0 1.82232e-08
129 3 0.001 0.00894391 0 0.0198269 2.04768e-10 0 -4.00285e-10 0 1.81859e-08
130 3 0.001 0.00880114 0 0.0204414 5.4421e-09 0 1.63476e-09 0 1.80338e-08
132 3 0.001 0.00841976 0 0.0216438 7.67951e-10 0 2.28862e-10 0 1.74458e-08
131 3 0.001 0.00862615 0 0.0210476 -5.08958e-09 0 -1.51509e-09 0 1.77847e-08
133 3 0.001 0.00818305 0 0.0222286 1.9339e-09 0 7.57357e-10 0 1.70266e-08
134 3 0.001 0.00791726 0 0.0228009 5.37802e-10 0 1.56204e-10 0 1.65387e-08
135 3 0.001 0.00762377 0 0.0233595 -4.77428e-09 0 -2.65454e-09 0 1.5995e-08
138 3 0.001 0.00659292 0 0.0249461 -4.92466e-09 0 -3.91335e-09 0 1.41661e-08
137 3 0.001 0.00695993 0 0.0244326 1.88688e-09 0 1.70194e-09 0 1.4795e-08
136 3 0.001 0.00730412 0 0.0239036 3.97087e-09 0 2.60947e-09 0 1.54091e-08
141 3 0.001 0.00537246 0 0.0263929 6.81759e-09 0 7.12944e-09 0 1.23157e-08
139 3 0.001 0.00620482 0 0.0254439 2.66186e-09 0 1.5943e-09 0 1.35356e-08
140 3 0.001 0.00579742 0 0.025926 -2.07718e-09 0 -2.06026e-09 0 1.29153e-08
142 3 0.001 0.00493171 0 0.0268449 -1.10983e-08 0 -1.05412e-08 0 1.17463e-08
143 3 0.001 0.00447685 0 0.0272828 9.47441e-09 0 9.6621e-09 0 1.12146e-08
144 3 0.001 0.00400956 0 0.0277075 -4.69256e-09 0 -5.8634e-09 0 1.07271e-08
148 3 0.001 0.00204698 0 0.0292969 2.74404e-10 0 8.31077e-10 0 9.30219e-09
145 3 0.001 0.00353142 0 0.02812 5.7756e-10 0 6.93412e-10 0 1.02887e-08
146 3 0.001 0.00304397 0 0.0285215 2.36626e-09 0 3.03927e-09 0 9.90334e-09
147 3 0.001 0.00254869 0 0.0289133 -2.6239e-09 0 -3.1332e-09 0 9.57383e-09
151 3 0.001 0.000516054 0 0.0304146 3.73075e-10 0 4.64665e-10 0 3.13473e-09
2 2 0.001 0 0 0.03078 -0.00220773 0 0.0147114 0 1.54913e-09
149 3 0.001 0.0015402 0 0.0296739 1.06973e-09 0 1.22837e-09 0 8.91065e-09
150 3 0.001 0.00102964 0 0.0300457 -6.69786e-10 0 -1.43394e-09 0 5.90572e-09
