ITEM: TIMESTEP
4300000
ITEM: NUMBER OF ATOMS
151
ITEM: BOX BOUNDS ff ff ff
-1.0000000000000000e-02 1.0000000000000000e-02
-6.0000000000000001e-03 6.0000000000000001e-03
-5.2499999999999998e-02 5.2499999999999998e-02
ITEM: ATOMS id type radius x y z fx fy fz c_bendingE c_stretchingE
1 1 0.001 0 0 -0.0475 -0.00639868 0 -0.0172023 0 5.93934e-09
3 3 0.001 0.000472416 0 -0.0470812 -7.67392e-11 0 6.71111e-10 0 1.19245e-08
4 3 0.001 0.000942564 0 -0.0466598 -3.30815e-10 0 -9.29138e-11 0 1.66371e-08
5 3 0.001 0.00140995 0 -0.0462363 2.14233e-10 0 -9.55753e-11 0 2.16862e-08
6 3 0.001 0.00187391 0 -0.0458092 2.16704e-10 0 -4.38167e-10 0 2.21867e-08
7 3 0.001 0.0023333 0 -0.0453772 -8.2182e-10 0 7.08021e-10 0 2.24484e-08
8 3 0.001 0.00278696 0 -0.0449392 5.81146e-10 0 1.94699e-10 0 2.2759e-08
9 3 0.001 0.00323371 0 -0.0444941 -6.99324e-10 0 2.67875e-10 0 2.31129e-08
10 3 0.001 0.00367237 0 -0.0440412 5.249e-10 0 -7.09709e-10 0 2.35034e-08
11 3 0.001 0.00410171 0 -0.0435794 -1.6102e-09 0 1.67589e-09 0 2.3923e-08
12 3 0.001 0.00452054 0 -0.0431081 1.20289e-09 0 -1.29532e-09 0 2.43631e-08
13 3 0.001 0.00492765 0 -0.0426266 -1.71619e-09 0 1.99844e-09 0 2.48145e-08
14 3 0.001 0.00532183 0 -0.0421346 9.09648e-10 0 -7.32128e-10 0 2.52671e-08
15 3 0.001 0.00570191 0 -0.0416316 -1.11806e-09 0 5.3525e-10 0 2.57107e-08
16 3 0.001 0.00606674 0 -0.0411175 -2.27165e-10 0 5.21855e-10 0 2.61346e-08
17 3 0.001 0.00641522 0 -0.0405922 -5.2306e-10 0 1.52228e-10 0 2.65283e-08
18 3 0.001 0.00674631 0 -0.0400558 -7.70339e-10 0 8.27217e-10 0 2.6882e-08
19 3 0.001 0.00705904 0 -0.0395085 9.36806e-10 0 -6.74352e-11 0 2.71863e-08
20 3 0.001 0.00735253 0 -0.0389507 -1.90662e-09 0 6.1621e-10 0 2.74331e-08
21 3 0.001 0.00762602 0 -0.0383828 -9.49398e-11 0 4.17561e-10 0 2.76157e-08
22 3 0.001 0.00787887 0 -0.0378054 -8.21078e-10 0 5.88247e-10 0 2.77291e-08
23 3 0.001 0.00811055 0 -0.0372192 5.30508e-10 0 1.08682e-11 0 2.77699e-08
24 3 0.001 0.00832068 0 -0.036625 -1.79833e-09 0 1.19683e-09 0 2.77372e-08
25 3 0.001 0.00850906 0 -0.0360235 4.43899e-10 0 -2.4309e-10 0 2.76319e-08
26 3 0.001 0.0086756 0 -0.0354155 -4.4007e-10 0 4.8646e-10 0 2.74568e-08
27 3 0.001 0.00882041 0 -0.0348021 -6.60809e-10 0 5.98783e-10 0 2.72168e-08
28 3 0.001 0.00894374 0 -0.0341839 -5.75985e-10 0 8.98368e-11 0 2.69185e-08
29 3 0.001 0.009046 0 -0.0335619 -4.24024e-10 0 8.1037e-10 0 2.65565e-08
30 3 0.001 0.00912777 0 -0.0329368 2.83409e-10 0 3.19932e-10 0 2.61097e-08
31 3 0.001 0.00918975 0 -0.0323095 -1.01423e-09 0 2.47927e-10 0 2.56039e-08
32 3 0.001 0.00923271 0 -0.0316805 -2.83177e-10 0 5.99158e-10 0 2.51136e-08
33 3 0.001 0.00925744 0 -0.0310505 5.7386e-10 0 8.10128e-11 0 2.4701e-08
34 3 0.001 0.00926471 0 -0.0304201 -1.55512e-09 0 5.44806e-10 0 2.44006e-08
35 3 0.001 0.00925517 0 -0.0297896 4.72374e-10 0 6.07932e-10 0 2.42174e-08
36 3 0.001 0.00922944 0 -0.0291597 -6.00479e-11 0 1.86524e-10 0 2.41309e-08
37 3 0.001 0.00918802 0 -0.0285305 -1.28893e-09 0 5.49425e-10 0 2.41007e-08
38 3 0.001 0.00913135 0 -0.0279025 1.08467e-09 0 2.28866e-10 0 2.40747e-08
39 3 0.001 0.00905985 0 -0.0272761 -2.00376e-09 0 4.85174e-11 0 2.40031e-08
40 3 0.001 0.00897397 0 -0.0266514 1.37225e-09 0 1.2093e-09 0 2.38712e-08
41 3 0.001 0.00887421 0 -0.0260289 -1.71258e-09 0 -5.39428e-11 0 2.37052e-08
42 3 0.001 0.00876114 0 -0.0254085 1.78361e-10 0 4.49147e-10 0 2.35255e-08
43 3 0.001 0.00863541 0 -0.0247906 -1.17063e-09 0 1.47251e-10 0 2.33361e-08
44 3 0.001 0.00849772 0 -0.0241753 4.56605e-10 0 3.0612e-10 0 2.31412e-08
46 3 0.001 0.00818963 0 -0.0229524 -1.80048e-10 0 3.66245e-10 0 2.27516e-08
45 3 0.001 0.00834886 0 -0.0235625 -1.27002e-09 0 7.09875e-10 0 2.2945e-08
47 3 0.001 0.00802091 0 -0.0223448 -1.06807e-09 0 -4.38692e-11 0 2.2565e-08
48 3 0.001 0.00784361 0 -0.0217396 -2.59939e-10 0 6.02061e-10 0 2.23891e-08
49 3 0.001 0.00765867 0 -0.0211367 -8.43339e-10 0 -5.74173e-11 0 2.22273e-08
51 3 0.001 0.0072698 0 -0.0199369 -1.62369e-10 0 5.99917e-10 0 2.19586e-08
50 3 0.001 0.00746706 0 -0.0205359 -1.26425e-09 0 4.03206e-10 0 2.20829e-08
53 3 0.001 0.00686239 0 -0.0187432 -1.74769e-09 0 2.55626e-10 0 2.17793e-08
54 3 0.001 0.00665432 0 -0.0181479 7.86429e-11 0 4.64733e-10 0 2.17277e-08
52 3 0.001 0.0070679 0 -0.0193395 -1.00551e-09 0 -2.25777e-10 0 2.18567e-08
56 3 0.001 0.00623476 0 -0.0169584 1.45246e-09 0 1.27842e-09 0 2.17054e-08
55 3 0.001 0.00644476 0 -0.0175531 -2.68953e-09 0 -4.78791e-10 0 2.17029e-08
58 3 0.001 0.00581771 0 -0.015768 1.53575e-11 0 7.34288e-10 0 2.17914e-08
57 3 0.001 0.00602539 0 -0.0163635 -3.68669e-09 0 -1.22503e-09 0 2.17351e-08
59 3 0.001 0.00561278 0 -0.0151716 -8.35265e-10 0 3.45663e-10 0 2.18734e-08
61 3 0.001 0.00521532 0 -0.0139746 -1.81273e-09 0 2.68961e-10 0 2.21076e-08
60 3 0.001 0.00541164 0 -0.0145739 -2.02006e-09 0 -3.96561e-10 0 2.19794e-08
63 3 0.001 0.00484122 0 -0.0127701 -1.54098e-09 0 -1.58631e-10 0 2.242e-08
64 3 0.001 0.0046654 0 -0.0121645 -6.08013e-10 0 5.26443e-10 0 2.25981e-08
62 3 0.001 0.00502485 0 -0.0133734 -3.3174e-10 0 4.15191e-11 0 2.22554e-08
66 3 0.001 0.00434091 0 -0.0109458 6.619e-12 0 6.17983e-10 0 2.29804e-08
65 3 0.001 0.00449833 0 -0.0115565 -3.24926e-09 0 -7.77121e-10 0 2.27862e-08
67 3 0.001 0.004194 0 -0.0103326 -2.12679e-09 0 -6.99743e-11 0 2.31767e-08
68 3 0.001 0.00405842 0 -0.0097168 4.19716e-11 0 2.90179e-12 0 2.33709e-08
69 3 0.001 0.00393493 0 -0.00909846 -2.01979e-09 0 8.26276e-11 0 2.35588e-08
71 3 0.001 0.00372693 0 -0.00785473 -1.85501e-09 0 1.06174e-10 0 2.38995e-08
70 3 0.001 0.00382422 0 -0.00847771 -1.94918e-09 0 -3.35013e-10 0 2.37364e-08
72 3 0.001 0.00364362 0 -0.00722974 9.86177e-10 0 6.35019e-10 0 2.40445e-08
73 3 0.001 0.00357477 0 -0.006603 -3.14829e-09 0 -7.04711e-10 0 2.41681e-08
74 3 0.001 0.0035208 0 -0.00597481 -5.95518e-10 0 2.06935e-10 0 2.42674e-08
75 3 0.001 0.00348201 0 -0.0053455 -2.27346e-09 0 1.02873e-10 0 2.43401e-08
76 3 0.001 0.00345865 0 -0.00471543 -6.83262e-10 0 -6.59033e-11 0 2.43844e-08
77 3 0.001 0.00345085 0 -0.00408499 4.17569e-10 0 2.26972e-10 0 2.43993e-08
78 3 0.001 0.00345865 0 -0.00345454 -4.41452e-09 0 -3.0027e-10 0 2.43844e-08
79 3 0.001 0.00348201 0 -0.00282447 6.9711e-10 0 -3.3595e-11 0 2.43401e-08
80 3 0.001 0.00352079 0 -0.00219516 -2.80649e-09 0 4.24541e-10 0 2.42675e-08
81 3 0.001 0.00357476 0 -0.00156697 6.19102e-10 0 -4.78943e-10 0 2.41682e-08
82 3 0.001 0.0036436 0 -0.000940228 -2.6357e-09 0 3.7553e-10 0 2.40446e-08
83 3 0.001 0.00372691 0 -0.000315235 -1.65345e-09 0 -4.34727e-11 0 2.38996e-08
84 3 0.001 0.0038242 0 0.000307744 -1.00909e-10 0 -5.08004e-10 0 2.37365e-08
85 3 0.001 0.00393491 0 0.00092849 -2.45867e-09 0 6.31066e-10 0 2.3559e-08
86 3 0.001 0.0040584 0 0.00154683 -9.46519e-10 0 -2.15635e-10 0 2.3371e-08
87 3 0.001 0.00419398 0 0.00216264 -1.6553e-09 0 4.19673e-11 0 2.31768e-08
88 3 0.001 0.00434088 0 0.00277587 -3.41538e-11 0 -3.15454e-10 0 2.29805e-08
89 3 0.001 0.0044983 0 0.00338649 -3.33102e-09 0 1.68206e-10 0 2.27863e-08
90 3 0.001 0.00466537 0 0.00399455 2.04858e-10 0 6.04942e-12 0 2.25982e-08
91 3 0.001 0.00484119 0 0.00460016 -2.36424e-09 0 2.89878e-10 0 2.24201e-08
92 3 0.001 0.00502482 0 0.00520345 -5.21932e-10 0 -5.82178e-10 0 2.22556e-08
93 3 0.001 0.00521529 0 0.00580462 -1.71419e-09 0 3.39743e-10 0 2.21078e-08
94 3 0.001 0.0054116 0 0.00640393 -9.52723e-10 0 -4.73246e-10 0 2.19796e-08
95 3 0.001 0.00561274 0 0.00700163 -1.35589e-09 0 1.05157e-10 0 2.18736e-08
96 3 0.001 0.00581768 0 0.00759806 -1.19691e-09 0 1.89775e-10 0 2.17916e-08
97 3 0.001 0.00602536 0 0.00819354 -1.0947e-09 0 -4.43822e-10 0 2.17353e-08
98 3 0.001 0.00623473 0 0.00878842 -1.26087e-09 0 1.44672e-10 0 2.17056e-08
99 3 0.001 0.00644472 0 0.00938309 -1.3704e-09 0 -1.96146e-10 0 2.17031e-08
100 3 0.001 0.00665429 0 0.00997791 2.6031e-10 0 -8.17536e-10 0 2.17279e-08
101 3 0.001 0.00686235 0 0.0105733 -1.92323e-09 0 5.75342e-10 0 2.17795e-08
102 3 0.001 0.00706786 0 0.0111695 -8.58844e-10 0 -5.10485e-10 0 2.1857e-08
103 3 0.001 0.00726977 0 0.0117669 -1.2309e-09 0 -3.42237e-11 0 2.19588e-08
104 3 0.001 0.00746703 0 0.0123659 5.86482e-10 0 -5.25272e-10 0 2.20831e-08
105 3 0.001 0.00765864 0 0.0129667 -2.04085e-09 0 -2.35326e-10 0 2.22276e-08
106 3 0.001 0.00784358 0 0.0135696 3.06133e-10 0 -3.17247e-10 0 2.23894e-08
107 3 0.001 0.00802088 0 0.0141748 -1.27816e-09 0 -2.59476e-10 0 2.25653e-08
108 3 0.001 0.0081896 0 0.0147824 -3.9371e-11 0 -5.8795e-10 0 2.27519e-08
109 3 0.001 0.00834883 0 0.0153926 -1.1384e-09 0 1.95309e-10 0 2.29453e-08
110 3 0.001 0.0084977 0 0.0160053 -5.53255e-10 0 -6.97379e-10 0 2.31415e-08
111 3 0.001 0.00863539 0 0.0166207 5.93035e-13 0 -4.74994e-10 0 2.33365e-08
112 3 0.001 0.00876113 0 0.0172386 6.49004e-11 0 -3.32491e-10 0 2.35258e-08
113 3 0.001 0.0088742 0 0.0178589 -1.00943e-09 0 -4.37981e-10 0 2.37055e-08
114 3 0.001 0.00897396 0 0.0184815 -1.39241e-09 0 1.36008e-10 0 2.38716e-08
115 3 0.001 0.00905984 0 0.0191061 1.83155e-09 0 -9.51508e-10 0 2.40035e-08
116 3 0.001 0.00913134 0 0.0197326 -2.03486e-09 0 -5.24252e-10 0 2.40751e-08
117 3 0.001 0.00918801 0 0.0203605 1.95273e-09 0 -1.49457e-10 0 2.41011e-08
118 3 0.001 0.00922944 0 0.0209897 -3.62826e-09 0 -3.83471e-10 0 2.41313e-08
119 3 0.001 0.00925517 0 0.0216197 1.97449e-09 0 -3.70432e-10 0 2.42178e-08
120 3 0.001 0.00926471 0 0.0222501 -9.64978e-10 0 -4.12527e-10 0 2.4401e-08
121 3 0.001 0.00925745 0 0.0228805 2.75523e-10 0 -7.43013e-10 0 2.47014e-08
122 3 0.001 0.00923272 0 0.0235105 -1.19292e-10 0 4.39064e-11 0 2.5114e-08
123 3 0.001 0.00918976 0 0.0241395 -1.96611e-09 0 -6.85751e-10 0 2.56043e-08
124 3 0.001 0.00912779 0 0.0247669 1.00682e-09 0 -4.38054e-10 0 2.61103e-08
125 3 0.001 0.00904602 0 0.0253919 -4.48759e-10 0 -1.87755e-10 0 2.6557e-08
126 3 0.001 0.00894376 0 0.0260139 -2.43569e-10 0 -6.7346e-10 0 2.69191e-08
127 3 0.001 0.00882043 0 0.0266321 -1.65909e-09 0 -3.68371e-10 0 2.72174e-08
129 3 0.001 0.00850908 0 0.0278535 -8.38857e-10 0 -1.02732e-09 0 2.76326e-08
128 3 0.001 0.00867562 0 0.0272456 3.14024e-10 0 -9.97051e-11 0 2.74574e-08
130 3 0.001 0.00832071 0 0.028455 1.9173e-09 0 5.83244e-10 0 2.7738e-08
131 3 0.001 0.00811057 0 0.0290492 -3.9755e-09 0 -1.86875e-09 0 2.77707e-08
132 3 0.001 0.0078789 0 0.0296354 1.2752e-09 0 3.99741e-10 0 2.77298e-08
133 3 0.001 0.00762606 0 0.0302128 -1.36301e-09 0 -4.51943e-10 0 2.76165e-08
134 3 0.001 0.00735256 0 0.0307807 1.30336e-09 0 -6.7129e-12 0 2.7434e-08
135 3 0.001 0.00705907 0 0.0313385 -1.71934e-09 0 -9.50008e-10 0 2.71872e-08
136 3 0.001 0.00674634 0 0.0318858 -1.75628e-09 0 -1.24503e-09 0 2.68829e-08
137 3 0.001 0.00641525 0 0.0324222 2.01406e-09 0 8.63627e-10 0 2.65292e-08
140 3 0.001 0.00532186 0 0.0339646 -1.34605e-09 0 -1.28031e-09 0 2.52679e-08
138 3 0.001 0.00606677 0 0.0329476 -1.71458e-09 0 -6.54128e-10 0 2.61354e-08
139 3 0.001 0.00570194 0 0.0334617 1.21019e-10 0 -1.41093e-10 0 2.57115e-08
144 3 0.001 0.00367239 0 0.0358712 -1.9489e-09 0 -1.83238e-09 0 2.35042e-08
141 3 0.001 0.00492768 0 0.0344567 6.02903e-10 0 5.71776e-10 0 2.48153e-08
142 3 0.001 0.00452057 0 0.0349381 -3.31526e-10 0 -7.52129e-10 0 2.43639e-08
143 3 0.001 0.00410173 0 0.0354094 8.76647e-11 0 5.03456e-10 0 2.39238e-08
145 3 0.001 0.00323373 0 0.0363242 2.15254e-09 0 1.72525e-09 0 2.31136e-08
146 3 0.001 0.00278698 0 0.0367692 -2.11469e-09 0 -1.65692e-09 0 2.27598e-08
147 3 0.001 0.00233331 0 0.0372072 7.65593e-10 0 4.5538e-10 0 2.24491e-08
151 3 0.001 0.000472418 0 0.0389112 9.89185e-11 0 4.65298e-10 0 1.1925e-08
148 3 0.001 0.00187392 0 0.0376392 -2.56551e-10 0 -3.39022e-10 0 2.21874e-08
149 3 0.001 0.00140996 0 0.0380663 3.20432e-10 0 7.35005e-10 0 2.16869e-08
150 3 0.001 0.00094257 0 0.0384898 -5.24953e-10 0 -1.06334e-09 0 1.66377e-08
2 2 0.001 0 0 0.03933 -0.00639886 0 0.0172025 0 5.93959e-09
