ITEM: TIMESTEP
2200000
ITEM: NUMBER OF ATOMS
151
ITEM: BOX BOUNDS ff ff ff
-1.0000000000000000e-02 1.0000000000000000e-02
-6.0000000000000001e-03 6.0000000000000001e-03
-5.2499999999999998e-02 5.2499999999999998e-02
ITEM: ATOMS id type radius x y z fx fy fz c_bendingE c_stretchingE
3 3 0.001 0.000269501 0.000149735 -0.0469473 -4.85748e-06 7.07516e-06 5.46753e-07 0 7.19108e-10
1 1 0.001 0 0 -0.0475 -0.00162969 -0.000908842 -0.00710355 0 3.59437e-10
4 3 0.001 0.000538724 0.000299316 -0.0463945 8.54898e-06 -1.26411e-05 -6.74861e-07 0 2.32875e-09
5 3 0.001 0.000807118 0.000448435 -0.0458419 -8.07299e-06 1.31475e-05 3.23057e-07 0 4.05862e-09
6 3 0.001 0.00107467 0.000597087 -0.0452887 5.34078e-06 -1.04609e-05 1.1821e-07 0 4.18155e-09
7 3 0.001 0.00134111 0.000745127 -0.0447349 -3.0096e-06 6.00171e-06 -1.83709e-07 0 4.187e-09
8 3 0.001 0.00160618 0.000892403 -0.0441802 4.1883e-07 9.28818e-07 -3.45825e-07 0 4.19345e-09
9 3 0.001 0.00186961 0.00103876 -0.0436245 1.75586e-06 -6.70967e-06 1.02919e-06 0 4.20087e-09
10 3 0.001 0.00213111 0.00118406 -0.0430676 -3.23682e-06 9.23762e-06 -9.16171e-07 0 4.20935e-09
11 3 0.001 0.00239043 0.00132815 -0.0425094 4.51731e-06 -9.85954e-06 3.20273e-07 0 4.21885e-09
12 3 0.001 0.00264731 0.00147088 -0.0419497 -4.74857e-06 8.40603e-06 -3.27492e-08 0 4.2292e-09
13 3 0.001 0.00290148 0.00161211 -0.0413884 3.32539e-06 -5.31698e-06 -8.28719e-08 0 4.24018e-09
14 3 0.001 0.00315268 0.00175169 -0.0408254 -9.69711e-07 2.33445e-06 -7.97548e-09 0 4.25171e-09
15 3 0.001 0.00340068 0.0018895 -0.0402605 -9.28443e-07 3.30652e-07 3.32739e-07 0 4.26382e-09
16 3 0.001 0.00364521 0.00202538 -0.0396936 2.27938e-06 -3.91862e-06 -1.7933e-07 0 4.27651e-09
17 3 0.001 0.00388604 0.00215921 -0.0391246 -3.92403e-06 8.11443e-06 -3.42925e-07 0 4.28958e-09
18 3 0.001 0.00412294 0.00229085 -0.0385535 4.54799e-06 -1.00551e-05 4.87484e-07 0 4.30276e-09
19 3 0.001 0.00435567 0.00242019 -0.0379802 -2.78163e-06 7.94969e-06 -5.11014e-07 0 4.3159e-09
20 3 0.001 0.00458401 0.00254709 -0.0374046 1.08598e-07 -2.43642e-06 5.29074e-07 0 4.32903e-09
21 3 0.001 0.00480775 0.00267143 -0.0368266 2.41043e-06 -3.37532e-06 -3.28567e-07 0 4.34216e-09
22 3 0.001 0.00502669 0.00279312 -0.0362462 -3.99235e-06 6.30483e-06 5.56053e-08 0 4.35512e-09
23 3 0.001 0.00524063 0.00291203 -0.0356634 3.88402e-06 -7.48671e-06 1.27101e-07 0 4.36761e-09
24 3 0.001 0.00544939 0.00302806 -0.0350781 -3.98985e-06 8.55598e-06 -1.13995e-07 0 4.37945e-09
25 3 0.001 0.00565278 0.00314111 -0.0344903 4.15237e-06 -7.49367e-06 9.37161e-08 0 4.39064e-09
26 3 0.001 0.00585064 0.0032511 -0.0339001 -1.59032e-06 2.77524e-06 -7.71729e-08 0 4.40126e-09
27 3 0.001 0.00604282 0.00335794 -0.0333075 -1.73216e-06 2.26084e-06 -6.19588e-09 0 4.41121e-09
28 3 0.001 0.00622918 0.00346154 -0.0327124 2.27495e-06 -3.70194e-06 -9.03967e-08 0 4.4202e-09
29 3 0.001 0.00640958 0.00356184 -0.0321149 -1.41043e-06 3.56532e-06 -2.94042e-08 0 4.42804e-09
30 3 0.001 0.00658392 0.00365878 -0.0315151 5.13776e-07 -3.46323e-06 5.13653e-07 0 4.43474e-09
31 3 0.001 0.00675209 0.00375229 -0.030913 3.64962e-07 1.79205e-06 -4.1618e-07 0 4.44041e-09
32 3 0.001 0.00691399 0.00384233 -0.0303086 5.6076e-07 -3.00217e-07 -2.22133e-07 0 4.44503e-09
33 3 0.001 0.00706957 0.00392885 -0.0297021 -1.10951e-06 -6.9548e-07 3.10095e-07 0 4.44844e-09
34 3 0.001 0.00721876 0.00401183 -0.0290934 -6.43926e-07 2.60576e-06 -1.32664e-07 0 4.45048e-09
35 3 0.001 0.00736151 0.00409124 -0.0284828 1.3073e-06 -3.49785e-06 2.50428e-07 0 4.45115e-09
36 3 0.001 0.0074978 0.00416707 -0.0278702 -1.24685e-06 3.32053e-06 -1.10813e-07 0 4.45055e-09
37 3 0.001 0.00762761 0.0042393 -0.0272558 1.24053e-06 -2.6598e-06 -2.42974e-08 0 4.44878e-09
38 3 0.001 0.00775095 0.00430794 -0.0266396 8.60713e-07 1.34653e-06 -3.72762e-07 0 4.4458e-09
39 3 0.001 0.00786784 0.004373 -0.0260218 -2.63217e-06 -3.11969e-07 5.2004e-07 0 4.44156e-09
40 3 0.001 0.00797832 0.0044345 -0.0254025 1.95112e-06 -2.20243e-06 -7.82195e-08 0 4.43605e-09
41 3 0.001 0.00808243 0.00449246 -0.0247817 -1.9256e-06 5.5791e-06 -1.35149e-07 0 4.42938e-09
42 3 0.001 0.00818024 0.00454694 -0.0241596 3.62999e-06 -7.54463e-06 7.70278e-08 0 4.42168e-09
43 3 0.001 0.00827184 0.00459796 -0.0235362 -4.5348e-06 8.18375e-06 -6.76918e-08 0 4.41306e-09
44 3 0.001 0.00835733 0.00464559 -0.0229117 2.12726e-06 -4.54122e-06 2.04695e-08 0 4.40354e-09
45 3 0.001 0.00843681 0.0046899 -0.0222861 2.08669e-06 -1.70289e-06 -9.63034e-08 0 4.39315e-09
46 3 0.001 0.00851042 0.00473094 -0.0216596 -4.12929e-06 4.60627e-06 2.24207e-07 0 4.38199e-09
47 3 0.001 0.00857831 0.0047688 -0.0210323 5.00658e-06 -5.32127e-06 -2.14834e-07 0 4.37026e-09
48 3 0.001 0.00864062 0.00480358 -0.0204042 -5.47089e-06 6.69974e-06 1.17276e-07 0 4.35807e-09
49 3 0.001 0.00869754 0.00483535 -0.0197755 4.04555e-06 -8.18829e-06 6.55767e-09 0 4.34553e-09
50 3 0.001 0.00874924 0.00486424 -0.0191461 -1.53823e-06 6.6688e-06 -1.30267e-07 0 4.33266e-09
51 3 0.001 0.00879593 0.00489034 -0.0185162 -1.58812e-06 -7.36269e-07 1.93941e-07 0 4.31959e-09
52 3 0.001 0.00883782 0.00491378 -0.0178859 3.35983e-06 -4.97172e-06 -4.86971e-08 0 4.30653e-09
53 3 0.001 0.00887512 0.00493467 -0.0172552 -3.20675e-06 7.83375e-06 -1.10071e-07 0 4.29362e-09
54 3 0.001 0.00890808 0.00495315 -0.0166242 4.06211e-06 -8.51038e-06 1.24499e-08 0 4.28094e-09
55 3 0.001 0.00893693 0.00496936 -0.0159929 -5.16154e-06 6.89446e-06 7.19931e-08 0 4.26854e-09
56 3 0.001 0.00896192 0.00498342 -0.0153614 5.31653e-06 -5.09584e-06 -4.84852e-08 0 4.25654e-09
57 3 0.001 0.00898333 0.00499549 -0.0147298 -4.27112e-06 3.78217e-06 6.93178e-08 0 4.2451e-09
58 3 0.001 0.00900142 0.00500572 -0.0140979 7.25628e-07 -1.78136e-06 -3.42727e-08 0 4.23433e-09
59 3 0.001 0.00901646 0.00501426 -0.013466 2.57136e-06 -1.09833e-06 -4.85001e-08 0 4.22406e-09
60 3 0.001 0.00902875 0.00502127 -0.012834 -3.99988e-06 5.2738e-06 5.07523e-08 0 4.21423e-09
61 3 0.001 0.00903858 0.00502692 -0.012202 5.04548e-06 -8.03643e-06 9.80793e-09 0 4.20514e-09
62 3 0.001 0.00904622 0.00503134 -0.0115699 -4.98229e-06 7.22064e-06 -2.18764e-08 0 4.19716e-09
63 3 0.001 0.00905197 0.00503471 -0.0109378 3.56117e-06 -5.12431e-06 -3.54093e-08 0 4.19043e-09
64 3 0.001 0.0090561 0.00503717 -0.0103056 -8.95303e-07 1.91436e-06 2.09778e-08 0 4.18498e-09
65 3 0.001 0.00905885 0.00503886 -0.00967348 -1.72698e-06 1.8228e-06 5.10269e-08 0 4.18075e-09
66 3 0.001 0.00906049 0.00503992 -0.00904132 2.9926e-06 -3.96604e-06 2.45135e-09 0 4.17769e-09
67 3 0.001 0.00906123 0.00504047 -0.00840916 -4.42953e-06 5.65797e-06 -6.33733e-08 0 4.17569e-09
68 3 0.001 0.00906128 0.00504062 -0.007777 4.33189e-06 -5.93883e-06 -4.58838e-08 0 4.17455e-09
69 3 0.001 0.00906083 0.00504047 -0.00714484 -2.07286e-06 3.7077e-06 4.50269e-08 0 4.17398e-09
70 3 0.001 0.00906004 0.00504013 -0.00651268 1.19454e-06 -1.6404e-06 9.15794e-08 0 4.17382e-09
71 3 0.001 0.00905907 0.00503967 -0.00588052 -7.36481e-07 8.92799e-07 1.56457e-08 0 4.174e-09
72 3 0.001 0.00905804 0.00503916 -0.00524836 -1.50144e-07 -8.87255e-07 -9.34405e-08 0 4.17447e-09
73 3 0.001 0.00905703 0.00503866 -0.00461621 -1.86823e-07 -2.43178e-08 -9.13659e-08 0 4.1751e-09
74 3 0.001 0.00905616 0.00503823 -0.00398405 -2.55903e-07 1.82661e-06 2.81923e-08 0 4.17569e-09
75 3 0.001 0.00905549 0.00503788 -0.00335189 1.5609e-06 -2.08427e-06 1.1909e-07 0 4.1761e-09
76 3 0.001 0.00905506 0.00503767 -0.00271973 -2.56421e-06 2.068e-06 6.76059e-08 0 4.17639e-09
77 3 0.001 0.00905491 0.00503759 -0.00208757 3.63507e-06 -2.96525e-06 -6.87056e-08 0 4.17668e-09
78 3 0.001 0.00905505 0.00503767 -0.00145541 -2.22194e-06 2.61517e-06 -1.25651e-07 0 4.17696e-09
79 3 0.001 0.00905547 0.00503788 -0.000823249 -1.51998e-06 -7.42242e-08 -3.05012e-08 0 4.1771e-09
80 3 0.001 0.00905614 0.00503822 -0.00019109 3.8016e-06 -4.30645e-06 9.95711e-08 0 4.17701e-09
81 3 0.001 0.00905701 0.00503867 0.000441069 -3.98859e-06 7.76202e-06 1.15258e-07 0 4.17679e-09
82 3 0.001 0.00905802 0.00503918 0.00107323 3.05696e-06 -7.03843e-06 -4.12506e-09 0 4.17663e-09
83 3 0.001 0.00905908 0.0050397 0.00170539 -1.3345e-06 3.48376e-06 -1.18899e-07 0 4.17669e-09
84 3 0.001 0.00906009 0.00504018 0.00233754 -1.3005e-06 8.83991e-07 -9.58021e-08 0 4.17699e-09
85 3 0.001 0.00906093 0.00504056 0.0029697 3.54393e-06 -5.02925e-06 3.06921e-08 0 4.17751e-09
86 3 0.001 0.00906145 0.00504075 0.00360186 -3.57592e-06 7.82681e-06 1.25626e-07 0 4.17836e-09
87 3 0.001 0.00906149 0.00504065 0.00423402 2.92917e-06 -9.48017e-06 7.17365e-08 0 4.17982e-09
88 3 0.001 0.00906086 0.00504017 0.00486618 -1.8478e-06 7.75184e-06 -5.25278e-08 0 4.1822e-09
89 3 0.001 0.00905936 0.00503919 0.00549834 -1.20428e-06 -2.46317e-06 -1.31268e-07 0 4.18568e-09
90 3 0.001 0.00905675 0.00503758 0.00613049 3.30721e-06 -2.13586e-06 -3.6308e-08 0 4.19031e-09
91 3 0.001 0.00905281 0.00503522 0.00676263 -3.1187e-06 5.57305e-06 8.70653e-08 0 4.19609e-09
92 3 0.001 0.00904726 0.00503197 0.00739475 2.73189e-06 -7.05859e-06 9.77959e-08 0 4.20309e-09
93 3 0.001 0.00903984 0.00502767 0.00802685 -2.05122e-06 5.0227e-06 1.90351e-08 0 4.2114e-09
94 3 0.001 0.00903027 0.00502217 0.00865891 1.89366e-06 -3.46823e-06 -1.02199e-07 0 4.22095e-09
95 3 0.001 0.00901826 0.00501531 0.00929091 -2.17859e-06 3.23209e-06 -9.86241e-08 0 4.23136e-09
96 3 0.001 0.00900351 0.00500693 0.00992283 1.1518e-06 -9.40588e-07 4.15962e-08 0 4.24221e-09
97 3 0.001 0.00898574 0.00499688 0.0105547 5.67196e-07 -1.52224e-06 1.01376e-07 0 4.25344e-09
98 3 0.001 0.00896466 0.00498499 0.0111863 -2.39496e-06 2.32992e-06 1.56797e-08 0 4.26526e-09
99 3 0.001 0.00894002 0.00497112 0.0118178 3.32812e-06 -2.99687e-06 1.21538e-08 0 4.27775e-09
101 3 0.001 0.00887895 0.00493685 0.0130802 3.87505e-06 -4.05504e-06 7.19598e-08 0 4.30415e-09
100 3 0.001 0.00891153 0.00495512 0.0124491 -3.3479e-06 3.50646e-06 -1.61546e-07 0 4.29079e-09
102 3 0.001 0.00884202 0.00491616 0.0137109 -3.45455e-06 4.54151e-06 2.32757e-08 0 4.31763e-09
103 3 0.001 0.00880052 0.00489294 0.0143413 1.38135e-06 -3.17963e-06 3.35869e-08 0 4.33118e-09
105 3 0.001 0.00870291 0.00483838 0.0156006 -1.11204e-06 4.14319e-06 3.72274e-08 0 4.35833e-09
106 3 0.001 0.00864638 0.00480682 0.0162294 2.07264e-06 -6.47373e-06 -1.72857e-07 0 4.37162e-09
104 3 0.001 0.00875422 0.00486705 0.0149712 3.0692e-07 -3.02871e-07 -1.67072e-08 0 4.34478e-09
108 3 0.001 0.00851694 0.0047346 0.0174849 3.71673e-06 -5.16828e-06 1.52668e-07 0 4.39678e-09
107 3 0.001 0.00858445 0.00477225 0.0168575 -3.3688e-06 6.76175e-06 7.49164e-08 0 4.38447e-09
110 3 0.001 0.00836457 0.00464965 0.018737 1.49168e-07 -2.26892e-07 -4.85092e-08 0 4.41957e-09
109 3 0.001 0.0084437 0.00469376 0.0181114 -2.06231e-06 2.57708e-06 -7.05651e-08 0 4.4085e-09
111 3 0.001 0.00827943 0.00460221 0.0193616 7.76516e-07 -2.3803e-06 -1.15139e-07 0 4.42985e-09
113 3 0.001 0.00809066 0.00449707 0.0206072 2.49147e-06 -4.64993e-06 3.32613e-08 0 4.44744e-09
112 3 0.001 0.00818816 0.00455137 0.019985 -1.9413e-06 4.80832e-06 1.33551e-07 0 4.43917e-09
114 3 0.001 0.00798684 0.00443926 0.0212281 -1.72327e-06 3.14185e-06 1.26827e-08 0 4.45465e-09
115 3 0.001 0.00787664 0.00437791 0.0218475 8.83554e-07 -2.67448e-06 -1.52263e-07 0 4.46077e-09
117 3 0.001 0.00763688 0.00424447 0.0230816 -1.94908e-06 6.40275e-09 -3.91761e-07 0 4.46938e-09
116 3 0.001 0.00776 0.00431299 0.0224654 5.07129e-07 1.42116e-06 2.2615e-07 0 4.46571e-09
118 3 0.001 0.00750727 0.00417235 0.023696 1.34483e-06 6.93691e-07 4.08028e-07 0 4.47173e-09
119 3 0.001 0.00737115 0.00409662 0.0243087 -9.99521e-07 -8.62446e-08 -2.08609e-07 0 4.47278e-09
120 3 0.001 0.00722855 0.00401729 0.0249194 2.4127e-06 -3.21151e-06 1.40121e-07 0 4.47255e-09
122 3 0.001 0.00692399 0.0038479 0.0261346 -9.05356e-07 -4.05217e-06 -8.76976e-07 0 4.4683e-09
123 3 0.001 0.00676214 0.00375789 0.026739 2.49772e-06 1.76113e-06 9.47668e-07 0 4.46427e-09
121 3 0.001 0.00707948 0.00393438 0.025528 -1.89161e-06 4.89071e-06 1.84339e-07 0 4.47105e-09
124 3 0.001 0.006594 0.00366439 0.0273411 -1.49774e-06 1.9061e-06 -5.51089e-08 0 4.45898e-09
125 3 0.001 0.00641966 0.00356745 0.0279409 -1.10656e-08 -3.85452e-06 -6.11304e-07 0 4.45252e-09
127 3 0.001 0.00605279 0.00336349 0.0291334 1.9345e-06 -5.12578e-07 5.0374e-07 0 4.43652e-09
126 3 0.001 0.00623922 0.00346713 0.0285384 -5.63073e-07 2.68874e-06 2.5982e-07 0 4.44501e-09
128 3 0.001 0.00586051 0.00325659 0.029726 -1.47851e-06 -1.20277e-06 -7.41746e-07 0 4.42711e-09
130 3 0.001 0.00545896 0.00303338 0.0309038 1.12665e-06 -1.57945e-06 1.27802e-07 0 4.40583e-09
129 3 0.001 0.00566252 0.00314653 0.0303162 1.61169e-08 1.63611e-06 2.93063e-07 0 4.41686e-09
131 3 0.001 0.00525002 0.00291724 0.031489 -1.4699e-06 8.10218e-07 -3.05899e-07 0 4.39413e-09
132 3 0.001 0.00503585 0.00279821 0.0320717 1.33701e-07 2.17272e-06 5.33627e-07 0 4.38192e-09
133 3 0.001 0.00481666 0.00267639 0.032652 9.15022e-07 -4.51705e-06 -6.63541e-07 0 4.36937e-09
135 3 0.001 0.00436398 0.00242481 0.0338053 6.27441e-07 -2.39046e-06 -3.19003e-07 0 4.3437e-09
134 3 0.001 0.00459263 0.00255188 0.0332298 -6.16466e-07 3.9886e-06 5.25449e-07 0 4.35662e-09
136 3 0.001 0.00413091 0.00229528 0.0343785 3.84216e-07 -1.22648e-06 -3.78054e-08 0 4.33064e-09
137 3 0.001 0.00389365 0.00216344 0.0349494 -2.26965e-06 5.75192e-06 5.35246e-07 0 4.31757e-09
138 3 0.001 0.00365243 0.00202939 0.0355181 2.35206e-06 -5.7907e-06 -3.40272e-07 0 4.30474e-09
140 3 0.001 0.00315906 0.00175524 0.0366494 1.54047e-06 -9.44006e-08 4.90537e-07 0 4.28059e-09
139 3 0.001 0.00340749 0.00189328 0.0360847 -1.9942e-06 2.55072e-06 -4.07665e-07 0 4.29239e-09
141 3 0.001 0.0029074 0.0016154 0.0372122 5.67819e-07 -1.78864e-06 -1.69451e-07 0 4.26924e-09
144 3 0.001 0.00213556 0.00118653 0.0388905 -2.10188e-06 1.7162e-06 -6.27353e-07 0 4.23887e-09
143 3 0.001 0.00239539 0.0013309 0.0383326 1.52733e-06 -2.34117e-06 2.79264e-07 0 4.24811e-09
142 3 0.001 0.00265276 0.00147391 0.0377732 -1.75597e-06 2.64379e-06 8.17635e-08 0 4.25834e-09
145 3 0.001 0.00187353 0.00104094 0.039447 1.4088e-06 3.40969e-07 4.8053e-07 0 4.2308e-09
146 3 0.001 0.00160957 0.000894285 0.0400024 2.52078e-07 -2.06924e-06 -5.75711e-07 0 4.22375e-09
147 3 0.001 0.00134395 0.000746705 0.0405567 -2.98311e-07 7.71919e-07 2.33517e-07 0 4.21753e-09
148 3 0.001 0.00107695 0.000598356 0.0411102 4.74114e-07 7.84059e-07 7.5344e-07 0 4.21219e-09
149 3 0.001 0.000808838 0.000449391 0.041663 -8.04364e-07 -7.88409e-07 -5.17796e-07 0 4.08899e-09
150 3 0.001 0.000539875 0.000299954 0.0422152 -1.1094e-07 1.13546e-06 2.00451e-09 0 2.3503e-09
151 3 0.001 0.000270077 0.000150055 0.0427677 7.06904e-07 -1.25552e-06 -2.96323e-07 0 7.32289e-10
2 2 0.001 0 0 0.04332 -0.00163933 -0.00091136 0.00713233 0 3.66087e-10
