ITEM: TIMESTEP
7300000
ITEM: NUMBER OF ATOMS
151
ITEM: BOX BOUNDS ff ff ff
-1.0000000000000000e-02 1.0000000000000000e-02
-6.0000000000000001e-03 6.0000000000000001e-03
-5.2499999999999998e-02 5.2499999999999998e-02
ITEM: ATOMS id type radius x y z fx fy fz c_bendingE c_stretchingE
3 3 0.001 0.000428591 0.00032928 -0.0471742 -3.70862e-10 7.32244e-11 4.42219e-10 0 1.52226e-08
1 1 0.001 0 0 -0.0475 -0.00876784 -0.00365894 -0.0191857 0 7.58644e-09
4 3 0.001 0.000856524 0.000657449 -0.0468464 1.41164e-10 1.01104e-10 -2.687e-10 0 2.05247e-08
5 3 0.001 0.00128268 0.000983048 -0.046515 2.61142e-10 -2.85884e-10 -6.12776e-11 0 2.62932e-08
6 3 0.001 0.00170679 0.00130527 -0.0461779 -4.45784e-10 1.20584e-10 4.06828e-10 0 2.70599e-08
7 3 0.001 0.00212813 0.00162298 -0.0458331 3.18373e-11 -1.08251e-10 2.71345e-11 0 2.7616e-08
8 3 0.001 0.00254593 0.001935 -0.0454791 -8.30213e-11 1.2523e-10 1.12659e-12 0 2.82764e-08
9 3 0.001 0.00295932 0.00224015 -0.0451141 -4.6147e-11 -2.49998e-10 2.84195e-10 0 2.90289e-08
10 3 0.001 0.00336742 0.00253719 -0.0447367 -4.39061e-11 -8.31917e-11 1.17459e-10 0 2.98585e-08
11 3 0.001 0.00376925 0.00282489 -0.0443457 -3.93743e-10 3.19221e-10 1.73144e-10 0 3.07474e-08
12 3 0.001 0.00416377 0.00310199 -0.04394 2.30643e-10 -5.96086e-10 1.91193e-10 0 3.16752e-08
13 3 0.001 0.00454991 0.00336725 -0.0435186 -3.47674e-10 1.81451e-10 2.35017e-10 0 3.26191e-08
14 3 0.001 0.00492653 0.00361942 -0.043081 -2.78313e-10 1.89019e-10 1.9415e-10 0 3.35542e-08
15 3 0.001 0.00529248 0.0038573 -0.0426267 2.53505e-10 -6.92182e-10 2.17125e-10 0 3.44545e-08
16 3 0.001 0.00564658 0.00407971 -0.0421556 -5.46881e-10 5.11256e-10 2.37609e-10 0 3.52935e-08
17 3 0.001 0.00598766 0.00428558 -0.0416677 3.35583e-11 -3.10636e-10 1.80616e-10 0 3.60452e-08
18 3 0.001 0.0063146 0.00447389 -0.0411633 -5.36125e-11 -2.92e-10 2.26777e-10 0 3.66854e-08
19 3 0.001 0.00662632 0.00464376 -0.0406431 -5.29585e-10 3.51194e-10 3.03158e-10 0 3.71929e-08
20 3 0.001 0.00692182 0.00479442 -0.0401077 3.39076e-10 -4.07509e-10 6.43816e-11 0 3.75501e-08
21 3 0.001 0.00720022 0.00492526 -0.0395581 -4.24956e-10 2.93049e-11 3.45294e-10 0 3.77448e-08
22 3 0.001 0.00746076 0.00503584 -0.0389955 -2.10321e-10 -1.69291e-10 2.49012e-10 0 3.77578e-08
23 3 0.001 0.00770283 0.00512589 -0.038421 1.08322e-10 1.97428e-10 7.66355e-11 0 3.75416e-08
24 3 0.001 0.00792601 0.0051953 -0.0378362 -2.84301e-10 -2.1093e-10 2.91144e-10 0 3.71102e-08
25 3 0.001 0.00813004 0.00524412 -0.0372423 1.17706e-10 -4.35103e-10 1.45438e-10 0 3.65705e-08
26 3 0.001 0.00831486 0.00527242 -0.0366408 -3.79466e-10 5.07228e-10 2.65958e-10 0 3.60298e-08
27 3 0.001 0.00848059 0.00528033 -0.0360332 6.25123e-11 -2.89239e-10 1.66355e-10 0 3.55618e-08
28 3 0.001 0.00862755 0.00526793 -0.0354208 5.93749e-11 -2.88947e-10 1.5937e-10 0 3.51939e-08
29 3 0.001 0.00875621 0.00523527 -0.034805 -3.51203e-10 3.06038e-10 2.77904e-10 0 3.49063e-08
30 3 0.001 0.00886722 0.0051824 -0.0341871 3.19844e-10 -4.43998e-10 9.66854e-11 0 3.46388e-08
31 3 0.001 0.0089614 0.00510934 -0.0335686 -1.67565e-10 1.83595e-10 2.34304e-10 0 3.43073e-08
32 3 0.001 0.00903971 0.00501618 -0.0329505 -2.67213e-10 -9.52993e-11 1.98012e-10 0 3.38336e-08
33 3 0.001 0.00910323 0.00490309 -0.0323339 5.44515e-10 -3.2965e-10 8.46787e-11 0 3.32252e-08
34 3 0.001 0.00915319 0.0047704 -0.0317201 -5.71877e-10 2.01648e-10 3.08705e-10 0 3.25496e-08
36 3 0.001 0.00921752 0.0044481 -0.0305037 4.53942e-10 -3.48714e-10 7.30696e-11 0 3.11837e-08
35 3 0.001 0.00919085 0.00461854 -0.0311097 1.58825e-10 -1.54378e-10 1.64952e-10 0 3.18565e-08
37 3 0.001 0.00923446 0.00425973 -0.0299026 -7.55368e-10 2.19919e-10 2.77371e-10 0 3.05545e-08
38 3 0.001 0.00924287 0.00405421 -0.0293069 3.35976e-10 -1.12457e-10 1.82043e-10 0 2.99795e-08
39 3 0.001 0.00924386 0.0038324 -0.0287171 1.67335e-10 -3.6413e-10 1.03875e-10 0 2.946e-08
40 3 0.001 0.0092384 0.00359523 -0.0281332 -4.49616e-10 2.85463e-11 2.32732e-10 0 2.89917e-08
41 3 0.001 0.00922737 0.00334369 -0.0275554 6.95951e-11 -3.03789e-11 1.95267e-10 0 2.85684e-08
43 3 0.001 0.00919143 0.00280185 -0.0264179 -3.46778e-10 -6.17677e-11 1.92369e-10 0 2.78306e-08
44 3 0.001 0.00916763 0.00251381 -0.0258578 6.61517e-11 -1.25843e-10 1.93427e-10 0 2.75067e-08
42 3 0.001 0.00921151 0.00307886 -0.0269837 -2.06438e-10 -1.66975e-10 1.27296e-10 0 2.81832e-08
45 3 0.001 0.00914053 0.00221593 -0.0253029 -4.6719e-10 -1.34615e-10 1.48134e-10 0 2.72094e-08
46 3 0.001 0.00911045 0.00190943 -0.0247529 -5.70386e-10 -5.62993e-12 1.92122e-10 0 2.69382e-08
47 3 0.001 0.00907767 0.00159554 -0.0242073 -2.59736e-10 -1.62757e-10 1.24794e-10 0 2.66942e-08
48 3 0.001 0.00904243 0.00127554 -0.0236653 -8.30863e-10 1.02579e-11 2.04717e-10 0 2.64802e-08
49 3 0.001 0.00900492 0.000950676 -0.0231264 -2.98302e-10 -1.9256e-10 1.14634e-10 0 2.63016e-08
52 3 0.001 0.00888114 -4.02466e-05 -0.0215203 -1.27578e-09 -3.27113e-10 -5.47237e-11 0 2.6063e-08
50 3 0.001 0.00896538 0.000622233 -0.0225898 -1.0795e-09 9.24294e-11 2.1374e-10 0 2.61684e-08
51 3 0.001 0.00892403 0.000291493 -0.0220547 -6.04947e-10 -3.21948e-11 1.73406e-10 0 2.60886e-08
53 3 0.001 0.00883707 -0.000371766 -0.020986 -7.28301e-10 2.76985e-10 3.65749e-10 0 2.60908e-08
54 3 0.001 0.00879192 -0.000701802 -0.0204508 -1.01148e-09 -1.75333e-10 4.70656e-11 0 2.61728e-08
55 3 0.001 0.00874592 -0.00102905 -0.0199139 -2.03956e-09 -3.67497e-11 3.01688e-11 0 2.63084e-08
57 3 0.001 0.00865235 -0.00167005 -0.0188323 -1.58993e-09 -2.11957e-10 -2.47195e-11 0 2.67271e-08
58 3 0.001 0.00860532 -0.00198128 -0.0182862 -2.03975e-09 -6.1967e-11 2.87643e-11 0 2.70018e-08
56 3 0.001 0.00869931 -0.00135222 -0.0193747 -5.97646e-10 2.21062e-10 3.07399e-10 0 2.64944e-08
59 3 0.001 0.00855847 -0.00228467 -0.0177357 -1.18588e-09 3.41605e-10 2.99409e-10 0 2.73127e-08
60 3 0.001 0.00851208 -0.002579 -0.0171802 -1.88273e-09 -2.17828e-10 -7.14337e-11 0 2.76534e-08
62 3 0.001 0.00842182 -0.00313569 -0.0160529 -1.98038e-09 3.91102e-11 7.31072e-11 0 2.83935e-08
63 3 0.001 0.00837849 -0.00339574 -0.0154804 -1.67425e-09 1.55685e-11 7.78577e-11 0 2.87761e-08
61 3 0.001 0.00846644 -0.00286306 -0.0166194 -2.11548e-09 1.11631e-10 8.83637e-11 0 2.80163e-08
64 3 0.001 0.00833672 -0.00364215 -0.0149018 -2.5072e-09 2.2701e-10 8.55852e-11 0 2.91551e-08
65 3 0.001 0.0082968 -0.00387388 -0.0143171 -2.3237e-09 -1.306e-10 -4.65589e-11 0 2.95212e-08
66 3 0.001 0.00825897 -0.00408997 -0.0137264 -2.25078e-09 1.24681e-10 6.09594e-11 0 2.98653e-08
67 3 0.001 0.00822348 -0.00428956 -0.0131297 -2.25299e-09 1.08163e-10 4.95666e-11 0 3.01783e-08
68 3 0.001 0.00819059 -0.00447185 -0.0125273 -2.62679e-09 -4.29467e-11 -1.17861e-11 0 3.04522e-08
69 3 0.001 0.0081605 -0.00463617 -0.0119197 -2.82674e-09 2.92675e-10 6.98126e-11 0 3.06795e-08
70 3 0.001 0.00813343 -0.00478193 -0.0113073 -2.25901e-09 -1.40635e-10 -1.3782e-11 0 3.08541e-08
71 3 0.001 0.00810957 -0.00490868 -0.0106905 -2.66973e-09 6.87157e-11 6.90366e-12 0 3.0971e-08
72 3 0.001 0.00808908 -0.0050161 -0.0100699 -3.15053e-09 2.3069e-10 8.53525e-12 0 3.10239e-08
73 3 0.001 0.0080721 -0.00510399 -0.00944614 -2.2016e-09 -4.61226e-11 1.80922e-12 0 3.09739e-08
75 3 0.001 0.00804915 -0.00522105 -0.00819167 -3.33776e-09 7.55944e-11 1.39776e-11 0 3.06176e-08
74 3 0.001 0.00805876 -0.0051723 -0.00881986 -3.02887e-09 7.02145e-11 1.15679e-11 0 3.08146e-08
76 3 0.001 0.00804334 -0.00525031 -0.00756222 -1.77129e-09 1.33231e-11 1.12632e-11 0 3.04623e-08
77 3 0.001 0.00804135 -0.00526016 -0.00693213 -3.60679e-09 2.40046e-10 -1.70777e-12 0 3.04039e-08
78 3 0.001 0.00804322 -0.0052506 -0.00630204 -2.9153e-09 -6.39791e-11 1.48595e-11 0 3.04621e-08
79 3 0.001 0.00804892 -0.00522163 -0.00567257 -2.14315e-09 -8.16218e-11 1.75097e-11 0 3.06179e-08
80 3 0.001 0.00805841 -0.00517317 -0.00504436 -3.54833e-09 3.42795e-10 -1.1337e-11 0 3.08163e-08
81 3 0.001 0.00807164 -0.00510516 -0.00441804 -2.39586e-09 -4.63669e-11 1.03531e-13 0 3.09783e-08
82 3 0.001 0.0080885 -0.00501756 -0.00379425 -2.58918e-09 1.51452e-11 1.3994e-11 0 3.10317e-08
83 3 0.001 0.00810888 -0.00491042 -0.00317363 -3.0153e-09 1.53381e-10 1.55031e-11 0 3.09816e-08
84 3 0.001 0.00813265 -0.00478395 -0.00255677 -2.90625e-09 -5.28871e-12 3.90169e-11 0 3.08669e-08
85 3 0.001 0.00815962 -0.00463845 -0.00194424 -1.93007e-09 1.564e-10 -6.75613e-11 0 3.06945e-08
86 3 0.001 0.00818962 -0.0044744 -0.00133656 -2.79333e-09 8.65208e-11 -1.60551e-11 0 3.04692e-08
87 3 0.001 0.00822244 -0.00429235 -0.000734149 -3.00048e-09 -3.25487e-11 6.2459e-11 0 3.01971e-08
88 3 0.001 0.00825785 -0.00409299 -0.000137379 -1.2433e-09 5.05493e-11 -6.02442e-11 0 2.98857e-08
89 3 0.001 0.00829562 -0.0038771 0.000453487 -3.77901e-09 2.87815e-10 -1.45501e-11 0 2.9543e-08
90 3 0.001 0.00833549 -0.00364557 0.00103828 -1.15919e-09 -1.66412e-10 -2.77888e-11 0 2.9178e-08
91 3 0.001 0.00837721 -0.00339934 0.00161693 -2.09738e-09 2.24961e-10 -1.22712e-10 0 2.87999e-08
92 3 0.001 0.0084205 -0.00313944 0.00218947 -2.72154e-09 -1.41662e-10 1.07621e-10 0 2.8418e-08
93 3 0.001 0.0084651 -0.00286695 0.00275605 -1.70041e-09 1.99519e-10 -1.37786e-10 0 2.80414e-08
94 3 0.001 0.00851073 -0.002583 0.00331692 -1.5847e-09 4.68872e-11 -9.4674e-11 0 2.76788e-08
95 3 0.001 0.00855711 -0.00228877 0.00387242 -1.79114e-09 8.36814e-11 -1.08227e-10 0 2.73384e-08
96 3 0.001 0.00860396 -0.00198545 0.00442299 -2.19127e-09 -1.96019e-10 9.09336e-11 0 2.70276e-08
97 3 0.001 0.00865101 -0.00167427 0.00496916 -6.61284e-10 1.29826e-10 -2.25017e-10 0 2.67529e-08
98 3 0.001 0.00869799 -0.00135647 0.00551153 -1.86142e-09 7.8596e-11 -1.03115e-10 0 2.65202e-08
99 3 0.001 0.00874463 -0.00103331 0.00605076 -1.80364e-09 7.16489e-11 -1.14457e-10 0 2.63341e-08
100 3 0.001 0.00879067 -0.000706055 0.00658759 -4.09332e-10 -6.19866e-10 1.86468e-10 0 2.61985e-08
101 3 0.001 0.00883586 -0.00037599 0.00712276 -1.21904e-09 1.30733e-09 -9.38543e-10 0 2.61165e-08
102 3 0.001 0.00887999 -4.44226e-05 0.0076571 -1.69153e-09 -1.63102e-09 9.24409e-10 0 2.60889e-08
103 3 0.001 0.00892294 0.000287382 0.00819139 -2.10943e-11 9.33303e-10 -8.03717e-10 0 2.61147e-08
104 3 0.001 0.00896437 0.000618205 0.00872641 -1.52347e-09 -2.67226e-10 5.00931e-11 0 2.61947e-08
105 3 0.001 0.00900399 0.000946749 0.00926295 -1.51706e-10 -1.15456e-10 -1.52397e-10 0 2.63284e-08
106 3 0.001 0.00904158 0.00127173 0.0098018 -1.09716e-09 -8.23065e-12 -1.5152e-10 0 2.65077e-08
107 3 0.001 0.00907693 0.00159187 0.0103437 3.01022e-10 -1.7303e-10 -1.46737e-10 0 2.67228e-08
108 3 0.001 0.0091098 0.00190589 0.0108893 -2.15126e-09 2.03986e-10 -2.18865e-10 0 2.69678e-08
109 3 0.001 0.00913999 0.00221256 0.0114391 2.25429e-09 -6.39315e-10 9.53487e-12 0 2.72402e-08
110 3 0.001 0.00916721 0.00251061 0.0119939 -3.01252e-09 5.78143e-10 -3.83839e-10 0 2.75386e-08
111 3 0.001 0.00919113 0.00279884 0.0125539 1.94507e-09 -6.72011e-10 4.54286e-11 0 2.78635e-08
112 3 0.001 0.00921135 0.00307605 0.0131196 -1.64324e-09 2.73438e-10 -2.88896e-10 0 2.82171e-08
113 3 0.001 0.00922736 0.00334108 0.0136912 7.3677e-10 -1.94975e-10 -1.36956e-10 0 2.86031e-08
114 3 0.001 0.00923854 0.00359283 0.0142689 -5.88867e-10 -1.24507e-10 -1.49766e-10 0 2.90273e-08
115 3 0.001 0.00924418 0.00383022 0.0148527 5.81164e-10 -3.1221e-10 -9.15891e-11 0 2.94963e-08
116 3 0.001 0.00924338 0.00405226 0.0154425 -1.1651e-09 5.23859e-10 -3.91512e-10 0 3.00166e-08
117 3 0.001 0.00923518 0.004258 0.0160381 1.49707e-09 -9.15247e-10 1.44028e-10 0 3.05926e-08
118 3 0.001 0.00921847 0.00444659 0.0166391 -1.44843e-09 5.47406e-10 -4.09847e-10 0 3.12232e-08
119 3 0.001 0.00919205 0.00461727 0.0172451 8.90153e-10 -2.77209e-10 -7.2228e-11 0 3.18982e-08
120 3 0.001 0.00915464 0.00476935 0.0178554 1.04142e-10 -4.96591e-10 -6.35343e-11 0 3.25945e-08
121 3 0.001 0.00910496 0.00490226 0.0184692 -1.20844e-09 9.15843e-10 -4.8095e-10 0 3.32745e-08
122 3 0.001 0.00904172 0.00501557 0.0190857 1.95551e-09 -1.46595e-09 2.88956e-10 0 3.38887e-08
123 3 0.001 0.0089637 0.00510895 0.0197038 -2.17663e-09 1.46317e-09 -6.72894e-10 0 3.43679e-08
124 3 0.001 0.00886981 0.00518221 0.0203224 1.86084e-09 -1.46973e-09 2.82519e-10 0 3.47039e-08
127 3 0.001 0.00848396 0.0052807 0.0221686 8.15154e-10 -9.41902e-10 5.3675e-11 0 3.56382e-08
126 3 0.001 0.00863067 0.00526812 0.0215561 -1.5307e-10 2.14667e-10 -2.1783e-10 0 3.52666e-08
125 3 0.001 0.00875907 0.00523528 0.0209403 -1.08386e-09 6.3986e-10 -4.30195e-10 0 3.49754e-08
128 3 0.001 0.00831845 0.00527296 0.0227763 -8.70296e-10 7.36699e-10 -3.79326e-10 0 3.61104e-08
129 3 0.001 0.00813382 0.0052448 0.0233778 2.47781e-10 -5.85696e-10 -1.17846e-10 0 3.66561e-08
130 3 0.001 0.00792995 0.00519613 0.0239718 -7.82199e-11 1.55088e-10 -1.72631e-10 0 3.72016e-08
131 3 0.001 0.00770689 0.00512684 0.0245567 -2.97396e-10 1.81493e-11 -2.56402e-10 0 3.76393e-08
132 3 0.001 0.0074649 0.0050369 0.0251311 2.69519e-10 -3.59684e-10 -6.27121e-11 0 3.78615e-08
134 3 0.001 0.00692602 0.00479565 0.0262434 5.49558e-10 -7.11577e-10 -2.19658e-11 0 3.76613e-08
133 3 0.001 0.00720441 0.00492642 0.0256938 -6.5718e-10 2.54894e-10 -3.81235e-10 0 3.78531e-08
136 3 0.001 0.0063187 0.00447521 0.027299 6.97672e-10 -1.0549e-09 -1.94544e-11 0 3.6799e-08
137 3 0.001 0.00599165 0.00428691 0.0278033 -6.98961e-10 5.10694e-10 -3.40608e-10 0 3.61582e-08
135 3 0.001 0.00663049 0.00464504 0.0267788 -9.8178e-10 9.54469e-10 -3.85696e-10 0 3.73058e-08
139 3 0.001 0.00529616 0.0038586 0.0287621 -4.10533e-10 3.57879e-10 -2.08641e-10 0 3.45636e-08
140 3 0.001 0.00493002 0.00362068 0.0292162 -2.25139e-11 -1.96729e-10 -1.78324e-10 0 3.36602e-08
141 3 0.001 0.00455317 0.00336845 0.0296536 2.00544e-11 -3.51178e-10 -2.29069e-10 0 3.27214e-08
138 3 0.001 0.00565043 0.00408104 0.0282911 2.11658e-10 -5.36798e-10 -1.56047e-10 0 3.5405e-08
143 3 0.001 0.003772 0.00282593 0.0304801 1.80892e-10 -2.61189e-10 -8.31278e-12 0 3.08415e-08
144 3 0.001 0.0033699 0.00253814 0.0308707 -4.18145e-10 -1.76939e-11 -4.84225e-10 0 2.99484e-08
142 3 0.001 0.00416679 0.00310312 0.0300746 -3.67147e-10 2.80208e-10 -1.76739e-10 0 3.17735e-08
148 3 0.001 0.00170807 0.00130577 0.03231 -1.72182e-09 1.7787e-09 -4.53833e-10 0 2.71361e-08
149 3 0.001 0.00128364 0.000983426 0.0326467 1.97786e-09 -2.22919e-09 3.53239e-10 0 2.63668e-08
147 3 0.001 0.00212972 0.0016236 0.0319658 1.02507e-09 -1.1705e-09 1.95562e-10 0 2.76949e-08
146 3 0.001 0.00254782 0.00193574 0.0316122 -6.59871e-10 4.24945e-10 -3.85079e-10 0 2.83586e-08
145 3 0.001 0.00296151 0.00224099 0.0312477 2.72203e-10 -1.32174e-10 1.77362e-10 0 2.91148e-08
151 3 0.001 0.000428912 0.000329407 0.0333047 1.15263e-09 -1.21598e-09 2.96505e-10 0 1.52774e-08
2 2 0.001 0 0 0.03363 -0.00878958 -0.00367213 0.0192144 0 7.61381e-09
150 3 0.001 0.000857166 0.000657703 0.0329775 -1.92093e-09 2.01145e-09 -4.97016e-10 0 2.05883e-08
