ITEM: TIMESTEP
5000000
ITEM: NUMBER OF ATOMS
151
ITEM: BOX BOUNDS ff ff ff
-1.0000000000000000e-02 1.0000000000000000e-02
-6.0000000000000001e-03 6.0000000000000001e-03
-5.2499999999999998e-02 5.2499999999999998e-02
ITEM: ATOMS id type radius x y z fx fy fz c_bendingE c_stretchingE
3 3 0.001 0.000360211 0.000295894 -0.0470734 1.38742e-11 -9.11909e-12 -7.6944e-12 0 6.0801e-09
1 1 0.001 0 0 -0.0475 -0.00486972 -0.00136829 -0.0138418 0 3.03405e-09
4 3 0.001 0.000719944 0.000590876 -0.0466457 3.53937e-11 -1.44674e-11 -2.53735e-11 0 9.59081e-09
5 3 0.001 0.00107835 0.000883728 -0.0462164 3.0908e-11 -1.09277e-11 -2.31697e-11 0 1.3366e-08
6 3 0.001 0.00143528 0.00117383 -0.0457842 8.03859e-11 -4.17657e-11 -4.4848e-11 0 1.37117e-08
7 3 0.001 0.00179028 0.00146027 -0.0453479 5.52092e-11 -1.61056e-11 -4.44484e-11 0 1.38657e-08
8 3 0.001 0.00214281 0.00174215 -0.0449067 9.94505e-11 -4.90893e-11 -5.91518e-11 0 1.405e-08
9 3 0.001 0.00249236 0.00201853 -0.0444597 1.00883e-10 -4.433e-11 -6.61934e-11 0 1.42619e-08
10 3 0.001 0.00283839 0.00228851 -0.0440061 1.01622e-10 -3.69919e-11 -7.23365e-11 0 1.44985e-08
11 3 0.001 0.00318031 0.00255115 -0.0435452 1.47198e-10 -7.37562e-11 -8.49836e-11 0 1.47564e-08
12 3 0.001 0.00351757 0.00280555 -0.0430763 1.19009e-10 -4.09458e-11 -8.34314e-11 0 1.50317e-08
13 3 0.001 0.00384955 0.00305081 -0.0425989 1.50902e-10 -6.24305e-11 -9.57224e-11 0 1.53199e-08
14 3 0.001 0.00417565 0.00328602 -0.0421125 1.77407e-10 -8.10962e-11 -1.05548e-10 0 1.56163e-08
15 3 0.001 0.00449523 0.00351031 -0.0416167 1.37662e-10 -4.55423e-11 -9.66646e-11 0 1.59157e-08
16 3 0.001 0.00480767 0.00372285 -0.0411113 1.9948e-10 -8.77882e-11 -1.17831e-10 0 1.62126e-08
17 3 0.001 0.00511233 0.00392281 -0.0405962 1.58058e-10 -5.25882e-11 -1.06985e-10 0 1.65015e-08
18 3 0.001 0.00540858 0.00410942 -0.0400712 2.04893e-10 -8.81112e-11 -1.21324e-10 0 1.67766e-08
19 3 0.001 0.0056958 0.00428195 -0.0395366 1.85889e-10 -5.89032e-11 -1.20284e-10 0 1.70325e-08
20 3 0.001 0.00597339 0.00443974 -0.0389924 1.85161e-10 -6.86457e-11 -1.16971e-10 0 1.72637e-08
21 3 0.001 0.00624076 0.00458218 -0.0384389 2.07492e-10 -7.60563e-11 -1.27774e-10 0 1.74652e-08
22 3 0.001 0.00649738 0.00470873 -0.0378766 1.81665e-10 -4.93039e-11 -1.21189e-10 0 1.76327e-08
23 3 0.001 0.00674275 0.00481896 -0.0373059 2.10175e-10 -7.91993e-11 -1.3023e-10 0 1.77623e-08
24 3 0.001 0.0069764 0.0049125 -0.0367274 1.81614e-10 -4.05422e-11 -1.22967e-10 0 1.78511e-08
25 3 0.001 0.00719796 0.00498907 -0.0361416 1.87607e-10 -4.91759e-11 -1.25016e-10 0 1.78971e-08
26 3 0.001 0.00740708 0.00504849 -0.0355494 1.91425e-10 -5.2919e-11 -1.2734e-10 0 1.78931e-08
27 3 0.001 0.00760351 0.0050907 -0.0349513 1.82009e-10 -3.24e-11 -1.27662e-10 0 1.78382e-08
28 3 0.001 0.00778707 0.00511569 -0.0343482 1.63019e-10 -1.88012e-11 -1.23501e-10 0 1.77511e-08
29 3 0.001 0.00795766 0.00512354 -0.0337409 1.57611e-10 -1.12458e-11 -1.2337e-10 0 1.76525e-08
30 3 0.001 0.00811524 0.00511436 -0.03313 1.82389e-10 -2.59452e-11 -1.31447e-10 0 1.75508e-08
31 3 0.001 0.00825988 0.00508831 -0.0325164 1.20675e-10 2.75027e-11 -1.16962e-10 0 1.74396e-08
32 3 0.001 0.0083917 0.00504558 -0.0319009 1.43953e-10 2.49389e-11 -1.24254e-10 0 1.73017e-08
33 3 0.001 0.00851094 0.00498641 -0.0312841 1.41868e-10 1.87158e-11 -1.29492e-10 0 1.71241e-08
34 3 0.001 0.00861787 0.00491114 -0.0306669 8.11342e-11 8.51496e-11 -1.12375e-10 0 1.69125e-08
35 3 0.001 0.00871288 0.00482017 -0.0300498 1.41129e-10 5.09373e-11 -1.30996e-10 0 1.66769e-08
36 3 0.001 0.00879641 0.00471399 -0.0294334 7.09007e-11 1.03643e-10 -1.1561e-10 0 1.64222e-08
37 3 0.001 0.00886898 0.00459316 -0.0288183 7.97698e-11 1.21339e-10 -1.17184e-10 0 1.61537e-08
39 3 0.001 0.00898362 0.00431008 -0.0275939 3.1322e-11 1.78806e-10 -1.09697e-10 0 1.55957e-08
38 3 0.001 0.00893117 0.0044583 -0.028205 9.37578e-11 1.21554e-10 -1.23782e-10 0 1.58764e-08
40 3 0.001 0.00902703 0.00414925 -0.0269852 7.97293e-11 1.65559e-10 -1.2129e-10 0 1.53147e-08
42 3 0.001 0.00908977 0.00379287 -0.025776 5.06049e-11 2.2039e-10 -1.13977e-10 0 1.47634e-08
41 3 0.001 0.00906216 0.00397658 -0.0263792 1.49358e-11 2.24903e-10 -1.05643e-10 0 1.50352e-08
44 3 0.001 0.0091257 0.0033958 -0.0245784 7.69333e-12 2.87359e-10 -1.02526e-10 0 1.4275e-08
43 3 0.001 0.00911069 0.00359899 -0.0251758 2.45861e-11 2.6189e-10 -1.04847e-10 0 1.45078e-08
47 3 0.001 0.00914287 0.00273941 -0.0228025 3.00266e-11 3.49852e-10 -9.70721e-11 0 1.37442e-08
45 3 0.001 0.00913559 0.0031842 -0.0239838 3.53967e-11 2.99717e-10 -1.03434e-10 0 1.40693e-08
46 3 0.001 0.00914108 0.00296509 -0.0233919 -2.4222e-11 3.50466e-10 -8.99737e-11 0 1.38923e-08
49 3 0.001 0.00913778 0.0022721 -0.0216297 -2.09649e-11 4.21879e-10 -8.00283e-11 0 1.35308e-08
48 3 0.001 0.00914158 0.0025081 -0.0222152 -5.36921e-12 3.90945e-10 -8.54395e-11 0 1.36242e-08
50 3 0.001 0.00913198 0.00203237 -0.0210458 1.6003e-11 4.28689e-10 -8.12588e-11 0 1.34624e-08
52 3 0.001 0.00911604 0.00154561 -0.0198811 -3.11021e-12 4.86337e-10 -6.9746e-11 0 1.33951e-08
51 3 0.001 0.0091246 0.00178988 -0.0204631 -2.38788e-11 4.74896e-10 -6.80088e-11 0 1.34176e-08
55 3 0.001 0.0090866 0.000811664 -0.0181357 -2.9385e-11 5.6103e-10 -5.33756e-11 0 1.34467e-08
54 3 0.001 0.0090968 0.00105555 -0.0187178 4.08583e-13 5.44963e-10 -5.49868e-11 0 1.34105e-08
53 3 0.001 0.00910665 0.00130052 -0.0192995 -2.42585e-11 5.17884e-10 -6.13708e-11 0 1.33932e-08
57 3 0.001 0.00906575 0.000331138 -0.0169684 -1.08958e-11 6.13943e-10 -4.00042e-11 0 1.3572e-08
56 3 0.001 0.0090762 0.000569871 -0.0175527 -1.49007e-11 5.91419e-10 -4.39231e-11 0 1.35009e-08
60 3 0.001 0.00903509 -0.000357126 -0.0152046 -7.87143e-11 6.77193e-10 -2.80957e-11 0 1.38754e-08
59 3 0.001 0.00904511 -0.000133309 -0.0157947 1.5129e-11 6.56461e-10 -3.15075e-11 0 1.37606e-08
58 3 0.001 0.00905535 9.64271e-05 -0.0163826 -4.34166e-11 6.37749e-10 -3.56305e-11 0 1.3659e-08
62 3 0.001 0.00901599 -0.000783309 -0.0140166 -8.07821e-11 7.1654e-10 -2.01968e-11 0 1.41381e-08
61 3 0.001 0.00902537 -0.000574097 -0.014612 3.47318e-11 7.02461e-10 -1.87439e-11 0 1.40018e-08
64 3 0.001 0.00899841 -0.00117492 -0.0128167 -7.29687e-11 7.54904e-10 -1.25001e-11 0 1.44326e-08
63 3 0.001 0.00900699 -0.000983871 -0.0134182 2.02722e-11 7.36425e-10 -1.45937e-11 0 1.42824e-08
65 3 0.001 0.0089903 -0.00135561 -0.012212 -1.13445e-12 7.66397e-10 -1.01851e-11 0 1.45862e-08
67 3 0.001 0.00897561 -0.00168276 -0.0109931 -4.7689e-11 7.95897e-10 -5.19646e-12 0 1.48942e-08
66 3 0.001 0.00898269 -0.00152515 -0.0116041 -4.05413e-11 7.90268e-10 -4.91115e-12 0 1.4741e-08
68 3 0.001 0.0089691 -0.00182773 -0.0103789 -1.06293e-11 8.08014e-10 -4.25523e-12 0 1.50431e-08
69 3 0.001 0.00896318 -0.00195939 -0.00976167 -4.09677e-11 8.30031e-10 -1.25115e-13 0 1.51852e-08
70 3 0.001 0.00895789 -0.00207711 -0.00914168 -5.18215e-11 8.27467e-10 -2.41744e-12 0 1.53178e-08
72 3 0.001 0.00894927 -0.00226856 -0.00789425 -3.76776e-11 8.50785e-10 1.19244e-12 0 1.55448e-08
71 3 0.001 0.00895324 -0.00218033 -0.00851912 -1.956e-11 8.41919e-10 3.28261e-13 0 1.54384e-08
73 3 0.001 0.00894599 -0.00234137 -0.00726741 -5.59226e-11 8.5549e-10 2.7361e-13 0 1.5635e-08
74 3 0.001 0.00894342 -0.0023984 -0.00663894 -5.05068e-12 8.60786e-10 1.16092e-12 0 1.57072e-08
75 3 0.001 0.00894157 -0.00243937 -0.00600922 -7.42542e-11 8.62321e-10 1.0121e-12 0 1.576e-08
76 3 0.001 0.00894045 -0.00246408 -0.00537865 -2.04132e-11 8.65319e-10 1.12835e-12 0 1.57923e-08
77 3 0.001 0.00894006 -0.0024724 -0.00474766 -2.86035e-11 8.67685e-10 8.98067e-13 0 1.58036e-08
78 3 0.001 0.00894042 -0.0024643 -0.00411666 -6.66251e-11 8.66242e-10 -1.00488e-13 0 1.57936e-08
79 3 0.001 0.0089415 -0.0024398 -0.00348608 -1.23669e-11 8.62994e-10 5.36496e-13 0 1.57625e-08
80 3 0.001 0.00894332 -0.00239904 -0.00285635 -4.67502e-11 8.58569e-10 9.55381e-13 0 1.57109e-08
81 3 0.001 0.00894586 -0.00234222 -0.00222786 -4.93057e-11 8.56312e-10 1.07732e-12 0 1.56399e-08
82 3 0.001 0.00894911 -0.00226961 -0.00160099 -1.38479e-11 8.51938e-10 6.28933e-13 0 1.55509e-08
83 3 0.001 0.00895305 -0.00218158 -0.000976104 -6.3383e-11 8.37655e-10 1.55148e-12 0 1.54456e-08
84 3 0.001 0.00895766 -0.00207854 -0.000353509 -1.0491e-11 8.31698e-10 1.90599e-12 0 1.5326e-08
85 3 0.001 0.00896292 -0.001961 0.000266515 -5.44002e-11 8.26497e-10 3.0866e-12 0 1.51945e-08
86 3 0.001 0.00896882 -0.00182951 0.000883737 -3.32061e-11 8.07667e-10 5.96188e-12 0 1.50533e-08
87 3 0.001 0.00897531 -0.00168469 0.00149797 -2.11573e-11 8.01027e-10 5.96271e-12 0 1.49052e-08
88 3 0.001 0.00898236 -0.00152722 0.00210909 -2.54025e-11 7.79703e-10 9.04013e-12 0 1.47528e-08
89 3 0.001 0.00898996 -0.00135781 0.00271702 -6.93998e-11 7.74926e-10 9.19976e-12 0 1.45988e-08
90 3 0.001 0.00899806 -0.00117724 0.00332173 2.6665e-11 7.48641e-10 1.40642e-11 0 1.44458e-08
91 3 0.001 0.00900662 -0.000986295 0.00392324 -8.88531e-11 7.37032e-10 1.75952e-11 0 1.42963e-08
92 3 0.001 0.00901561 -0.000785823 0.00452166 2.40667e-11 7.1929e-10 1.915e-11 0 1.41526e-08
93 3 0.001 0.00902499 -0.000576686 0.00511711 -6.96946e-11 6.99455e-10 2.39504e-11 0 1.40168e-08
94 3 0.001 0.00903471 -0.000359777 0.00570978 1.78181e-11 6.74394e-10 2.83071e-11 0 1.38908e-08
95 3 0.001 0.00904473 -0.000136006 0.00629989 -5.39182e-11 6.576e-10 3.34036e-11 0 1.37765e-08
96 3 0.001 0.00905498 9.3697e-05 0.00688773 -1.6423e-11 6.3712e-10 3.62924e-11 0 1.36754e-08
97 3 0.001 0.00906539 0.00032839 0.0074736 -1.01622e-12 6.15696e-10 4.04403e-11 0 1.35889e-08
98 3 0.001 0.00907586 0.000567119 0.00805784 -4.3936e-11 5.81333e-10 5.07261e-11 0 1.35181e-08
99 3 0.001 0.00908629 0.000808922 0.00864082 3.07555e-12 5.73592e-10 4.90486e-11 0 1.34644e-08
100 3 0.001 0.00909652 0.00105283 0.00922293 -3.03195e-11 5.3216e-10 6.17322e-11 0 1.34286e-08
101 3 0.001 0.00910641 0.00129784 0.00980458 -7.94249e-12 5.27227e-10 5.89067e-11 0 1.34117e-08
102 3 0.001 0.00911586 0.00154297 0.0103862 -1.5422e-12 4.74505e-10 7.4942e-11 0 1.3414e-08
103 3 0.001 0.00912449 0.00178731 0.0109682 -3.05731e-11 4.84783e-10 6.56155e-11 0 1.3437e-08
104 3 0.001 0.00913194 0.00202987 0.0115509 1.70887e-11 4.20925e-10 8.68032e-11 0 1.34822e-08
105 3 0.001 0.00913784 0.00226968 0.0121347 -2.02057e-11 4.2458e-10 7.93856e-11 0 1.35509e-08
106 3 0.001 0.00914175 0.00250577 0.0127201 1.5279e-13 3.84118e-10 9.04752e-11 0 1.36446e-08
107 3 0.001 0.00914318 0.00273718 0.0133074 5.5554e-12 3.66932e-10 9.10818e-11 0 1.37649e-08
108 3 0.001 0.00914154 0.00296298 0.0138968 2.26927e-11 3.224e-10 1.02038e-10 0 1.39134e-08
109 3 0.001 0.00913622 0.0031822 0.0144887 -8.69932e-12 3.22205e-10 9.6191e-11 0 1.40908e-08
110 3 0.001 0.00912654 0.00339394 0.0150832 2.45215e-11 2.78261e-10 1.07082e-10 0 1.42971e-08
111 3 0.001 0.00911174 0.00359727 0.0156805 3.71954e-11 2.57521e-10 1.08538e-10 0 1.45306e-08
112 3 0.001 0.00909107 0.00379129 0.0162807 2.79407e-11 2.27471e-10 1.12678e-10 0 1.47873e-08
113 3 0.001 0.00906371 0.00397515 0.0168838 3.21738e-11 2.20392e-10 1.09232e-10 0 1.50607e-08
114 3 0.001 0.00902887 0.00414798 0.0174898 7.0262e-11 1.70049e-10 1.20548e-10 0 1.53419e-08
115 3 0.001 0.00898575 0.00430897 0.0180985 4.92839e-11 1.63786e-10 1.15696e-10 0 1.56249e-08
116 3 0.001 0.0089336 0.00445735 0.0187096 7.29706e-11 1.43626e-10 1.17774e-10 0 1.59075e-08
117 3 0.001 0.00887172 0.00459238 0.0193229 8.98791e-11 1.02512e-10 1.24722e-10 0 1.61868e-08
118 3 0.001 0.00879946 0.00471338 0.019938 7.84551e-11 1.11927e-10 1.16931e-10 0 1.64575e-08
119 3 0.001 0.00871623 0.00481973 0.0205544 1.37331e-10 4.9394e-11 1.30844e-10 0 1.67145e-08
120 3 0.001 0.00862152 0.00491086 0.0211715 7.11541e-11 8.92663e-11 1.12032e-10 0 1.69523e-08
121 3 0.001 0.00851487 0.0049863 0.0217888 1.6994e-10 5.90476e-12 1.35696e-10 0 1.71663e-08
123 3 0.001 0.00826434 0.00508852 0.0230211 1.47449e-10 1.31033e-11 1.24996e-10 0 1.74861e-08
122 3 0.001 0.00839591 0.00504563 0.0224056 1.14005e-10 4.18689e-11 1.19508e-10 0 1.73461e-08
124 3 0.001 0.00811994 0.00511473 0.0236348 1.78067e-10 -2.54175e-11 1.31714e-10 0 1.75993e-08
125 3 0.001 0.00796257 0.00512407 0.0242457 1.33059e-10 1.31558e-11 1.17488e-10 0 1.77029e-08
126 3 0.001 0.00779217 0.00511636 0.0248531 2.09654e-10 -5.21437e-11 1.37262e-10 0 1.78036e-08
127 3 0.001 0.00760876 0.00509151 0.0254562 1.59629e-10 -2.19923e-11 1.21439e-10 0 1.7893e-08
128 3 0.001 0.00741245 0.00504943 0.0260543 1.72224e-10 -2.93885e-11 1.24205e-10 0 1.79504e-08
129 3 0.001 0.00720342 0.00499012 0.0266466 2.39015e-10 -8.97206e-11 1.40585e-10 0 1.79566e-08
131 3 0.001 0.00674828 0.00482022 0.027811 2.30084e-10 -8.53132e-11 1.3745e-10 0 1.78249e-08
130 3 0.001 0.00698192 0.00491366 0.0272324 1.37777e-10 -7.67046e-12 1.12066e-10 0 1.79123e-08
134 3 0.001 0.00597878 0.00444118 0.0294974 2.06234e-10 -8.28777e-11 1.24551e-10 0 1.73285e-08
133 3 0.001 0.00624624 0.00458357 0.028944 1.78876e-10 -4.81516e-11 1.20694e-10 0 1.75296e-08
132 3 0.001 0.00650291 0.00471007 0.0283817 1.97543e-10 -6.92911e-11 1.2521e-10 0 1.76963e-08
137 3 0.001 0.00511728 0.00392428 0.031101 1.43856e-10 -4.64206e-11 1.01974e-10 0 1.65657e-08
135 3 0.001 0.00570108 0.00428342 0.0300415 1.86772e-10 -6.00854e-11 1.21073e-10 0 1.70974e-08
136 3 0.001 0.00541371 0.0041109 0.0305761 2.08015e-10 -8.55577e-11 1.25872e-10 0 1.68413e-08
138 3 0.001 0.00481242 0.0037243 0.031616 2.10237e-10 -9.24993e-11 1.21504e-10 0 1.62761e-08
139 3 0.001 0.00449974 0.00351173 0.0321212 1.56041e-10 -5.55639e-11 1.03619e-10 0 1.59783e-08
140 3 0.001 0.0041799 0.00328738 0.0326167 1.46943e-10 -5.91471e-11 9.53394e-11 0 1.5678e-08
142 3 0.001 0.00352124 0.00280677 0.0335801 1.10856e-10 -3.57743e-11 8.23299e-11 0 1.50911e-08
143 3 0.001 0.00318367 0.00255228 0.0340487 1.48227e-10 -7.36497e-11 8.62483e-11 0 1.48147e-08
141 3 0.001 0.00385353 0.0030521 0.0331029 1.76561e-10 -7.95484e-11 1.06719e-10 0 1.53805e-08
146 3 0.001 0.00214513 0.00174295 0.0354092 8.78604e-11 -3.08709e-11 6.30948e-11 0 1.41053e-08
144 3 0.001 0.00284141 0.00228954 0.0345093 1.0051e-10 -3.25994e-11 7.12494e-11 0 1.45557e-08
145 3 0.001 0.00249504 0.00201945 0.0349625 1.08657e-10 -5.60808e-11 6.50574e-11 0 1.43181e-08
150 3 0.001 0.000720733 0.000591155 0.0371466 4.9574e-11 -3.0902e-11 2.42858e-11 0 9.63512e-09
147 3 0.001 0.00179222 0.00146095 0.03585 7.82175e-11 -3.75809e-11 4.94126e-11 0 1.39203e-08
148 3 0.001 0.00143685 0.00117438 0.0362859 5.40373e-11 -2.38091e-11 3.60029e-11 0 1.37657e-08
149 3 0.001 0.00107953 0.000884144 0.0367177 4.07048e-11 -1.31361e-11 3.00396e-11 0 1.34193e-08
151 3 0.001 0.000360606 0.000296034 0.0375738 -2.61946e-12 9.03249e-12 6.53087e-12 0 6.11614e-09
2 2 0.001 0 0 0.038 -0.00488422 -0.00137764 0.0138705 0 3.05211e-09
