ITEM: TIMESTEP
2000000
ITEM: NUMBER OF ATOMS
151
ITEM: BOX BOUNDS ff ff ff
-1.0000000000000000e-02 1.0000000000000000e-02
-6.0000000000000001e-03 6.0000000000000001e-03
-5.2499999999999998e-02 5.2499999999999998e-02
ITEM: ATOMS id type radius x y z fx fy fz c_bendingE c_stretchingE
3 3 0.001 0.000248231 0.00013791 -0.0469343 -2.0432e-12 -4.6894e-11 5.39298e-12 0 3.18559e-10
1 1 0.001 0 0 -0.0475 -0.00129059 -0.000718043 -0.00610765 0 1.59228e-10
4 3 0.001 0.000496243 0.000275699 -0.0463684 -3.90992e-11 1.3787e-11 -1.06084e-12 0 1.6041e-09
5 3 0.001 0.000743559 0.000413101 -0.0458029 -1.77556e-11 -7.03094e-11 4.4999e-12 0 2.99159e-09
6 3 0.001 0.000990204 0.000550132 -0.045237 -4.81965e-11 -5.38622e-11 7.39159e-12 0 3.09489e-09
7 3 0.001 0.00123597 0.000686676 -0.0446706 -6.56866e-11 -5.21351e-11 6.1426e-12 0 3.09769e-09
8 3 0.001 0.00148065 0.000822614 -0.0441036 -7.02699e-11 -7.14259e-11 7.48706e-12 0 3.10106e-09
9 3 0.001 0.00172402 0.000957826 -0.0435359 -5.84448e-11 -1.37515e-10 1.1544e-11 0 3.105e-09
10 3 0.001 0.00196586 0.00109219 -0.0429673 -1.12645e-10 -6.96396e-11 1.31174e-11 0 3.10945e-09
11 3 0.001 0.00220597 0.0012256 -0.0423977 -8.31481e-11 -1.44206e-10 1.28366e-11 0 3.1144e-09
12 3 0.001 0.00244414 0.00135793 -0.0418271 -1.21583e-10 -1.12859e-10 1.53936e-11 0 3.11981e-09
13 3 0.001 0.00268015 0.00148906 -0.0412554 -1.21986e-10 -1.54563e-10 2.11064e-11 0 3.12564e-09
14 3 0.001 0.00291381 0.00161889 -0.0406823 -1.29554e-10 -1.59945e-10 1.98614e-11 0 3.13184e-09
15 3 0.001 0.00314492 0.0017473 -0.0401079 -1.33058e-10 -1.77789e-10 2.15632e-11 0 3.13837e-09
16 3 0.001 0.00337327 0.00187418 -0.0395321 -1.73176e-10 -1.59859e-10 2.98978e-11 0 3.14517e-09
17 3 0.001 0.00359867 0.00199943 -0.0389548 -1.4657e-10 -2.0716e-10 2.62677e-11 0 3.15221e-09
18 3 0.001 0.00382094 0.00212294 -0.0383758 -1.79418e-10 -1.92758e-10 3.30777e-11 0 3.15942e-09
19 3 0.001 0.00403989 0.00224461 -0.0377952 -1.78727e-10 -2.26824e-10 3.58745e-11 0 3.16675e-09
20 3 0.001 0.00425534 0.00236434 -0.0372129 -1.8802e-10 -2.13563e-10 3.54156e-11 0 3.17415e-09
21 3 0.001 0.00446711 0.00248203 -0.0366289 -2.07838e-10 -2.28697e-10 4.35704e-11 0 3.18155e-09
22 3 0.001 0.00467505 0.00259759 -0.036043 -1.97816e-10 -2.65442e-10 4.55074e-11 0 3.18891e-09
23 3 0.001 0.00487898 0.00271092 -0.0354554 -2.30765e-10 -2.17044e-10 4.68975e-11 0 3.19615e-09
24 3 0.001 0.00507875 0.00282195 -0.0348658 -2.1212e-10 -2.92002e-10 5.22613e-11 0 3.20324e-09
25 3 0.001 0.00527421 0.0029306 -0.0342744 -2.46959e-10 -2.47023e-10 5.59141e-11 0 3.21011e-09
26 3 0.001 0.00546523 0.00303677 -0.033681 -2.30394e-10 -2.86722e-10 5.68248e-11 0 3.21671e-09
27 3 0.001 0.00565166 0.00314041 -0.0330858 -2.65496e-10 -2.59301e-10 6.2915e-11 0 3.22298e-09
28 3 0.001 0.00583339 0.00324143 -0.0324886 -2.35393e-10 -3.30322e-10 6.61915e-11 0 3.22888e-09
29 3 0.001 0.0060103 0.00333978 -0.0318896 -2.80466e-10 -2.57682e-10 6.63814e-11 0 3.23436e-09
30 3 0.001 0.00618227 0.00343539 -0.0312887 -2.58975e-10 -3.23002e-10 7.15512e-11 0 3.23938e-09
31 3 0.001 0.00634922 0.00352821 -0.030686 -2.95352e-10 -2.84812e-10 7.60376e-11 0 3.24389e-09
32 3 0.001 0.00651104 0.00361819 -0.0300814 -2.58346e-10 -3.38144e-10 7.41351e-11 0 3.24787e-09
33 3 0.001 0.00666767 0.00370529 -0.029475 -3.12834e-10 -2.82087e-10 8.06788e-11 0 3.25127e-09
34 3 0.001 0.00681903 0.00378947 -0.0288669 -2.7441e-10 -3.50728e-10 8.10933e-11 0 3.25408e-09
35 3 0.001 0.00696507 0.0038707 -0.0282571 -3.16354e-10 -2.85874e-10 8.23121e-11 0 3.25626e-09
36 3 0.001 0.00710573 0.00394894 -0.0276456 -2.85743e-10 -3.592e-10 8.48247e-11 0 3.25781e-09
37 3 0.001 0.00724098 0.00402418 -0.0270325 -3.27196e-10 -2.91129e-10 8.59397e-11 0 3.25871e-09
38 3 0.001 0.00737079 0.0040964 -0.0264179 -3.00802e-10 -3.42539e-10 8.6267e-11 0 3.25895e-09
39 3 0.001 0.00749515 0.0041656 -0.0258019 -3.11547e-10 -3.31155e-10 8.729e-11 0 3.25853e-09
40 3 0.001 0.00761405 0.00423177 -0.0251844 -3.22492e-10 -3.14115e-10 8.70876e-11 0 3.25747e-09
41 3 0.001 0.0077275 0.00429492 -0.0245656 -3.15352e-10 -3.31368e-10 8.65502e-11 0 3.25575e-09
42 3 0.001 0.00783552 0.00435506 -0.0239455 -3.27781e-10 -3.15339e-10 8.65102e-11 0 3.25341e-09
43 3 0.001 0.00793814 0.0044122 -0.0233242 -3.09788e-10 -3.37226e-10 8.53174e-11 0 3.25046e-09
44 3 0.001 0.00803539 0.00446636 -0.0227018 -3.25895e-10 -3.17832e-10 8.46063e-11 0 3.24693e-09
45 3 0.001 0.00812734 0.00451758 -0.0220783 -3.38392e-10 -2.72485e-10 8.12854e-11 0 3.24284e-09
46 3 0.001 0.00821404 0.00456589 -0.0214538 -2.78442e-10 -3.89407e-10 8.12262e-11 0 3.23823e-09
47 3 0.001 0.00829558 0.00461133 -0.0208285 -3.57392e-10 -2.45276e-10 7.80729e-11 0 3.23314e-09
48 3 0.001 0.00837202 0.00465395 -0.0202022 -2.93686e-10 -3.2065e-10 7.52162e-11 0 3.22761e-09
49 3 0.001 0.00844348 0.00469381 -0.0195753 -3.17136e-10 -2.97765e-10 7.30519e-11 0 3.22168e-09
50 3 0.001 0.00851006 0.00473095 -0.0189476 -3.06859e-10 -2.90449e-10 7.06723e-11 0 3.21541e-09
51 3 0.001 0.00857187 0.00476546 -0.0183192 -2.99195e-10 -2.81381e-10 6.62603e-11 0 3.20884e-09
52 3 0.001 0.00862905 0.00479739 -0.0176903 -2.98964e-10 -2.65851e-10 6.30487e-11 0 3.20203e-09
53 3 0.001 0.00868173 0.00482682 -0.0170609 -2.94711e-10 -2.66901e-10 6.09399e-11 0 3.19504e-09
54 3 0.001 0.00873005 0.00485384 -0.016431 -2.67156e-10 -2.74446e-10 5.66787e-11 0 3.18791e-09
55 3 0.001 0.00877417 0.00487853 -0.0158007 -2.94449e-10 -2.22949e-10 5.31007e-11 0 3.18071e-09
56 3 0.001 0.00881426 0.00490098 -0.0151701 -2.41364e-10 -2.62593e-10 4.99842e-11 0 3.1735e-09
57 3 0.001 0.00885049 0.00492129 -0.0145392 -2.7813e-10 -1.94371e-10 4.69698e-11 0 3.16632e-09
58 3 0.001 0.00888303 0.00493955 -0.013908 -2.3539e-10 -2.34242e-10 4.33344e-11 0 3.15924e-09
59 3 0.001 0.00891208 0.00495588 -0.0132765 -2.3446e-10 -2.05783e-10 4.0381e-11 0 3.15232e-09
60 3 0.001 0.00893783 0.00497038 -0.0126449 -2.22284e-10 -1.80254e-10 3.77231e-11 0 3.1456e-09
61 3 0.001 0.00896047 0.00498315 -0.0120131 -2.06598e-10 -1.91545e-10 3.51202e-11 0 3.13915e-09
62 3 0.001 0.00898023 0.00499433 -0.0113812 -2.08515e-10 -1.55414e-10 3.24617e-11 0 3.133e-09
63 3 0.001 0.00899731 0.00500401 -0.0107492 -1.74132e-10 -1.51122e-10 3.01524e-11 0 3.1272e-09
64 3 0.001 0.00901193 0.00501233 -0.0101171 -1.74619e-10 -1.49213e-10 2.82457e-11 0 3.12166e-09
65 3 0.001 0.00902431 0.00501942 -0.00948494 -1.53135e-10 -1.23409e-10 2.70482e-11 0 3.11628e-09
66 3 0.001 0.00903468 0.00502538 -0.00885274 -1.4151e-10 -1.06511e-10 2.58909e-11 0 3.11116e-09
67 3 0.001 0.00904327 0.00503035 -0.00822049 -1.23321e-10 -1.06943e-10 2.39144e-11 0 3.10648e-09
68 3 0.001 0.00905029 0.00503445 -0.00758823 -1.16929e-10 -9.6572e-11 2.38343e-11 0 3.10237e-09
69 3 0.001 0.00905595 0.00503778 -0.00695594 -1.03042e-10 -4.08416e-11 2.29601e-11 0 3.09891e-09
70 3 0.001 0.00906046 0.00504046 -0.00632364 -7.82991e-11 -1.0436e-10 2.23914e-11 0 3.09611e-09
71 3 0.001 0.00906398 0.00504257 -0.00569133 -7.17458e-11 -5.55663e-11 2.294e-11 0 3.09394e-09
72 3 0.001 0.00906668 0.00504422 -0.00505901 -7.60754e-11 -2.26466e-11 2.18681e-11 0 3.09233e-09
73 3 0.001 0.0090687 0.00504546 -0.00442669 -5.81211e-11 -4.81279e-11 2.28829e-11 0 3.0912e-09
74 3 0.001 0.00907016 0.00504637 -0.00379437 -3.89164e-11 -5.32082e-11 2.27353e-11 0 3.09047e-09
75 3 0.001 0.00907114 0.00504698 -0.00316205 -4.95705e-11 -2.73035e-11 2.2427e-11 0 3.09006e-09
76 3 0.001 0.00907172 0.00504735 -0.00252973 -5.56293e-11 -4.97046e-12 2.34234e-11 0 3.0899e-09
77 3 0.001 0.00907194 0.00504749 -0.0018974 -1.86091e-11 -4.80275e-11 2.31973e-11 0 3.08997e-09
78 3 0.001 0.00907181 0.00504741 -0.00126508 -5.15868e-11 -2.00169e-11 2.38813e-11 0 3.09025e-09
79 3 0.001 0.00907132 0.00504709 -0.000632754 -3.06161e-11 -4.20825e-11 2.3785e-11 0 3.09074e-09
80 3 0.001 0.00907044 0.00504653 -4.31689e-07 -7.48693e-11 1.89154e-11 2.47055e-11 0 3.09149e-09
81 3 0.001 0.00906909 0.00504569 0.00063189 -1.06992e-12 -9.51203e-11 2.37825e-11 0 3.09255e-09
82 3 0.001 0.00906719 0.00504452 0.00126421 -9.78331e-11 1.11238e-11 2.46707e-11 0 3.094e-09
83 3 0.001 0.00906463 0.00504296 0.00189652 -4.75417e-11 -6.19907e-11 2.45292e-11 0 3.09592e-09
84 3 0.001 0.00906126 0.00504093 0.00252884 -6.32647e-11 -5.85886e-11 2.40541e-11 0 3.09841e-09
85 3 0.001 0.00905694 0.00503835 0.00316114 -9.52726e-11 -3.78965e-11 2.46027e-11 0 3.10151e-09
86 3 0.001 0.00905147 0.00503513 0.00379343 -8.96316e-11 -6.74796e-11 2.29436e-11 0 3.10529e-09
87 3 0.001 0.00904468 0.00503116 0.0044257 -1.02228e-10 -8.58653e-11 2.26397e-11 0 3.10973e-09
88 3 0.001 0.00903634 0.00502632 0.00505795 -1.13668e-10 -7.57099e-11 2.17195e-11 0 3.11477e-09
89 3 0.001 0.00902624 0.00502051 0.00569016 -1.29492e-10 -9.39876e-11 2.0393e-11 0 3.12028e-09
90 3 0.001 0.00901415 0.00501359 0.00632232 -1.42593e-10 -1.03098e-10 1.9036e-11 0 3.12609e-09
91 3 0.001 0.00899985 0.00500545 0.00695443 -1.41455e-10 -1.16596e-10 1.75764e-11 0 3.13206e-09
93 3 0.001 0.00896371 0.00498497 0.00821837 -1.76191e-10 -1.29898e-10 1.21753e-11 0 3.14484e-09
92 3 0.001 0.00898311 0.00499594 0.00758645 -1.64083e-10 -1.17285e-10 1.54871e-11 0 3.13827e-09
94 3 0.001 0.00894144 0.0049724 0.00885017 -1.65612e-10 -1.55251e-10 1.13489e-11 0 3.15172e-09
95 3 0.001 0.00891607 0.00495812 0.00948181 -2.04338e-10 -1.25903e-10 7.4595e-12 0 3.15887e-09
96 3 0.001 0.00888742 0.00494201 0.0101133 -1.83384e-10 -1.7791e-10 5.1274e-12 0 3.16625e-09
97 3 0.001 0.00885529 0.00492397 0.0107445 -2.0576e-10 -1.65462e-10 2.59767e-12 0 3.17379e-09
98 3 0.001 0.00881947 0.00490389 0.0113755 -2.27105e-10 -1.42039e-10 -1.50448e-12 0 3.18143e-09
101 3 0.001 0.0086882 0.00483043 0.0132664 -2.15632e-10 -2.12878e-10 -9.62439e-12 0 3.20445e-09
99 3 0.001 0.0087798 0.00488167 0.0120062 -1.90744e-10 -2.28162e-10 -3.57705e-12 0 3.18913e-09
100 3 0.001 0.0087361 0.00485721 0.0126365 -2.42587e-10 -1.44338e-10 -6.91747e-12 0 3.19682e-09
102 3 0.001 0.00863594 0.00480123 0.0138959 -2.39708e-10 -1.96029e-10 -1.45442e-11 0 3.21195e-09
103 3 0.001 0.00857918 0.00476953 0.0145248 -2.27381e-10 -2.01376e-10 -1.45943e-11 0 3.21926e-09
105 3 0.001 0.0084516 0.00469833 0.0157809 -2.3981e-10 -2.34551e-10 -2.28916e-11 0 3.23313e-09
106 3 0.001 0.00838053 0.00465869 0.016408 -2.33717e-10 -2.01291e-10 -2.17647e-11 0 3.23958e-09
104 3 0.001 0.00851778 0.00473525 0.0151532 -2.43555e-10 -1.93699e-10 -1.87477e-11 0 3.22634e-09
107 3 0.001 0.00830446 0.00461628 0.0170342 -2.49454e-10 -2.18507e-10 -2.67654e-11 0 3.24563e-09
108 3 0.001 0.0082233 0.00457104 0.0176597 -2.33249e-10 -2.39844e-10 -2.83408e-11 0 3.25124e-09
110 3 0.001 0.00804533 0.00447189 0.0189077 -2.30302e-10 -2.56604e-10 -3.12873e-11 0 3.26097e-09
109 3 0.001 0.00813695 0.00452292 0.0182842 -2.54417e-10 -1.86622e-10 -2.80464e-11 0 3.25636e-09
111 3 0.001 0.00794839 0.0044179 0.0195302 -2.49086e-10 -2.09344e-10 -3.2391e-11 0 3.26501e-09
112 3 0.001 0.00784606 0.00436092 0.0201516 -2.24919e-10 -2.38843e-10 -3.15335e-11 0 3.26846e-09
113 3 0.001 0.00773832 0.00430094 0.0207717 -2.48194e-10 -2.07828e-10 -3.26328e-11 0 3.27129e-09
114 3 0.001 0.00762511 0.00423793 0.0213906 -2.29024e-10 -2.43711e-10 -3.344e-11 0 3.27349e-09
115 3 0.001 0.00750643 0.00417188 0.0220081 -2.26246e-10 -2.32057e-10 -3.28081e-11 0 3.27503e-09
117 3 0.001 0.00725262 0.00403066 0.0232389 -2.3159e-10 -2.33843e-10 -3.36252e-11 0 3.27612e-09
116 3 0.001 0.00738227 0.00410279 0.0226243 -2.26267e-10 -2.02026e-10 -2.94308e-11 0 3.27591e-09
118 3 0.001 0.00711751 0.00395549 0.023852 -2.04652e-10 -2.37044e-10 -2.84626e-11 0 3.27566e-09
119 3 0.001 0.00697696 0.00387731 0.0244635 -2.21303e-10 -2.02504e-10 -2.7882e-11 0 3.27454e-09
120 3 0.001 0.006831 0.00379613 0.0250733 -2.12241e-10 -2.21305e-10 -2.7787e-11 0 3.27277e-09
122 3 0.001 0.00652308 0.00362489 0.0262878 -1.94505e-10 -2.17059e-10 -2.20282e-11 0 3.26734e-09
121 3 0.001 0.00667969 0.00371198 0.0256815 -2.0184e-10 -2.13944e-10 -2.3924e-11 0 3.27036e-09
123 3 0.001 0.00636124 0.0035349 0.0268924 -2.04268e-10 -1.93686e-10 -2.06278e-11 0 3.26373e-09
124 3 0.001 0.00619425 0.00344205 0.0274951 -1.81497e-10 -2.24144e-10 -1.96238e-11 0 3.25957e-09
125 3 0.001 0.0060222 0.0033464 0.028096 -1.87282e-10 -1.81444e-10 -1.41885e-11 0 3.2549e-09
127 3 0.001 0.00566331 0.00314689 0.0292921 -1.95859e-10 -1.47861e-10 -1.13043e-11 0 3.24415e-09
126 3 0.001 0.00584518 0.00324799 0.028695 -1.65395e-10 -2.20864e-10 -1.26546e-11 0 3.24974e-09
128 3 0.001 0.0054767 0.00304316 0.0298872 -1.45786e-10 -2.24341e-10 -8.7776e-12 0 3.23818e-09
129 3 0.001 0.00528548 0.00293687 0.0304805 -1.69319e-10 -1.58394e-10 -4.15106e-12 0 3.23187e-09
130 3 0.001 0.00508978 0.00282809 0.0310718 -1.46022e-10 -1.92166e-10 -5.27575e-12 0 3.22528e-09
131 3 0.001 0.00488975 0.00271691 0.0316613 -1.58756e-10 -1.48184e-10 -8.16296e-13 0 3.21846e-09
132 3 0.001 0.00468552 0.00260341 0.0322488 -1.33564e-10 -1.7154e-10 2.27983e-12 0 3.21146e-09
133 3 0.001 0.00447726 0.00248767 0.0328345 -1.35857e-10 -1.64584e-10 1.31585e-12 0 3.20436e-09
135 3 0.001 0.0040493 0.00224985 0.0340005 -1.14108e-10 -1.64768e-10 4.28277e-12 0 3.19003e-09
134 3 0.001 0.00426513 0.00236979 0.0334184 -1.34316e-10 -1.26643e-10 5.99366e-12 0 3.19719e-09
136 3 0.001 0.00382995 0.00212795 0.0345809 -1.19084e-10 -1.33936e-10 6.51345e-12 0 3.18293e-09
137 3 0.001 0.00360725 0.0020042 0.0351596 -1.08221e-10 -1.09019e-10 1.26632e-11 0 3.17595e-09
138 3 0.001 0.00338139 0.0018787 0.0357367 -1.03737e-10 -1.36546e-10 4.86801e-12 0 3.16914e-09
140 3 0.001 0.00292095 0.00162286 0.0368864 -8.17844e-11 -1.10742e-10 1.11842e-11 0 3.15625e-09
139 3 0.001 0.00315256 0.00175155 0.0363123 -9.39017e-11 -1.07773e-10 1.21131e-11 0 3.16255e-09
143 3 0.001 0.00221149 0.00122867 0.0386009 -8.10883e-11 -5.10335e-11 1.03442e-11 0 3.13952e-09
142 3 0.001 0.00245022 0.00136131 0.0380306 -5.76634e-11 -1.05178e-10 1.37926e-11 0 3.14469e-09
141 3 0.001 0.00268677 0.00149274 0.0374591 -9.58914e-11 -8.49226e-11 6.56913e-12 0 3.15028e-09
144 3 0.001 0.00197081 0.00109495 0.0391701 -4.68387e-11 -1.09315e-10 6.10144e-12 0 3.13481e-09
145 3 0.001 0.00172838 0.000960254 0.0397384 -5.63136e-11 -4.56163e-11 1.14957e-11 0 3.1306e-09
146 3 0.001 0.00148441 0.000824708 0.0403058 -5.37473e-11 -3.92286e-11 7.39988e-12 0 3.12693e-09
147 3 0.001 0.00123913 0.000688431 0.0408724 -3.15318e-11 -6.02352e-11 5.49588e-12 0 3.12383e-09
148 3 0.001 0.000992738 0.000551542 0.0414384 -1.70373e-11 -5.53845e-11 6.89183e-12 0 3.12132e-09
149 3 0.001 0.000745466 0.000414163 0.042004 -4.43173e-11 1.34427e-11 4.29624e-12 0 3.01784e-09
150 3 0.001 0.000497518 0.000276408 0.0425691 -8.05195e-12 -3.87848e-11 1.26816e-12 0 1.62143e-09
151 3 0.001 0.00024887 0.000138266 0.0431346 4.45896e-14 -1.58055e-11 3.33262e-12 0 3.27346e-10
2 2 0.001 0 0 0.0437 -0.00129792 -0.00072211 0.00613633 0 1.63648e-10
