ITEM: TIMESTEP
1900000
ITEM: NUMBER OF ATOMS
151
ITEM: BOX BOUNDS ff ff ff
-1.0000000000000000e-02 1.0000000000000000e-02
-6.0000000000000001e-03 6.0000000000000001e-03
-5.2499999999999998e-02 5.2499999999999998e-02
ITEM: ATOMS id type radius x y z fx fy fz c_bendingE c_stretchingE
3 3 0.001 0.000236953 0.000131693 -0.0469279 1.3893e-11 -6.3336e-11 1.33971e-12 0 1.64406e-10
1 1 0.001 0 0 -0.0475 -0.00111612 -0.000621029 -0.0055534 0 8.21759e-11
4 3 0.001 0.000473715 0.00026328 -0.0463556 -4.40802e-11 1.01289e-11 6.21952e-13 0 1.26862e-09
5 3 0.001 0.00070985 0.000394518 -0.0457838 -6.08821e-11 6.23595e-12 1.9793e-12 0 2.46482e-09
6 3 0.001 0.000945399 0.000525432 -0.0452117 -1.81041e-11 -1.19033e-10 5.62218e-12 0 2.55771e-09
7 3 0.001 0.00118018 0.000655921 -0.0446391 -9.60447e-11 -4.73212e-12 4.80953e-12 0 2.55961e-09
8 3 0.001 0.00141402 0.000785881 -0.0440661 -8.99798e-11 -3.89738e-11 3.91649e-12 0 2.5619e-09
9 3 0.001 0.00164671 0.000915209 -0.0434924 -5.32491e-11 -1.64384e-10 8.97603e-12 0 2.56457e-09
10 3 0.001 0.00187807 0.0010438 -0.0429181 -1.45476e-10 -2.44232e-11 9.94584e-12 0 2.5676e-09
11 3 0.001 0.00210792 0.00117155 -0.0423429 -1.22301e-10 -8.93498e-11 8.43551e-12 0 2.57097e-09
12 3 0.001 0.00233608 0.00129836 -0.0417669 -1.40672e-10 -1.04985e-10 1.53296e-11 0 2.57466e-09
13 3 0.001 0.00256236 0.00142413 -0.0411899 -8.8155e-11 -2.28182e-10 1.38836e-11 0 2.57865e-09
14 3 0.001 0.00278659 0.00154876 -0.0406119 -2.46107e-10 2.56364e-11 1.75364e-11 0 2.5829e-09
15 3 0.001 0.00300858 0.00167215 -0.0400327 -1.31394e-10 -2.23775e-10 2.03221e-11 0 2.5874e-09
16 3 0.001 0.00322817 0.0017942 -0.0394523 -1.87753e-10 -1.52575e-10 2.39544e-11 0 2.5921e-09
17 3 0.001 0.00344518 0.00191483 -0.0388707 -1.75528e-10 -1.96201e-10 2.37462e-11 0 2.59699e-09
18 3 0.001 0.00365946 0.00203393 -0.0382878 -2.58531e-10 -8.60402e-11 2.95462e-11 0 2.60201e-09
19 3 0.001 0.00387083 0.00215143 -0.0377034 -1.63031e-10 -2.99419e-10 3.40827e-11 0 2.60715e-09
20 3 0.001 0.00407914 0.00226722 -0.0371176 -2.95961e-10 -7.90961e-11 3.58909e-11 0 2.61236e-09
21 3 0.001 0.00428424 0.00238123 -0.0365304 -1.66052e-10 -3.39445e-10 3.80059e-11 0 2.61761e-09
22 3 0.001 0.00448596 0.00249337 -0.0359416 -3.28304e-10 -8.64936e-11 4.50838e-11 0 2.62287e-09
23 3 0.001 0.00468418 0.00260357 -0.0353513 -1.84588e-10 -3.75029e-10 4.69871e-11 0 2.62808e-09
24 3 0.001 0.00487875 0.00271173 -0.0347593 -3.33989e-10 -1.23048e-10 5.20326e-11 0 2.63323e-09
25 3 0.001 0.00506954 0.0028178 -0.0341658 -2.75858e-10 -2.6291e-10 5.47721e-11 0 2.63827e-09
26 3 0.001 0.00525641 0.0029217 -0.0335706 -2.45234e-10 -3.41401e-10 5.91895e-11 0 2.64317e-09
27 3 0.001 0.00543925 0.00302335 -0.0329738 -3.44286e-10 -1.96506e-10 6.53101e-11 0 2.6479e-09
28 3 0.001 0.00561793 0.0031227 -0.0323754 -2.79285e-10 -3.16617e-10 6.45975e-11 0 2.65241e-09
29 3 0.001 0.00579236 0.00321969 -0.0317753 -3.32279e-10 -2.60511e-10 7.19034e-11 0 2.65668e-09
30 3 0.001 0.00596243 0.00331426 -0.0311736 -3.07283e-10 -3.38274e-10 7.6683e-11 0 2.66068e-09
31 3 0.001 0.00612805 0.00340636 -0.0305703 -3.67736e-10 -2.21663e-10 7.58711e-11 0 2.66438e-09
32 3 0.001 0.00628912 0.00349593 -0.0299653 -2.87751e-10 -4.08426e-10 8.30408e-11 0 2.66775e-09
33 3 0.001 0.00644557 0.00358294 -0.0293588 -3.65395e-10 -2.8098e-10 8.51473e-11 0 2.67077e-09
34 3 0.001 0.00659732 0.00366734 -0.0287507 -3.64624e-10 -2.88873e-10 8.5878e-11 0 2.67341e-09
35 3 0.001 0.00674432 0.00374911 -0.0281411 -3.15275e-10 -4.11105e-10 9.16197e-11 0 2.67567e-09
36 3 0.001 0.00688651 0.0038282 -0.02753 -4.20462e-10 -2.27112e-10 9.15988e-11 0 2.67752e-09
37 3 0.001 0.00702384 0.00390459 -0.0269174 -3.17382e-10 -4.20711e-10 9.38293e-11 0 2.67894e-09
38 3 0.001 0.00715628 0.00397827 -0.0263035 -3.50319e-10 -3.87858e-10 9.66985e-11 0 2.67993e-09
39 3 0.001 0.00728379 0.00404922 -0.0256882 -4.29402e-10 -2.26188e-10 9.47712e-11 0 2.68049e-09
40 3 0.001 0.00740636 0.00411742 -0.0250715 -3.28916e-10 -4.40749e-10 9.8452e-11 0 2.68061e-09
41 3 0.001 0.00752397 0.00418287 -0.0244536 -4.18924e-10 -2.82255e-10 9.76445e-11 0 2.68028e-09
42 3 0.001 0.00763663 0.00424557 -0.0238345 -2.88357e-10 -5.05502e-10 9.693e-11 0 2.67952e-09
43 3 0.001 0.00774435 0.00430553 -0.0232142 -4.72044e-10 -1.86698e-10 9.63138e-11 0 2.67832e-09
44 3 0.001 0.00784713 0.00436275 -0.0225929 -3.46265e-10 -4.14479e-10 9.70286e-11 0 2.6767e-09
45 3 0.001 0.00794501 0.00441724 -0.0219705 -3.58802e-10 -3.75493e-10 9.35248e-11 0 2.67467e-09
46 3 0.001 0.00803802 0.00446904 -0.0213471 -3.62723e-10 -3.93843e-10 9.42958e-11 0 2.67224e-09
47 3 0.001 0.00812621 0.00451815 -0.0207228 -4.45548e-10 -1.99347e-10 8.87344e-11 0 2.66944e-09
48 3 0.001 0.00820963 0.00456462 -0.0200977 -2.65321e-10 -5.34888e-10 8.89567e-11 0 2.66629e-09
49 3 0.001 0.00828834 0.00460848 -0.0194717 -4.41169e-10 -2.2363e-10 8.65911e-11 0 2.6628e-09
50 3 0.001 0.00836242 0.00464977 -0.0188451 -3.34401e-10 -3.63791e-10 8.12438e-11 0 2.65901e-09
51 3 0.001 0.00843195 0.00468852 -0.0182177 -3.52595e-10 -3.45121e-10 8.02058e-11 0 2.65494e-09
52 3 0.001 0.00849701 0.0047248 -0.0175897 -3.60488e-10 -3.11941e-10 7.63323e-11 0 2.65063e-09
53 3 0.001 0.00855771 0.00475866 -0.0169611 -3.20428e-10 -3.42356e-10 7.13181e-11 0 2.6461e-09
54 3 0.001 0.00861415 0.00479015 -0.016332 -3.4037e-10 -2.92451e-10 6.84186e-11 0 2.64139e-09
55 3 0.001 0.00866645 0.00481935 -0.0157025 -3.57596e-10 -2.60323e-10 6.6438e-11 0 2.63654e-09
56 3 0.001 0.00871472 0.0048463 -0.0150725 -2.41984e-10 -4.15416e-10 6.08901e-11 0 2.63157e-09
57 3 0.001 0.0087591 0.0048711 -0.0144421 -3.58307e-10 -1.7141e-10 5.69637e-11 0 2.62653e-09
58 3 0.001 0.00879972 0.00489381 -0.0138115 -3.13392e-10 -2.54138e-10 5.42352e-11 0 2.62146e-09
59 3 0.001 0.00883673 0.00491452 -0.0131805 -2.03778e-10 -3.9014e-10 4.97037e-11 0 2.61638e-09
60 3 0.001 0.00887028 0.00493331 -0.0125492 -3.20266e-10 -1.53562e-10 4.71937e-11 0 2.61134e-09
61 3 0.001 0.00890052 0.00495026 -0.0119178 -2.6389e-10 -2.2451e-10 4.34938e-11 0 2.60637e-09
62 3 0.001 0.00892762 0.00496546 -0.0112861 -2.11466e-10 -2.76789e-10 4.09298e-11 0 2.60151e-09
63 3 0.001 0.00895174 0.00497902 -0.0106543 -2.37136e-10 -1.88215e-10 3.7571e-11 0 2.59679e-09
64 3 0.001 0.00897307 0.00499102 -0.0100224 -2.3444e-10 -1.6606e-10 3.51525e-11 0 2.59225e-09
65 3 0.001 0.00899177 0.00500156 -0.00939037 -1.64335e-10 -2.34966e-10 3.32233e-11 0 2.58791e-09
66 3 0.001 0.00900804 0.00501076 -0.00875823 -1.98133e-10 -1.27114e-10 3.08869e-11 0 2.58372e-09
67 3 0.001 0.00902207 0.0050187 -0.00812603 -1.7511e-10 -1.53456e-10 3.00255e-11 0 2.57952e-09
68 3 0.001 0.00903403 0.0050255 -0.00749377 -1.53882e-10 -1.22393e-10 2.79565e-11 0 2.57531e-09
69 3 0.001 0.00904413 0.00503127 -0.00686146 -9.52871e-11 -1.90835e-10 2.77568e-11 0 2.57127e-09
70 3 0.001 0.00905255 0.00503609 -0.00622912 -1.70042e-10 -2.84925e-11 2.64538e-11 0 2.56756e-09
71 3 0.001 0.00905946 0.00504007 -0.00559676 -1.27863e-10 -6.35668e-11 2.60697e-11 0 2.5643e-09
72 3 0.001 0.00906502 0.00504328 -0.00496438 -8.17071e-12 -2.40279e-10 2.65301e-11 0 2.56156e-09
73 3 0.001 0.00906938 0.00504582 -0.00433199 -1.64922e-10 7.69246e-11 2.60877e-11 0 2.55938e-09
74 3 0.001 0.00907266 0.00504773 -0.00369958 -6.98623e-11 -9.78535e-11 2.62611e-11 0 2.55774e-09
75 3 0.001 0.00907495 0.00504907 -0.00306717 -4.25892e-11 -1.01042e-10 2.66389e-11 0 2.55664e-09
76 3 0.001 0.00907633 0.00504988 -0.00243476 -7.3855e-11 -4.50727e-11 2.70212e-11 0 2.55605e-09
77 3 0.001 0.00907685 0.00505018 -0.00180235 -7.26184e-11 -3.04884e-11 2.70421e-11 0 2.55594e-09
78 3 0.001 0.0090765 0.00504998 -0.00116993 -7.45177e-11 -2.78351e-11 2.76082e-11 0 2.55632e-09
79 3 0.001 0.0090753 0.00504927 -0.000537517 -4.71545e-11 -8.60517e-11 2.82054e-11 0 2.55718e-09
80 3 0.001 0.00907319 0.00504803 9.48932e-05 -5.8017e-11 -6.13305e-11 2.86615e-11 0 2.55855e-09
81 3 0.001 0.0090701 0.00504624 0.000727298 -6.00596e-11 -5.87759e-11 2.89704e-11 0 2.56045e-09
82 3 0.001 0.00906595 0.00504382 0.00135969 -1.51103e-10 4.14722e-11 2.84848e-11 0 2.5629e-09
83 3 0.001 0.0090606 0.00504073 0.00199208 1.32863e-11 -2.14722e-10 2.83843e-11 0 2.56592e-09
84 3 0.001 0.00905394 0.0050369 0.00262444 -1.33423e-10 1.24287e-12 2.86761e-11 0 2.56947e-09
85 3 0.001 0.00904579 0.00503222 0.00325679 -1.4991e-10 -2.34089e-12 2.76572e-11 0 2.5735e-09
86 3 0.001 0.00903597 0.00502662 0.0038891 -8.5934e-12 -2.68035e-10 2.71742e-11 0 2.57789e-09
87 3 0.001 0.00902432 0.00501999 0.00452137 -1.76256e-10 -8.48076e-12 2.63546e-11 0 2.58249e-09
88 3 0.001 0.00901063 0.00501223 0.00515358 -1.68159e-10 -4.96574e-11 2.41023e-11 0 2.5871e-09
89 3 0.001 0.00899471 0.00500323 0.00578572 -1.03868e-10 -1.81678e-10 2.30764e-11 0 2.5917e-09
90 3 0.001 0.00897637 0.00499289 0.00641778 -1.20847e-10 -1.87216e-10 2.11259e-11 0 2.59641e-09
91 3 0.001 0.00895543 0.00498111 0.00704973 -2.11781e-10 -5.94386e-11 1.89945e-11 0 2.60134e-09
93 3 0.001 0.00890501 0.0049528 0.00831322 -1.50646e-10 -2.2165e-10 1.36876e-11 0 2.6117e-09
92 3 0.001 0.0089317 0.00496778 0.00768155 -1.69782e-10 -1.48019e-10 1.60546e-11 0 2.60644e-09
94 3 0.001 0.00887519 0.00493609 0.0089447 -2.00281e-10 -1.38521e-10 1.14234e-11 0 2.61708e-09
95 3 0.001 0.00884207 0.00491754 0.00957596 -2.1369e-10 -1.52088e-10 7.39305e-12 0 2.62254e-09
96 3 0.001 0.0088055 0.00489708 0.010207 -1.74062e-10 -2.45842e-10 4.50883e-12 0 2.62804e-09
97 3 0.001 0.00876532 0.00487462 0.0108377 -2.15968e-10 -1.78031e-10 1.42728e-12 0 2.63354e-09
98 3 0.001 0.00872138 0.00485007 0.0114681 -2.44993e-10 -1.69683e-10 -2.3082e-12 0 2.63902e-09
101 3 0.001 0.00856568 0.00476316 0.0133569 -2.36874e-10 -2.46574e-10 -1.34206e-11 0 2.65488e-09
99 3 0.001 0.00867355 0.00482335 0.0120981 -1.97714e-10 -2.39999e-10 -4.55912e-12 0 2.64442e-09
100 3 0.001 0.00862169 0.00479441 0.0127277 -2.18861e-10 -2.29882e-10 -8.50068e-12 0 2.64972e-09
102 3 0.001 0.00850541 0.00472954 0.0139855 -2.61785e-10 -1.53254e-10 -1.37583e-11 0 2.65986e-09
103 3 0.001 0.00844076 0.00469349 0.0146135 -1.86354e-10 -3.41567e-10 -1.84513e-11 0 2.66462e-09
104 3 0.001 0.00837165 0.00465497 0.015241 -2.99404e-10 -1.49859e-10 -2.17642e-11 0 2.66915e-09
105 3 0.001 0.00829796 0.0046139 0.0158677 -1.81434e-10 -3.37297e-10 -2.21758e-11 0 2.67339e-09
107 3 0.001 0.00813658 0.004524 0.0171189 -2.13565e-10 -2.93167e-10 -2.63726e-11 0 2.68094e-09
106 3 0.001 0.00821963 0.00457026 0.0164937 -2.90285e-10 -1.9503e-10 -2.772e-11 0 2.67733e-09
108 3 0.001 0.00804874 0.00447508 0.0177433 -2.53536e-10 -2.52794e-10 -3.07017e-11 0 2.68419e-09
110 3 0.001 0.00785849 0.00436914 0.0189891 -1.8453e-10 -3.78257e-10 -3.34611e-11 0 2.68953e-09
109 3 0.001 0.00795606 0.00442347 0.0183667 -2.72155e-10 -2.13233e-10 -3.14294e-11 0 2.68706e-09
111 3 0.001 0.007756 0.00431209 0.0196106 -2.76497e-10 -2.04246e-10 -3.29158e-11 0 2.69158e-09
112 3 0.001 0.00764855 0.00425228 0.0202309 -2.48534e-10 -2.48498e-10 -3.39451e-11 0 2.69321e-09
113 3 0.001 0.00753613 0.00418972 0.02085 -2.13912e-10 -3.24137e-10 -3.4641e-11 0 2.6944e-09
114 3 0.001 0.00741873 0.00412439 0.021468 -2.37824e-10 -2.65512e-10 -3.43883e-11 0 2.69514e-09
115 3 0.001 0.00729635 0.00405629 0.0220847 -2.56414e-10 -2.25219e-10 -3.3847e-11 0 2.69543e-09
117 3 0.001 0.0070367 0.00391183 0.0233141 -2.9478e-10 -1.41236e-10 -3.034e-11 0 2.69466e-09
116 3 0.001 0.007169 0.00398543 0.0227001 -1.73507e-10 -3.7449e-10 -3.35863e-11 0 2.69526e-09
119 3 0.001 0.00675735 0.00375644 0.0245378 -2.35817e-10 -2.29109e-10 -2.79557e-11 0 2.69213e-09
118 3 0.001 0.00689947 0.00383549 0.0239266 -1.64602e-10 -3.77593e-10 -3.22371e-11 0 2.69361e-09
120 3 0.001 0.0066104 0.0036747 0.0251474 -2.18497e-10 -2.45719e-10 -2.70373e-11 0 2.69023e-09
122 3 0.001 0.00630218 0.00350328 0.026362 -2.47232e-10 -1.7684e-10 -2.26356e-11 0 2.68524e-09
121 3 0.001 0.00645865 0.0035903 0.0257555 -1.7919e-10 -3.17759e-10 -2.52138e-11 0 2.68793e-09
124 3 0.001 0.00597535 0.00332153 0.0275702 -2.2394e-10 -1.848e-10 -1.70137e-11 0 2.6788e-09
125 3 0.001 0.00580517 0.0032269 0.0281719 -1.72847e-10 -2.71003e-10 -1.59031e-11 0 2.67511e-09
123 3 0.001 0.00614105 0.00341367 0.0269669 -1.47208e-10 -3.45785e-10 -2.06952e-11 0 2.68219e-09
127 3 0.001 0.00545172 0.00303037 0.0293703 -1.86825e-10 -2.07712e-10 -9.05895e-12 0 2.6669e-09
126 3 0.001 0.00563059 0.00312982 0.0287719 -1.7837e-10 -2.46872e-10 -1.37138e-11 0 2.67113e-09
128 3 0.001 0.00526867 0.00292859 0.029967 -1.28402e-10 -3.00199e-10 -7.96307e-12 0 2.66244e-09
129 3 0.001 0.00508155 0.00282456 0.030562 -2.52772e-10 -6.66804e-11 -6.08985e-12 0 2.65781e-09
130 3 0.001 0.0048905 0.00271834 0.0311554 -4.4813e-11 -4.11174e-10 -1.61452e-12 0 2.65302e-09
131 3 0.001 0.00469563 0.00261 0.0317472 -2.16757e-10 -8.74583e-11 -8.23067e-13 0 2.64812e-09
132 3 0.001 0.00449707 0.00249962 0.0323374 -1.35027e-10 -2.164e-10 1.41802e-12 0 2.64315e-09
135 3 0.001 0.00388078 0.00215702 0.0340987 -1.2163e-10 -1.84614e-10 6.22073e-12 0 2.62813e-09
133 3 0.001 0.00429498 0.00238728 0.032926 -1.2642e-10 -2.18388e-10 1.87658e-12 0 2.63813e-09
134 3 0.001 0.0040895 0.00227305 0.0335131 -1.37491e-10 -1.67405e-10 7.06217e-12 0 2.63312e-09
136 3 0.001 0.00366896 0.00203928 0.0346828 -1.18539e-10 -1.63978e-10 8.77775e-12 0 2.62322e-09
137 3 0.001 0.00345422 0.00191991 0.0352655 -1.00789e-10 -1.78766e-10 8.01953e-12 0 2.61842e-09
138 3 0.001 0.00323671 0.00179901 0.0358469 -1.15454e-10 -1.31074e-10 9.40187e-12 0 2.61376e-09
140 3 0.001 0.00279409 0.00155298 0.0370059 -9.34038e-11 -1.35338e-10 8.313e-12 0 2.60501e-09
139 3 0.001 0.00301661 0.00167666 0.036427 -9.70208e-11 -1.28827e-10 1.26652e-11 0 2.60928e-09
142 3 0.001 0.00234246 0.00130195 0.0381604 -8.55648e-11 -7.96644e-11 1.35887e-11 0 2.59723e-09
143 3 0.001 0.00211371 0.00117481 0.0387361 -9.20513e-11 -6.13572e-11 9.0465e-12 0 2.59377e-09
141 3 0.001 0.00256931 0.00142804 0.0375837 -6.0578e-11 -1.63185e-10 1.07154e-11 0 2.60098e-09
144 3 0.001 0.00188326 0.00104672 0.0393109 -2.13016e-11 -1.6248e-10 9.38713e-12 0 2.59064e-09
145 3 0.001 0.00165128 0.000917778 0.0398849 -9.34814e-11 -1.27226e-11 6.79149e-12 0 2.58786e-09
146 3 0.001 0.00141796 0.000788097 0.0404583 1.11891e-11 -1.53254e-10 1.31907e-11 0 2.58544e-09
147 3 0.001 0.00118348 0.000657776 0.041031 -1.13297e-10 6.55893e-11 3.31299e-12 0 2.58342e-09
148 3 0.001 0.00094805 0.000526922 0.0416031 2.21133e-11 -1.42632e-10 5.95879e-12 0 2.58179e-09
149 3 0.001 0.000711845 0.00039564 0.0421749 -3.06451e-11 -8.37548e-13 8.03164e-12 0 2.48872e-09
150 3 0.001 0.000475048 0.000264029 0.0427464 -2.62178e-11 -3.18669e-11 -3.5734e-12 0 1.28356e-09
151 3 0.001 0.000237621 0.000132068 0.0433182 -4.05004e-12 4.78883e-12 7.11967e-12 0 1.70755e-10
2 2 0.001 0 0 0.04389 -0.00112293 -0.000624798 0.00558211 0 8.53693e-11
