ITEM: TIMESTEP
5800000
ITEM: NUMBER OF ATOMS
151
ITEM: BOX BOUNDS ff ff ff
-1.0000000000000000e-02 1.0000000000000000e-02
-6.0000000000000001e-03 6.0000000000000001e-03
-5.2499999999999998e-02 5.2499999999999998e-02
ITEM: ATOMS id type radius x y z fx fy fz c_bendingE c_stretchingE
3 3 0.001 0.000337062 0.00031215 -0.0470657 5.92088e-11 -2.14075e-11 -3.2916e-11 0 4.20769e-09
1 1 0.001 0 0 -0.0475 -0.00441562 -0.000140439 -0.0129383 0 2.09843e-09
4 3 0.001 0.000673802 0.000623221 -0.0466305 7.53264e-11 -2.13088e-11 -4.86642e-11 0 7.24005e-09
5 3 0.001 0.00100955 0.000931813 -0.0461936 1.19631e-10 -3.78662e-11 -7.57508e-11 0 1.05088e-08
6 3 0.001 0.00134429 0.00123715 -0.0457538 1.80921e-10 -6.36986e-11 -1.09023e-10 0 1.08231e-08
7 3 0.001 0.0016777 0.00153816 -0.04531 2.09759e-10 -6.51523e-11 -1.31363e-10 0 1.09728e-08
8 3 0.001 0.00200941 0.00183377 -0.0448614 2.48313e-10 -8.51503e-11 -1.491e-10 0 1.11527e-08
9 3 0.001 0.00233904 0.00212286 -0.044407 2.83686e-10 -8.86542e-11 -1.73805e-10 0 1.13607e-08
10 3 0.001 0.00266618 0.00240436 -0.0439462 3.303e-10 -1.12594e-10 -1.96249e-10 0 1.15944e-08
11 3 0.001 0.00299038 0.00267717 -0.0434781 3.69943e-10 -1.30777e-10 -2.17012e-10 0 1.18512e-08
12 3 0.001 0.0033112 0.00294018 -0.0430022 3.80518e-10 -1.23263e-10 -2.28944e-10 0 1.21275e-08
13 3 0.001 0.00362815 0.00319233 -0.0425179 4.423e-10 -1.56816e-10 -2.53477e-10 0 1.24197e-08
14 3 0.001 0.0039407 0.00343252 -0.0420248 4.52624e-10 -1.59347e-10 -2.60446e-10 0 1.27234e-08
15 3 0.001 0.00424833 0.00365972 -0.0415225 4.76898e-10 -1.69169e-10 -2.72474e-10 0 1.30341e-08
16 3 0.001 0.00455047 0.0038729 -0.0410109 5.24632e-10 -1.97518e-10 -2.90964e-10 0 1.33466e-08
17 3 0.001 0.00484655 0.00407105 -0.0404899 5.19879e-10 -1.89262e-10 -2.91716e-10 0 1.36556e-08
18 3 0.001 0.00513598 0.00425325 -0.0399594 5.55384e-10 -2.12311e-10 -3.03766e-10 0 1.39555e-08
19 3 0.001 0.00541818 0.00441858 -0.0394195 5.57926e-10 -2.20289e-10 -3.04117e-10 0 1.42408e-08
20 3 0.001 0.00569254 0.00456623 -0.0388706 5.87028e-10 -2.37995e-10 -3.1531e-10 0 1.45059e-08
21 3 0.001 0.00595849 0.00469544 -0.038313 5.76989e-10 -2.34502e-10 -3.11555e-10 0 1.47453e-08
22 3 0.001 0.00621544 0.00480554 -0.0377472 5.92281e-10 -2.53905e-10 -3.1396e-10 0 1.49541e-08
23 3 0.001 0.00646287 0.00489595 -0.0371737 6.01128e-10 -2.63763e-10 -3.16804e-10 0 1.51278e-08
24 3 0.001 0.00670026 0.0049662 -0.0365932 5.73725e-10 -2.57414e-10 -3.08514e-10 0 1.52626e-08
25 3 0.001 0.00692713 0.00501591 -0.0360064 5.96658e-10 -2.82075e-10 -3.15899e-10 0 1.53547e-08
26 3 0.001 0.00714306 0.00504483 -0.0354141 5.65331e-10 -2.68916e-10 -3.0505e-10 0 1.54023e-08
27 3 0.001 0.00734769 0.00505283 -0.0348172 5.72059e-10 -2.83714e-10 -3.06461e-10 0 1.54106e-08
28 3 0.001 0.00754071 0.00503985 -0.0342165 5.37046e-10 -2.77359e-10 -2.95823e-10 0 1.53836e-08
29 3 0.001 0.00772188 0.00500598 -0.0336129 5.35044e-10 -2.80768e-10 -2.96446e-10 0 1.53156e-08
30 3 0.001 0.00789104 0.00495139 -0.0330074 5.03158e-10 -2.75803e-10 -2.88516e-10 0 1.52033e-08
31 3 0.001 0.00804809 0.00487638 -0.0324008 4.75244e-10 -2.69326e-10 -2.8128e-10 0 1.50502e-08
32 3 0.001 0.00819303 0.00478134 -0.0317939 4.73992e-10 -2.70382e-10 -2.80432e-10 0 1.48598e-08
33 3 0.001 0.00832591 0.00466678 -0.0311877 4.12483e-10 -2.48794e-10 -2.62831e-10 0 1.46364e-08
34 3 0.001 0.00844687 0.00453332 -0.0305828 4.04137e-10 -2.55285e-10 -2.65476e-10 0 1.43847e-08
37 3 0.001 0.00874088 0.00402684 -0.0287828 3.06382e-10 -2.15493e-10 -2.39788e-10 0 1.35128e-08
36 3 0.001 0.00865403 0.00421253 -0.0293797 3.34074e-10 -2.22741e-10 -2.4675e-10 0 1.38173e-08
35 3 0.001 0.00855615 0.00438164 -0.0299799 3.72138e-10 -2.36634e-10 -2.55059e-10 0 1.41098e-08
39 3 0.001 0.00888331 0.00360938 -0.0276 2.45615e-10 -1.8825e-10 -2.25567e-10 0 1.289e-08
38 3 0.001 0.00881714 0.00382547 -0.0281894 2.70997e-10 -1.97068e-10 -2.30851e-10 0 1.32019e-08
42 3 0.001 0.00902706 0.00288299 -0.0258572 1.56787e-10 -1.47436e-10 -2.04004e-10 0 1.19976e-08
40 3 0.001 0.00893993 0.00337958 -0.0270147 2.13236e-10 -1.74825e-10 -2.18999e-10 0 1.25824e-08
41 3 0.001 0.00898763 0.0031371 -0.0264338 1.7508e-10 -1.43339e-10 -2.0287e-10 0 1.2284e-08
45 3 0.001 0.00910284 0.00206173 -0.0241523 8.84808e-11 -9.78865e-11 -1.81299e-10 0 1.12434e-08
44 3 0.001 0.00908392 0.00234421 -0.0247167 9.56155e-11 -9.68407e-11 -1.79581e-10 0 1.14717e-08
43 3 0.001 0.00905891 0.00261833 -0.0252849 1.3128e-10 -1.23999e-10 -1.93873e-10 0 1.17252e-08
47 3 0.001 0.00912527 0.00147603 -0.0230337 4.97024e-11 -5.65324e-11 -1.59787e-10 0 1.08784e-08
46 3 0.001 0.00911638 0.00177197 -0.0235915 5.50763e-11 -6.35385e-11 -1.63323e-10 0 1.10447e-08
50 3 0.001 0.00913049 0.000562074 -0.0213745 6.43821e-12 -5.2093e-12 -1.35238e-10 0 1.05772e-08
49 3 0.001 0.00913172 0.000869992 -0.0219258 1.76796e-11 -1.41291e-11 -1.39704e-10 0 1.06452e-08
48 3 0.001 0.00913017 0.00117501 -0.0224787 2.45568e-11 -3.5603e-11 -1.50011e-10 0 1.07453e-08
53 3 0.001 0.00911529 -0.000368253 -0.0197243 -3.96072e-11 6.22284e-11 -1.00031e-10 0 1.05486e-08
52 3 0.001 0.00912179 -5.81103e-05 -0.0202744 -4.08301e-12 2.68694e-11 -1.18208e-10 0 1.05311e-08
51 3 0.001 0.00912701 0.000252343 -0.0208242 -9.52888e-12 2.84425e-11 -1.15786e-10 0 1.05398e-08
55 3 0.001 0.00909949 -0.000983298 -0.0186214 -1.6625e-11 9.23266e-11 -8.50792e-11 0 1.06585e-08
54 3 0.001 0.00910777 -0.000677019 -0.0191736 -1.36096e-11 7.33879e-11 -9.39564e-11 0 1.05914e-08
56 3 0.001 0.00909071 -0.001286 -0.0180673 -6.33818e-11 1.14124e-10 -7.35961e-11 0 1.0748e-08
58 3 0.001 0.00907239 -0.00187636 -0.0169511 -3.30489e-11 1.55136e-10 -5.24945e-11 0 1.09881e-08
57 3 0.001 0.00908162 -0.00158405 -0.0175107 -2.98275e-11 1.28123e-10 -6.66471e-11 0 1.08584e-08
60 3 0.001 0.00905406 -0.00243952 -0.0158209 -3.3619e-11 1.90822e-10 -3.74058e-11 0 1.12979e-08
59 3 0.001 0.00906317 -0.00216188 -0.016388 -6.06071e-11 1.67037e-10 -4.94199e-11 0 1.11352e-08
61 3 0.001 0.00904516 -0.00270825 -0.0152497 -6.18667e-11 2.12116e-10 -2.78942e-11 0 1.1474e-08
63 3 0.001 0.00902826 -0.00321478 -0.0140931 -3.85727e-11 2.55398e-10 -1.02049e-11 0 1.18572e-08
62 3 0.001 0.00903654 -0.00296701 -0.0146738 -5.79616e-11 2.22495e-10 -2.36088e-11 0 1.16613e-08
65 3 0.001 0.00901289 -0.00367337 -0.0129169 -6.25932e-11 2.88652e-10 8.08889e-13 0 1.22639e-08
64 3 0.001 0.00902036 -0.00345056 -0.0135075 -7.30188e-11 2.64977e-10 -7.78392e-12 0 1.2059e-08
66 3 0.001 0.00900588 -0.00388227 -0.0123212 -5.52241e-11 3.06718e-10 6.64234e-12 0 1.24685e-08
67 3 0.001 0.00899936 -0.00407635 -0.0117205 -5.8514e-11 3.25616e-10 1.31113e-11 0 1.26698e-08
68 3 0.001 0.00899336 -0.00425477 -0.011115 -8.61874e-11 3.47378e-10 1.83746e-11 0 1.28645e-08
70 3 0.001 0.00898304 -0.00456147 -0.00989044 -6.04523e-11 3.81919e-10 2.58872e-11 0 1.32206e-08
71 3 0.001 0.00897876 -0.00468833 -0.00927209 -8.16893e-11 3.98497e-10 2.86638e-11 0 1.33756e-08
69 3 0.001 0.00898791 -0.00441672 -0.0105049 -6.10769e-11 3.57343e-10 2.02382e-11 0 1.30492e-08
72 3 0.001 0.0089751 -0.00479673 -0.00865025 -7.21253e-11 4.05917e-10 3.01082e-11 0 1.35113e-08
73 3 0.001 0.00897208 -0.00488614 -0.00802541 -7.12845e-11 4.23906e-10 3.23001e-11 0 1.3625e-08
75 3 0.001 0.00896801 -0.0050064 -0.0067689 -6.55601e-11 4.46114e-10 3.28037e-11 0 1.37781e-08
74 3 0.001 0.00896971 -0.00495614 -0.0073981 -8.05636e-11 4.42176e-10 3.31621e-11 0 1.37146e-08
76 3 0.001 0.00896698 -0.00503669 -0.00613843 -8.67901e-11 4.53652e-10 3.37029e-11 0 1.38136e-08
77 3 0.001 0.00896662 -0.00504686 -0.00550731 -7.23333e-11 4.66511e-10 3.41899e-11 0 1.38245e-08
78 3 0.001 0.00896694 -0.00503688 -0.00487619 -7.12302e-11 4.69201e-10 3.26907e-11 0 1.38149e-08
79 3 0.001 0.00896794 -0.00500679 -0.00424571 -7.88102e-11 4.70919e-10 3.27088e-11 0 1.37806e-08
80 3 0.001 0.00896962 -0.00495672 -0.0036165 -8.63233e-11 4.74583e-10 3.11146e-11 0 1.37183e-08
81 3 0.001 0.00897196 -0.00488691 -0.00298917 -5.9638e-11 4.77578e-10 3.07104e-11 0 1.363e-08
82 3 0.001 0.00897495 -0.00479768 -0.0023643 -7.56295e-11 4.65817e-10 3.34271e-11 0 1.35174e-08
83 3 0.001 0.00897857 -0.00468946 -0.00174243 -7.98165e-11 4.72717e-10 3.11961e-11 0 1.33828e-08
84 3 0.001 0.00898282 -0.00456276 -0.00112405 -7.20612e-11 4.63582e-10 3.17382e-11 0 1.32289e-08
85 3 0.001 0.00898767 -0.00441817 -0.0005096 -6.08289e-11 4.56767e-10 3.28504e-11 0 1.30584e-08
86 3 0.001 0.0089931 -0.00425637 0.000100552 -7.42843e-11 4.51906e-10 3.44017e-11 0 1.28746e-08
87 3 0.001 0.00899908 -0.00407808 0.000706104 -6.9426e-11 4.4041e-10 3.78278e-11 0 1.26807e-08
88 3 0.001 0.00900558 -0.00388412 0.00130683 -5.83877e-11 4.34078e-10 3.87344e-11 0 1.24801e-08
89 3 0.001 0.00901257 -0.00367533 0.00190258 -6.22385e-11 4.24552e-10 4.11209e-11 0 1.22761e-08
90 3 0.001 0.00902003 -0.00345262 0.00249327 -6.71099e-11 4.11474e-10 4.58489e-11 0 1.20718e-08
91 3 0.001 0.00902792 -0.00321692 0.00307892 -5.15018e-11 4.02209e-10 4.91861e-11 0 1.18705e-08
92 3 0.001 0.0090362 -0.00296922 0.0036596 -5.50285e-11 3.86056e-10 5.59802e-11 0 1.1675e-08
93 3 0.001 0.00904482 -0.00271051 0.00423548 -5.81453e-11 3.79388e-10 5.71061e-11 0 1.14881e-08
94 3 0.001 0.00905372 -0.00244183 0.00480679 -4.76162e-11 3.65009e-10 6.39466e-11 0 1.13123e-08
95 3 0.001 0.00906284 -0.00216421 0.00537382 -4.13101e-11 3.46614e-10 7.18049e-11 0 1.115e-08
96 3 0.001 0.00907207 -0.00187871 0.00593693 -5.33057e-11 3.34133e-10 7.81551e-11 0 1.10032e-08
97 3 0.001 0.00908132 -0.0015864 0.00649655 -3.57422e-11 3.23431e-10 8.27915e-11 0 1.08738e-08
98 3 0.001 0.00909044 -0.00128834 0.00705315 -3.95528e-11 3.08733e-10 8.91753e-11 0 1.07636e-08
99 3 0.001 0.00909927 -0.000985609 0.00760723 -3.34416e-11 2.86444e-10 1.00856e-10 0 1.06743e-08
100 3 0.001 0.00910759 -0.000679291 0.00815936 -1.8494e-11 2.7425e-10 1.06636e-10 0 1.06074e-08
101 3 0.001 0.00911517 -0.000370475 0.00871011 -3.04711e-11 2.58417e-10 1.15378e-10 0 1.05648e-08
102 3 0.001 0.00912175 -6.02688e-05 0.00926009 -1.56447e-11 2.4526e-10 1.21256e-10 0 1.05475e-08
103 3 0.001 0.00912707 0.000250258 0.0098099 3.10362e-12 2.18269e-10 1.35002e-10 0 1.05565e-08
104 3 0.001 0.00913066 0.000560072 0.0103601 6.28696e-12 2.05256e-10 1.42177e-10 0 1.0594e-08
105 3 0.001 0.00913201 0.000868084 0.0109114 -6.69083e-12 2.00471e-10 1.43846e-10 0 1.06622e-08
106 3 0.001 0.00913062 0.0011732 0.0114642 6.39058e-11 1.50001e-10 1.70922e-10 0 1.07625e-08
107 3 0.001 0.00912588 0.00147434 0.0120192 1.25389e-11 1.71168e-10 1.58432e-10 0 1.08958e-08
108 3 0.001 0.00911719 0.00177039 0.0125769 9.12672e-11 1.10164e-10 1.90498e-10 0 1.10626e-08
109 3 0.001 0.00910386 0.00206028 0.0131376 6.06477e-11 1.28275e-10 1.79303e-10 0 1.12618e-08
110 3 0.001 0.00908519 0.00234291 0.0137019 1.18126e-10 8.45024e-11 2.02887e-10 0 1.1491e-08
111 3 0.001 0.00906044 0.00261717 0.0142701 1.22414e-10 7.40087e-11 2.06998e-10 0 1.17456e-08
112 3 0.001 0.00902886 0.00288198 0.0148424 1.67259e-10 4.16e-11 2.23469e-10 0 1.20195e-08
113 3 0.001 0.00898972 0.00313624 0.0154189 1.66559e-10 4.38539e-11 2.20539e-10 0 1.23075e-08
114 3 0.001 0.00894233 0.00337889 0.0159998 2.38395e-10 -6.58368e-13 2.44572e-10 0 1.26076e-08
115 3 0.001 0.00888601 0.00360885 0.016585 2.29181e-10 -1.71209e-12 2.43196e-10 0 1.29169e-08
116 3 0.001 0.00882016 0.00382511 0.0171744 2.95767e-10 -3.9427e-11 2.6365e-10 0 1.32307e-08
117 3 0.001 0.00874421 0.00402665 0.0177677 2.83924e-10 -3.75434e-11 2.59279e-10 0 1.35437e-08
118 3 0.001 0.00865767 0.00421251 0.0183647 3.76084e-10 -8.46788e-11 2.87147e-10 0 1.38503e-08
119 3 0.001 0.00856009 0.00438179 0.0189649 3.52996e-10 -6.77184e-11 2.77902e-10 0 1.4145e-08
121 3 0.001 0.00833041 0.00466727 0.0201727 4.32685e-10 -1.16647e-10 3.03111e-10 0 1.4676e-08
120 3 0.001 0.0084511 0.00453364 0.0195678 4.15562e-10 -1.16744e-10 3.00859e-10 0 1.4422e-08
122 3 0.001 0.00819779 0.00478198 0.0207789 4.74101e-10 -1.3889e-10 3.14722e-10 0 1.49015e-08
123 3 0.001 0.00805309 0.00487718 0.0213858 4.74443e-10 -1.3836e-10 3.14822e-10 0 1.50939e-08
124 3 0.001 0.00789624 0.00495235 0.0219925 5.32993e-10 -1.71994e-10 3.33627e-10 0 1.5249e-08
125 3 0.001 0.00772727 0.00500708 0.022598 5.33545e-10 -1.66777e-10 3.33094e-10 0 1.5363e-08
126 3 0.001 0.00754625 0.00504109 0.0232016 5.46272e-10 -1.76047e-10 3.36015e-10 0 1.54325e-08
127 3 0.001 0.00735335 0.00505419 0.0238024 5.83923e-10 -1.90522e-10 3.48059e-10 0 1.54609e-08
129 3 0.001 0.00693294 0.0050175 0.0249916 5.98601e-10 -1.98361e-10 3.52376e-10 0 1.54085e-08
128 3 0.001 0.00714882 0.00504631 0.0243993 5.83438e-10 -1.83326e-10 3.47136e-10 0 1.54543e-08
130 3 0.001 0.0067061 0.00496788 0.0255784 5.9172e-10 -1.83502e-10 3.5078e-10 0 1.5318e-08
131 3 0.001 0.0064687 0.00489772 0.026159 6.11014e-10 -1.92727e-10 3.55389e-10 0 1.51844e-08
132 3 0.001 0.00622123 0.00480737 0.0267324 6.04737e-10 -1.91085e-10 3.53717e-10 0 1.50115e-08
135 3 0.001 0.00542364 0.0044205 0.0284046 5.95232e-10 -1.84684e-10 3.48306e-10 0 1.42989e-08
133 3 0.001 0.0059642 0.00469732 0.0272982 6.00802e-10 -1.84904e-10 3.51885e-10 0 1.48033e-08
134 3 0.001 0.00569814 0.00456814 0.0278558 5.74439e-10 -1.6659e-10 3.43809e-10 0 1.45641e-08
136 3 0.001 0.00514127 0.00425516 0.0289443 5.43589e-10 -1.5634e-10 3.27995e-10 0 1.40133e-08
137 3 0.001 0.00485163 0.00407294 0.0294747 5.67477e-10 -1.69272e-10 3.36597e-10 0 1.37127e-08
138 3 0.001 0.00455533 0.00387474 0.0299956 4.9505e-10 -1.34168e-10 3.07517e-10 0 1.3403e-08
139 3 0.001 0.00425293 0.00366151 0.0305071 5.17979e-10 -1.5791e-10 3.10765e-10 0 1.30895e-08
140 3 0.001 0.00394503 0.00343424 0.0310091 4.47285e-10 -1.1423e-10 2.83783e-10 0 1.27779e-08
142 3 0.001 0.00331493 0.0029417 0.031986 3.89787e-10 -1.0303e-10 2.49222e-10 0 1.21798e-08
143 3 0.001 0.00299378 0.00267857 0.0324616 3.78765e-10 -1.0408e-10 2.40047e-10 0 1.19024e-08
144 3 0.001 0.00266923 0.00240564 0.0329294 3.26625e-10 -9.18315e-11 2.09035e-10 0 1.16446e-08
141 3 0.001 0.00363219 0.00319395 0.031502 4.60756e-10 -1.37947e-10 2.80904e-10 0 1.24731e-08
146 3 0.001 0.00201174 0.00183476 0.0338439 2.3132e-10 -5.46563e-11 1.58145e-10 0 1.12011e-08
147 3 0.001 0.00167965 0.001539 0.0342921 2.44732e-10 -7.74526e-11 1.49035e-10 0 1.10206e-08
145 3 0.001 0.00234174 0.002124 0.0333899 3.12142e-10 -8.55632e-11 1.988e-10 0 1.14099e-08
150 3 0.001 0.000674595 0.000623564 0.0356114 7.39462e-11 -1.11192e-11 5.60798e-11 0 7.27775e-09
148 3 0.001 0.00134586 0.00123783 0.0347355 1.46344e-10 -2.98167e-11 1.05789e-10 0 1.08704e-08
149 3 0.001 0.00101073 0.000932324 0.0351749 1.5292e-10 -5.00191e-11 9.28016e-11 0 1.05553e-08
151 3 0.001 0.000337459 0.000312322 0.0360462 4.91279e-11 -1.85225e-11 2.80814e-11 0 4.23723e-09
2 2 0.001 0 0 0.03648 -0.00442913 -0.000149852 0.012967 0 2.11323e-09
