ITEM: TIMESTEP
5100000
ITEM: NUMBER OF ATOMS
151
ITEM: BOX BOUNDS ff ff ff
-1.0000000000000000e-02 1.0000000000000000e-02
-6.0000000000000001e-03 6.0000000000000001e-03
-5.2499999999999998e-02 5.2499999999999998e-02
ITEM: ATOMS id type radius x y z fx fy fz c_bendingE c_stretchingE
1 1 0.001 0 0 -0.0475 -0.0053565 0 -0.016272 0 4.46329e-09
3 3 0.001 0.000482363 0 -0.0470922 4.19017e-10 0 -5.6416e-10 0 8.96957e-09
4 3 0.001 0.000962429 0 -0.0466818 -1.20353e-09 0 1.28654e-09 0 1.31497e-08
5 3 0.001 0.00143969 0 -0.0462691 1.75624e-09 0 -2.0038e-09 0 1.76358e-08
6 3 0.001 0.00191347 0 -0.0458525 -1.4302e-09 0 1.72046e-09 0 1.81006e-08
7 3 0.001 0.00238261 0 -0.0454307 8.64392e-10 0 -8.95283e-10 0 1.83585e-08
8 3 0.001 0.00284591 0 -0.0450025 -7.38052e-10 0 7.73867e-10 0 1.8666e-08
9 3 0.001 0.00330216 0 -0.0445668 5.84252e-10 0 -6.8334e-10 0 1.90183e-08
10 3 0.001 0.00375011 0 -0.0441227 2.9405e-10 0 -3.28595e-10 0 1.94099e-08
11 3 0.001 0.00418851 0 -0.0436692 -1.20856e-09 0 1.12904e-09 0 1.98341e-08
12 3 0.001 0.00461607 0 -0.0432054 6.9307e-10 0 -6.14079e-10 0 2.02832e-08
13 3 0.001 0.00503152 0 -0.0427308 1.54024e-09 0 -1.2223e-09 0 2.07487e-08
14 3 0.001 0.00543357 0 -0.0422449 -3.30895e-09 0 2.61098e-09 0 2.12215e-08
15 3 0.001 0.00582092 0 -0.0417472 3.93229e-09 0 -3.02806e-09 0 2.16916e-08
16 3 0.001 0.00619233 0 -0.0412375 -3.33857e-09 0 2.33512e-09 0 2.21486e-08
17 3 0.001 0.00654656 0 -0.0407158 2.4828e-09 0 -1.66078e-09 0 2.25822e-08
18 3 0.001 0.00688245 0 -0.0401821 -2.12248e-09 0 1.30736e-09 0 2.29819e-08
19 3 0.001 0.00719889 0 -0.0396367 2.20713e-09 0 -1.20582e-09 0 2.3338e-08
20 3 0.001 0.00749486 0 -0.0390799 -2.0076e-09 0 9.88226e-10 0 2.36412e-08
21 3 0.001 0.00776943 0 -0.0385123 1.74973e-09 0 -8.72186e-10 0 2.38837e-08
22 3 0.001 0.00802181 0 -0.0379345 -5.76679e-10 0 1.71429e-10 0 2.40591e-08
23 3 0.001 0.00825132 0 -0.0373472 -7.45815e-10 0 1.69362e-10 0 2.41625e-08
24 3 0.001 0.00845743 0 -0.0367514 1.00154e-09 0 -3.14875e-10 0 2.41911e-08
25 3 0.001 0.00863979 0 -0.0361478 -1.01684e-09 0 3.5229e-10 0 2.41443e-08
26 3 0.001 0.00879818 0 -0.0355375 1.43872e-09 0 -3.28071e-10 0 2.40231e-08
27 3 0.001 0.00893257 0 -0.0349215 -1.23211e-09 0 1.8072e-10 0 2.3831e-08
28 3 0.001 0.00904309 0 -0.0343007 2.39959e-10 0 -1.93073e-10 0 2.35609e-08
29 3 0.001 0.00913006 0 -0.0336762 1.37127e-09 0 -2.01925e-10 0 2.31886e-08
30 3 0.001 0.00919393 0 -0.0330488 -1.79444e-09 0 1.65119e-10 0 2.27425e-08
31 3 0.001 0.00923526 0 -0.0324196 9.09316e-10 0 -5.02488e-11 0 2.23096e-08
32 3 0.001 0.00925464 0 -0.0317893 -3.88712e-10 0 -5.07016e-11 0 2.196e-08
33 3 0.001 0.00925265 0 -0.0311586 1.06582e-09 0 -3.67361e-11 0 2.1726e-08
34 3 0.001 0.00922981 0 -0.0305284 -1.93827e-09 0 -1.89653e-10 0 2.15999e-08
35 3 0.001 0.0091866 0 -0.0298992 1.51686e-09 0 5.40302e-11 0 2.15394e-08
36 3 0.001 0.00912347 0 -0.0292717 5.06297e-10 0 1.04619e-10 0 2.14792e-08
37 3 0.001 0.00904086 0 -0.0286464 -2.81099e-09 0 -4.41575e-10 0 2.13545e-08
38 3 0.001 0.0089393 0 -0.028024 3.8038e-09 0 6.02453e-10 0 2.11572e-08
39 3 0.001 0.00881936 0 -0.0274048 -2.78768e-09 0 -6.65728e-10 0 2.09207e-08
42 3 0.001 0.00835679 0 -0.0255705 -8.37136e-10 0 -2.93042e-10 0 2.00928e-08
40 3 0.001 0.00868176 0 -0.0267893 1.17285e-09 0 1.85473e-10 0 2.06606e-08
41 3 0.001 0.00852728 0 -0.0261777 1.22288e-10 0 7.04832e-12 0 2.03826e-08
44 3 0.001 0.00797163 0 -0.0243692 -1.01144e-09 0 -4.24178e-10 0 1.95018e-08
43 3 0.001 0.00817124 0 -0.0249676 1.05487e-09 0 2.86959e-10 0 1.97972e-08
46 3 0.001 0.00753454 0 -0.0231858 -1.83477e-09 0 -7.96036e-10 0 1.89347e-08
45 3 0.001 0.00775903 0 -0.0237753 1.11302e-09 0 3.28457e-10 0 1.92125e-08
47 3 0.001 0.00729932 0 -0.0226005 2.79076e-09 0 1.11089e-09 0 1.86737e-08
48 3 0.001 0.00705454 0 -0.022019 -3.20953e-09 0 -1.44046e-09 0 1.84339e-08
49 3 0.001 0.0068014 0 -0.0214412 2.5268e-09 0 1.02763e-09 0 1.82196e-08
51 3 0.001 0.00627499 0 -0.0202945 4.61193e-10 0 1.07304e-10 0 1.7881e-08
50 3 0.001 0.00654114 0 -0.0208665 -9.63425e-10 0 -5.21397e-10 0 1.80342e-08
52 3 0.001 0.00600419 0 -0.0197246 -1.69367e-09 0 -8.98129e-10 0 1.77621e-08
53 3 0.001 0.00573001 0 -0.0191564 2.41445e-09 0 1.0964e-09 0 1.76795e-08
54 3 0.001 0.00545371 0 -0.0185892 -2.48316e-10 0 -2.05446e-10 0 1.76345e-08
57 3 0.001 0.00462472 0 -0.0168876 -9.94399e-10 0 -6.11959e-10 0 1.77286e-08
56 3 0.001 0.0048998 0 -0.0174554 2.55372e-09 0 1.16253e-09 0 1.76593e-08
55 3 0.001 0.00517655 0 -0.0180224 -2.27314e-09 0 -1.19345e-09 0 1.76277e-08
59 3 0.001 0.00408465 0 -0.0157472 -1.17895e-09 0 -6.10082e-10 0 1.79762e-08
58 3 0.001 0.00435259 0 -0.0163184 8.30206e-10 0 2.63788e-10 0 1.78348e-08
60 3 0.001 0.00382216 0 -0.0151735 1.6294e-09 0 6.9063e-10 0 1.81505e-08
62 3 0.001 0.00331848 0 -0.0140167 -5.5827e-10 0 -4.02959e-10 0 1.85861e-08
61 3 0.001 0.00356636 0 -0.0145968 -8.42514e-10 0 -4.69028e-10 0 1.83549e-08
63 3 0.001 0.00307974 0 -0.0134328 3.33456e-09 0 1.11401e-09 0 1.88401e-08
64 3 0.001 0.00285132 0 -0.0128448 -3.94728e-09 0 -1.56207e-09 0 1.91125e-08
65 3 0.001 0.00263438 0 -0.0122524 3.33427e-09 0 1.23594e-09 0 1.93984e-08
66 3 0.001 0.00243004 0 -0.0116556 -9.73883e-10 0 -3.70086e-10 0 1.96923e-08
67 3 0.001 0.00223939 0 -0.0110544 -4.90329e-11 0 -1.36089e-10 0 1.99885e-08
69 3 0.001 0.00190321 0 -0.00983861 -4.45826e-10 0 -2.25475e-10 0 2.0564e-08
70 3 0.001 0.00175953 0 -0.00922447 9.18436e-10 0 1.84047e-10 0 2.08311e-08
68 3 0.001 0.00206346 0 -0.0104487 9.07345e-10 0 7.76997e-11 0 2.02811e-08
71 3 0.001 0.00163326 0 -0.00860654 -6.95073e-10 0 -1.14449e-10 0 2.10766e-08
72 3 0.001 0.00152511 0 -0.00798519 2.08996e-09 0 2.69115e-10 0 2.1295e-08
73 3 0.001 0.00143574 0 -0.00736088 -1.40027e-09 0 -2.70675e-10 0 2.14811e-08
74 3 0.001 0.00136565 0 -0.00673412 5.9507e-10 0 2.26102e-11 0 2.16308e-08
75 3 0.001 0.00131529 0 -0.00610548 1.30502e-09 0 2.90351e-11 0 2.17403e-08
76 3 0.001 0.00128495 0 -0.00547555 -9.03429e-10 0 -4.87338e-11 0 2.18071e-08
77 3 0.001 0.00127481 0 -0.00484498 9.64635e-10 0 6.37665e-11 0 2.18296e-08
78 3 0.001 0.00128494 0 -0.00421442 3.66437e-10 0 2.58743e-12 0 2.18072e-08
79 3 0.001 0.00131528 0 -0.00358449 2.24817e-11 0 2.15195e-11 0 2.17404e-08
80 3 0.001 0.00136564 0 -0.00295585 -7.20035e-12 0 3.98331e-11 0 2.16308e-08
81 3 0.001 0.00143572 0 -0.00232909 8.20609e-10 0 -1.15061e-10 0 2.14812e-08
82 3 0.001 0.0015251 0 -0.00170478 1.45869e-10 0 -4.20521e-11 0 2.1295e-08
83 3 0.001 0.00163324 0 -0.00108343 9.78976e-11 0 4.69424e-11 0 2.10767e-08
84 3 0.001 0.00175951 0 -0.000465494 8.13117e-10 0 -6.23544e-11 0 2.08312e-08
85 3 0.001 0.00190318 0 0.000148645 -1.82243e-10 0 1.58663e-10 0 2.05641e-08
86 3 0.001 0.00206343 0 0.000758686 -3.81016e-10 0 1.65409e-10 0 2.02812e-08
87 3 0.001 0.00223936 0 0.00136441 1.58705e-09 0 -4.94548e-10 0 1.99886e-08
88 3 0.001 0.00243001 0 0.00196568 -5.47725e-10 0 2.2474e-10 0 1.96924e-08
89 3 0.001 0.00263434 0 0.00256247 2.60214e-10 0 1.10989e-10 0 1.93986e-08
90 3 0.001 0.00285128 0 0.0031548 -1.76912e-10 0 2.23259e-10 0 1.91127e-08
91 3 0.001 0.0030797 0 0.00374283 1.7173e-09 0 -6.81736e-10 0 1.88403e-08
92 3 0.001 0.00331844 0 0.00432676 -1.8505e-09 0 8.15842e-10 0 1.85863e-08
93 3 0.001 0.00356632 0 0.00490689 1.13581e-09 0 -3.44963e-10 0 1.83551e-08
94 3 0.001 0.00382212 0 0.00548358 -3.54951e-10 0 2.96629e-10 0 1.81506e-08
95 3 0.001 0.00408461 0 0.00605727 1.42479e-09 0 -5.79768e-10 0 1.79764e-08
96 3 0.001 0.00435255 0 0.00662846 -1.3023e-09 0 6.81111e-10 0 1.7835e-08
97 3 0.001 0.00462468 0 0.00719766 8.7801e-10 0 -3.51674e-10 0 1.77288e-08
98 3 0.001 0.00489976 0 0.00776545 2.43287e-10 0 -8.57097e-12 0 1.76595e-08
99 3 0.001 0.00517651 0 0.00833244 -1.09714e-09 0 6.77445e-10 0 1.76279e-08
100 3 0.001 0.00545367 0 0.00889922 1.47408e-09 0 -6.14203e-10 0 1.76347e-08
101 3 0.001 0.00572997 0 0.00946642 -1.35158e-09 0 7.4469e-10 0 1.76797e-08
102 3 0.001 0.00600415 0 0.0100346 1.65389e-09 0 -7.51046e-10 0 1.77623e-08
103 3 0.001 0.00627495 0 0.0106045 -1.79858e-09 0 8.72622e-10 0 1.78812e-08
104 3 0.001 0.0065411 0 0.0111765 9.5567e-10 0 -3.61165e-10 0 1.80345e-08
105 3 0.001 0.00680137 0 0.0117512 1.51291e-09 0 -5.19615e-10 0 1.82198e-08
106 3 0.001 0.0070545 0 0.0123291 -3.66436e-09 0 1.65847e-09 0 1.84341e-08
107 3 0.001 0.00729928 0 0.0129105 3.5542e-09 0 -1.45415e-09 0 1.86739e-08
108 3 0.001 0.00753451 0 0.0134958 -1.98488e-09 0 8.56814e-10 0 1.8935e-08
109 3 0.001 0.007759 0 0.0140854 5.4854e-10 0 -1.1317e-10 0 1.92127e-08
110 3 0.001 0.0079716 0 0.0146793 1.90871e-11 0 8.79198e-11 0 1.95021e-08
111 3 0.001 0.00817122 0 0.0152776 -5.86738e-10 0 2.21188e-10 0 1.97975e-08
112 3 0.001 0.00835677 0 0.0158805 1.86029e-09 0 -5.15265e-10 0 2.00931e-08
113 3 0.001 0.00852726 0 0.0164878 -2.94504e-09 0 8.29793e-10 0 2.03829e-08
114 3 0.001 0.00868175 0 0.0170993 3.34849e-09 0 -6.99941e-10 0 2.06609e-08
115 3 0.001 0.00881935 0 0.0177148 -2.51176e-09 0 6.03775e-10 0 2.09211e-08
116 3 0.001 0.00893929 0 0.018334 9.90875e-10 0 -2.13365e-10 0 2.11576e-08
117 3 0.001 0.00904086 0 0.0189565 -6.4622e-10 0 1.11945e-10 0 2.13549e-08
118 3 0.001 0.00912346 0 0.0195817 2.08745e-09 0 -1.12249e-10 0 2.14796e-08
119 3 0.001 0.0091866 0 0.0202092 -2.85768e-09 0 3.40006e-10 0 2.15398e-08
120 3 0.001 0.00922981 0 0.0208384 1.99917e-09 0 -9.26873e-11 0 2.16003e-08
121 3 0.001 0.00925265 0 0.0214686 -1.52693e-09 0 3.51782e-11 0 2.17264e-08
122 3 0.001 0.00925465 0 0.0220993 2.20096e-09 0 8.83555e-11 0 2.19604e-08
123 3 0.001 0.00923527 0 0.0227296 -2.35106e-09 0 -6.61657e-11 0 2.23101e-08
124 3 0.001 0.00919394 0 0.0233589 2.06163e-09 0 1.79523e-10 0 2.2743e-08
125 3 0.001 0.00913007 0 0.0239862 -1.57372e-09 0 -1.70348e-10 0 2.31891e-08
126 3 0.001 0.00904311 0 0.0246107 1.31273e-09 0 2.56866e-10 0 2.35615e-08
127 3 0.001 0.00893259 0 0.0252315 -5.6507e-10 0 -2.02685e-11 0 2.38316e-08
128 3 0.001 0.0087982 0 0.0258475 -5.1426e-10 0 -1.06056e-10 0 2.40237e-08
129 3 0.001 0.00863981 0 0.0264578 8.77945e-10 0 2.5572e-10 0 2.41449e-08
130 3 0.001 0.00845746 0 0.0270614 -3.64316e-10 0 -8.38847e-11 0 2.41918e-08
131 3 0.001 0.00825134 0 0.0276573 4.05539e-10 0 1.73429e-10 0 2.41632e-08
132 3 0.001 0.00802184 0 0.0282445 -1.23364e-09 0 -4.96862e-10 0 2.40598e-08
133 3 0.001 0.00776946 0 0.0288223 1.8597e-09 0 9.35604e-10 0 2.38845e-08
134 3 0.001 0.00749489 0 0.0293899 -1.71595e-09 0 -8.238e-10 0 2.3642e-08
136 3 0.001 0.00688248 0 0.0304921 2.59543e-10 0 1.64098e-10 0 2.29827e-08
137 3 0.001 0.00654659 0 0.0310258 -1.68903e-09 0 -1.17362e-09 0 2.2583e-08
135 3 0.001 0.00719892 0 0.0299467 1.31364e-09 0 7.13742e-10 0 2.33387e-08
138 3 0.001 0.00619236 0 0.0315475 1.78465e-09 0 1.29411e-09 0 2.21494e-08
139 3 0.001 0.00582095 0 0.0320572 -8.81726e-10 0 -5.22693e-10 0 2.16923e-08
140 3 0.001 0.00543359 0 0.0325549 5.18222e-10 0 4.46025e-10 0 2.12222e-08
141 3 0.001 0.00503155 0 0.0330409 -7.18736e-10 0 -6.78765e-10 0 2.07494e-08
142 3 0.001 0.0046161 0 0.0335154 9.57178e-10 0 8.27222e-10 0 2.02839e-08
143 3 0.001 0.00418853 0 0.0339792 -2.20687e-12 0 4.7462e-11 0 1.98347e-08
144 3 0.001 0.00375013 0 0.0344327 -1.0018e-09 0 -9.9534e-10 0 1.94106e-08
145 3 0.001 0.00330217 0 0.0348769 1.17216e-09 0 1.16934e-09 0 1.9019e-08
146 3 0.001 0.00284592 0 0.0353125 -9.68622e-10 0 -1.04848e-09 0 1.86666e-08
148 3 0.001 0.00191348 0 0.0361625 -1.14696e-09 0 -1.2266e-09 0 1.81012e-08
149 3 0.001 0.0014397 0 0.0365791 1.9588e-09 0 2.27371e-09 0 1.76364e-08
150 3 0.001 0.000962434 0 0.0369918 -2.34598e-09 0 -2.78076e-09 0 1.31503e-08
147 3 0.001 0.00238262 0 0.0357407 9.40268e-10 0 1.04924e-09 0 1.83591e-08
151 3 0.001 0.000482365 0 0.0374022 1.38896e-09 0 1.61118e-09 0 8.97e-09
2 2 0.001 0 0 0.03781 -0.00535667 0 0.0162723 0 4.46351e-09
