ITEM: TIMESTEP
300000
ITEM: NUMBER OF ATOMS
151
ITEM: BOX BOUNDS ff ff ff
-1.0000000000000000e-02 1.0000000000000000e-02
-6.0000000000000001e-03 6.0000000000000001e-03
-5.2499999999999998e-02 5.2499999999999998e-02
ITEM: ATOMS id type radius x y z fx fy fz c_bendingE c_stretchingE
3 3 0.001 9.05163e-06 -7.64639e-05 -0.0468716 4.67767e-05 4.84293e-07 -5.38938e-07 0 2.01408e-10
1 1 0.001 0 0 -0.0475 -1.96516e-05 -3.00953e-05 -0.00576324 0 1.00698e-10
4 3 0.001 1.80901e-05 -0.000152785 -0.0462432 -6.52029e-05 -1.57293e-05 -9.94265e-07 0 1.35459e-09
5 3 0.001 2.70867e-05 -0.000228742 -0.0456154 5.51158e-05 1.34095e-05 6.57546e-07 0 2.60211e-09
6 3 0.001 3.60393e-05 -0.000304266 -0.0449876 -3.38419e-05 8.3682e-06 1.38763e-06 0 2.69681e-09
7 3 0.001 4.49307e-05 -0.000379217 -0.0443598 3.32487e-05 -3.7513e-05 -4.68646e-06 0 2.69745e-09
8 3 0.001 5.37472e-05 -0.000453458 -0.0437318 -5.72555e-05 4.70196e-05 6.62348e-06 0 2.69805e-09
9 3 0.001 6.24711e-05 -0.000526844 -0.0431038 9.05967e-05 -1.08524e-05 -2.64534e-06 0 2.69895e-09
10 3 0.001 7.10925e-05 -0.000599239 -0.0424756 -0.000135384 -3.19554e-05 -2.19665e-06 0 2.7003e-09
11 3 0.001 7.95898e-05 -0.000670509 -0.0418473 0.000203474 4.80376e-05 2.49304e-06 0 2.70181e-09
12 3 0.001 8.7959e-05 -0.000740516 -0.0412188 -0.000256875 -5.75292e-05 -2.6565e-06 0 2.70311e-09
13 3 0.001 9.61695e-05 -0.000809131 -0.0405902 0.000247432 6.81486e-05 4.5436e-06 0 2.70425e-09
14 3 0.001 0.000104225 -0.000876217 -0.0399615 -0.000218487 -5.76365e-05 -3.30635e-06 0 2.70562e-09
15 3 0.001 0.000112098 -0.000941655 -0.0393325 0.00020956 3.44239e-05 6.17724e-07 0 2.70741e-09
16 3 0.001 0.000119789 -0.00100531 -0.0387034 -0.000211298 -1.932e-05 3.02208e-07 0 2.70943e-09
17 3 0.001 0.000127271 -0.00106708 -0.0380741 0.00020104 9.27624e-06 -1.35154e-06 0 2.7113e-09
18 3 0.001 0.000134545 -0.00112682 -0.0374446 -0.000143113 -4.20698e-06 1.60368e-06 0 2.71291e-09
19 3 0.001 0.000141587 -0.00118444 -0.0368148 5.80212e-05 -9.9129e-06 -1.35107e-06 0 2.71453e-09
20 3 0.001 0.000148391 -0.00123981 -0.0361849 -4.33324e-06 2.58785e-05 2.01296e-06 0 2.71647e-09
21 3 0.001 0.000154945 -0.00129283 -0.0355548 -1.16794e-05 -1.34057e-05 -1.33142e-06 0 2.71863e-09
22 3 0.001 0.000161237 -0.0013434 -0.0349245 2.5853e-05 -1.77312e-05 -1.50515e-06 0 2.72063e-09
23 3 0.001 0.000167257 -0.00139142 -0.0342939 -3.83154e-05 3.21709e-05 2.99347e-06 0 2.72234e-09
24 3 0.001 0.000172992 -0.00143679 -0.0336632 3.25333e-05 -8.00077e-06 -8.75684e-07 0 2.72406e-09
25 3 0.001 0.000178435 -0.00147942 -0.0330323 -2.74766e-05 -2.46532e-05 -1.44924e-06 0 2.72589e-09
26 3 0.001 0.000183576 -0.00151924 -0.0324012 4.6292e-05 3.61168e-05 1.77993e-06 0 2.7277e-09
27 3 0.001 0.000188407 -0.00155615 -0.0317699 -7.48159e-05 -3.1531e-05 -1.12934e-06 0 2.72935e-09
29 3 0.001 0.000197102 -0.00162099 -0.0305068 -3.14961e-05 -1.0313e-06 -1.44505e-08 0 2.73238e-09
28 3 0.001 0.000192916 -0.00159009 -0.0311384 6.59329e-05 1.38251e-05 3.84842e-07 0 2.73084e-09
30 3 0.001 0.000200955 -0.00164878 -0.0298751 2.41329e-05 4.65472e-06 -2.066e-07 0 2.73397e-09
31 3 0.001 0.000204469 -0.00167341 -0.0292432 -3.41364e-05 -7.0774e-06 -2.71461e-08 0 2.73534e-09
32 3 0.001 0.000207637 -0.00169481 -0.0286111 3.84939e-05 4.46309e-06 3.23166e-07 0 2.7363e-09
33 3 0.001 0.000210454 -0.00171295 -0.027979 -4.27029e-05 -1.62232e-06 3.43081e-07 0 2.73705e-09
34 3 0.001 0.000212916 -0.00172779 -0.0273468 4.7826e-05 -8.0075e-06 -5.27709e-07 0 2.73794e-09
35 3 0.001 0.000215019 -0.00173929 -0.0267146 -4.99774e-05 1.14925e-05 -9.90641e-08 0 2.739e-09
36 3 0.001 0.000216758 -0.00174741 -0.0260822 5.65496e-05 -8.07034e-06 -3.95084e-07 0 2.73988e-09
37 3 0.001 0.000218134 -0.00175215 -0.0254499 -6.14191e-05 1.67701e-05 4.87302e-07 0 2.74025e-09
38 3 0.001 0.000219139 -0.00175348 -0.0248175 3.89531e-05 -2.13203e-05 4.38538e-07 0 2.74015e-09
39 3 0.001 0.000219776 -0.00175139 -0.0241851 4.83099e-06 1.63663e-05 2.19652e-08 0 2.73998e-09
40 3 0.001 0.000220045 -0.00174588 -0.0235527 -3.80607e-05 -1.39681e-06 -4.47288e-07 0 2.74009e-09
41 3 0.001 0.000219941 -0.00173695 -0.0229204 4.33639e-05 -1.12891e-05 -1.46113e-07 0 2.74026e-09
42 3 0.001 0.000219471 -0.00172462 -0.0222882 -2.95888e-05 -6.12031e-07 1.56015e-07 0 2.73999e-09
43 3 0.001 0.000218631 -0.00170889 -0.021656 1.23179e-05 -1.01844e-06 4.40337e-07 0 2.73923e-09
44 3 0.001 0.000217425 -0.00168979 -0.0210239 1.12529e-05 1.49002e-05 -3.82408e-07 0 2.73835e-09
45 3 0.001 0.000215856 -0.00166734 -0.0203919 -2.90122e-05 -8.99924e-06 -3.16711e-08 0 2.73762e-09
46 3 0.001 0.000213925 -0.00164158 -0.01976 2.47343e-05 1.40002e-05 -7.62543e-07 0 2.73689e-09
47 3 0.001 0.000211637 -0.00161254 -0.0191283 -1.58361e-05 -3.59337e-05 1.89061e-06 0 2.7358e-09
48 3 0.001 0.000208995 -0.00158028 -0.0184968 5.24356e-06 3.57632e-05 -1.64953e-06 0 2.73438e-09
49 3 0.001 0.000206007 -0.00154484 -0.0178654 2.15188e-05 -9.38594e-06 5.45315e-07 0 2.73296e-09
50 3 0.001 0.000202677 -0.00150629 -0.0172342 -4.43408e-05 -7.82082e-06 7.88102e-08 0 2.73163e-09
51 3 0.001 0.000199009 -0.00146467 -0.0166032 4.80818e-05 2.00511e-05 -1.12737e-06 0 2.73016e-09
52 3 0.001 0.000195013 -0.00142008 -0.0159724 -5.89483e-05 -4.43971e-05 3.10671e-06 0 2.72843e-09
53 3 0.001 0.000190693 -0.00137257 -0.0153418 8.30538e-05 5.51551e-05 -3.57672e-06 0 2.72656e-09
54 3 0.001 0.000186063 -0.00132222 -0.0147115 -0.00010548 -4.68289e-05 2.83476e-06 0 2.72482e-09
55 3 0.001 0.000181124 -0.00126912 -0.0140813 0.000116486 2.81919e-05 -1.6573e-06 0 2.72317e-09
56 3 0.001 0.000175892 -0.00121337 -0.0134514 -0.000107543 4.23307e-06 -1.30953e-06 0 2.72138e-09
57 3 0.001 0.00017037 -0.00115504 -0.0128218 9.2243e-05 -2.9017e-05 3.88963e-06 0 2.71933e-09
58 3 0.001 0.000164574 -0.00109425 -0.0121923 -8.25061e-05 2.3826e-05 -2.95076e-06 0 2.71722e-09
59 3 0.001 0.000158509 -0.0010311 -0.0115631 7.54913e-05 4.76167e-06 -5.78176e-08 0 2.71538e-09
60 3 0.001 0.00015219 -0.000965685 -0.0109342 -7.13397e-05 -2.75794e-05 1.92322e-06 0 2.71377e-09
61 3 0.001 0.000145624 -0.000898128 -0.0103054 6.04429e-05 1.77839e-05 -1.19316e-06 0 2.71201e-09
62 3 0.001 0.000138828 -0.000828538 -0.00967692 -3.64924e-05 9.19571e-06 -1.13022e-06 0 2.71001e-09
63 3 0.001 0.00013181 -0.000757036 -0.00904862 -1.76496e-06 -1.71791e-05 2.14509e-06 0 2.70803e-09
64 3 0.001 0.000124585 -0.000683746 -0.00842054 6.87338e-05 2.33223e-05 -2.15222e-06 0 2.70636e-09
65 3 0.001 0.000117166 -0.000608792 -0.00779265 -0.000136753 -4.35963e-05 3.2808e-06 0 2.70502e-09
66 3 0.001 0.000109559 -0.000532306 -0.00716495 0.000169171 4.59094e-05 -3.62964e-06 0 2.70372e-09
67 3 0.001 0.000101789 -0.000454414 -0.00653742 -0.000189525 -3.34946e-05 2.15795e-06 0 2.70219e-09
68 3 0.001 9.38572e-05 -0.000375254 -0.00591006 0.000206698 2.81117e-05 -5.81946e-07 0 2.70059e-09
69 3 0.001 8.57915e-05 -0.000294959 -0.00528284 -0.000205999 -3.47271e-05 1.70795e-06 0 2.69932e-09
70 3 0.001 7.7592e-05 -0.00021367 -0.00465575 0.000190129 4.13799e-05 -3.39146e-06 0 2.69859e-09
71 3 0.001 6.92864e-05 -0.000131524 -0.00402877 -0.000170015 -3.3781e-05 1.91547e-06 0 2.69807e-09
72 3 0.001 6.08774e-05 -4.8665e-05 -0.00340189 0.000182645 5.41047e-05 -4.39179e-06 0 2.6973e-09
73 3 0.001 5.239e-05 3.47646e-05 -0.00277509 -0.00026224 -0.000123193 1.34356e-05 0 2.69632e-09
74 3 0.001 4.38263e-05 0.000118614 -0.00214834 0.000384117 0.000249642 -2.81594e-05 0 2.69562e-09
75 3 0.001 3.52218e-05 0.000202751 -0.00152163 -0.000589897 -0.000643541 7.79029e-05 0 2.69556e-09
76 3 0.001 2.65653e-05 0.000287003 -0.000894935 0.000718553 0.000938985 -0.000116776 0 2.69589e-09
77 3 0.001 1.79126e-05 0.000371268 -0.000268243 -0.000564015 -0.000612611 7.47121e-05 0 2.69609e-09
78 3 0.001 9.23723e-06 0.000455357 0.000358471 0.000366783 0.000226693 -2.48008e-05 0 2.69602e-09
79 3 0.001 5.81504e-07 0.00053915 0.000985226 -0.000240649 -0.000107323 1.1277e-05 0 2.69607e-09
80 3 0.001 -8.05973e-06 0.000622485 0.00161204 0.000127584 1.72985e-05 -8.80219e-07 0 2.69667e-09
81 3 0.001 -1.66607e-05 0.000705223 0.00223894 -8.09008e-05 3.61153e-05 -6.28707e-06 0 2.69776e-09
82 3 0.001 -2.52115e-05 0.000787222 0.00286593 7.99305e-05 -1.88414e-05 3.53841e-06 0 2.69886e-09
83 3 0.001 -3.36924e-05 0.000868332 0.00349304 -6.09507e-05 -2.06645e-05 2.15449e-06 0 2.69976e-09
84 3 0.001 -4.20943e-05 0.000948411 0.00412028 2.21299e-05 4.10821e-05 -4.65375e-06 0 2.70068e-09
85 3 0.001 -5.04002e-05 0.00102732 0.00474767 -4.01457e-06 -4.26958e-05 5.17649e-06 0 2.70194e-09
86 3 0.001 -5.85957e-05 0.00110492 0.00537523 1.23016e-05 2.91288e-05 -3.70773e-06 0 2.70358e-09
87 3 0.001 -6.66667e-05 0.00118107 0.00600297 -3.87969e-05 -1.48125e-05 1.23527e-06 0 2.70532e-09
88 3 0.001 -7.46004e-05 0.00125563 0.00663089 5.94208e-05 6.39205e-06 1.63608e-07 0 2.70696e-09
89 3 0.001 -8.23791e-05 0.00132848 0.00725902 -6.22835e-05 -1.30728e-05 8.59143e-07 0 2.7086e-09
90 3 0.001 -8.99935e-05 0.00139948 0.00788737 6.26824e-05 2.38344e-05 -1.924e-06 0 2.71042e-09
91 3 0.001 -9.74263e-05 0.0014685 0.00851593 -6.24177e-05 -1.34069e-05 6.49954e-07 0 2.71243e-09
92 3 0.001 -0.000104669 0.00153543 0.00914473 5.4049e-05 -6.84409e-06 1.25969e-06 0 2.71452e-09
93 3 0.001 -0.000111705 0.00160014 0.00977375 -3.39843e-05 4.90738e-06 -8.54444e-07 0 2.7166e-09
94 3 0.001 -0.000118524 0.00166251 0.010403 1.43986e-05 1.13509e-05 -8.33551e-07 0 2.71865e-09
95 3 0.001 -0.000125115 0.00172243 0.0110325 -1.86335e-06 2.37468e-06 -1.91682e-07 0 2.72073e-09
96 3 0.001 -0.000131466 0.00177979 0.0116623 -7.6989e-06 -2.77084e-05 2.23123e-06 0 2.72293e-09
97 3 0.001 -0.000137565 0.00183449 0.0122923 3.96996e-06 2.55385e-05 -2.22064e-06 0 2.72518e-09
98 3 0.001 -0.000143403 0.00188642 0.0129225 8.52581e-06 1.04253e-06 1.5684e-07 0 2.72728e-09
99 3 0.001 -0.000148968 0.00193548 0.0135529 -1.56551e-05 -2.46498e-05 1.7636e-06 0 2.7293e-09
100 3 0.001 -0.000154252 0.00198159 0.0141836 1.618e-05 1.70638e-05 -1.17403e-06 0 2.73135e-09
101 3 0.001 -0.000159243 0.00202466 0.0148145 -1.66794e-05 -1.19937e-06 -1.2053e-08 0 2.73336e-09
102 3 0.001 -0.000163936 0.00206461 0.0154456 1.81972e-05 -1.03747e-05 8.48314e-07 0 2.73521e-09
103 3 0.001 -0.000168319 0.00210135 0.0160769 -1.99653e-05 9.09143e-06 -5.66428e-07 0 2.73694e-09
104 3 0.001 -0.000172388 0.00213483 0.0167084 2.31819e-05 2.32967e-05 -9.91252e-07 0 2.73865e-09
105 3 0.001 -0.000176133 0.00216498 0.01734 -9.73255e-06 -3.18319e-05 1.1482e-06 0 2.74041e-09
106 3 0.001 -0.000179549 0.00219173 0.0179719 -8.69721e-06 8.22671e-06 -6.43719e-07 0 2.74217e-09
107 3 0.001 -0.000182632 0.00221503 0.0186038 1.75389e-05 -3.44609e-06 3.47641e-07 0 2.74359e-09
108 3 0.001 -0.000185375 0.00223483 0.0192359 -3.48489e-05 2.11139e-07 2.48265e-07 0 2.74457e-09
109 3 0.001 -0.000187775 0.0022511 0.019868 6.28364e-05 1.65027e-05 4.26404e-08 0 2.74539e-09
110 3 0.001 -0.000189826 0.00226379 0.0205003 -8.87994e-05 -2.04222e-05 -2.07894e-07 0 2.74641e-09
111 3 0.001 -0.000191528 0.00227288 0.0211326 8.51635e-05 9.25504e-06 -3.59806e-07 0 2.74757e-09
112 3 0.001 -0.000192872 0.00227834 0.021765 -6.17446e-05 -5.64633e-06 -8.38931e-08 0 2.74842e-09
113 3 0.001 -0.000193862 0.00228017 0.0223973 2.85307e-05 7.77824e-06 4.89627e-07 0 2.74867e-09
114 3 0.001 -0.000194491 0.00227834 0.0230297 2.38507e-05 4.05788e-06 3.62244e-07 0 2.74863e-09
115 3 0.001 -0.000194759 0.00227285 0.0236621 -5.00449e-05 -1.90395e-05 -4.86639e-07 0 2.74874e-09
116 3 0.001 -0.000194671 0.00226371 0.0242944 4.43205e-05 1.44255e-05 -1.81034e-07 0 2.74902e-09
117 3 0.001 -0.000194222 0.00225092 0.0249266 -4.51837e-05 7.72443e-06 2.96161e-07 0 2.749e-09
118 3 0.001 -0.000193418 0.00223451 0.0255588 6.21581e-05 -1.9986e-05 -4.21149e-07 0 2.74852e-09
119 3 0.001 -0.000192257 0.00221448 0.0261909 -8.48468e-05 1.51883e-05 7.93061e-07 0 2.74784e-09
120 3 0.001 -0.000190747 0.00219087 0.0268228 8.95149e-05 -1.01137e-05 -7.95041e-07 0 2.7472e-09
121 3 0.001 -0.000188883 0.00216372 0.0274546 -6.64536e-05 1.7456e-06 1.04724e-07 0 2.74653e-09
122 3 0.001 -0.000186675 0.00213306 0.0280862 1.08184e-05 1.98265e-06 2.23245e-07 0 2.74558e-09
123 3 0.001 -0.000184125 0.00209894 0.0287177 4.51906e-05 5.67975e-06 4.20431e-07 0 2.74429e-09
124 3 0.001 -0.000181235 0.00206141 0.029349 -5.83596e-05 -3.06703e-06 7.30801e-08 0 2.74296e-09
125 3 0.001 -0.000178015 0.00202054 0.02998 5.50104e-05 -1.00421e-05 -1.40946e-06 0 2.74185e-09
126 3 0.001 -0.000174468 0.00197637 0.0306108 -5.43581e-05 2.25389e-05 1.74278e-06 0 2.74073e-09
127 3 0.001 -0.000170605 0.001929 0.0312414 4.22592e-05 -2.68265e-05 -2.04006e-06 0 2.73917e-09
128 3 0.001 -0.000166429 0.00187848 0.0318718 -2.95092e-05 6.92905e-06 1.23747e-06 0 2.73719e-09
129 3 0.001 -0.00016195 0.0018249 0.0325019 3.67039e-05 2.0093e-05 1.64381e-06 0 2.73523e-09
130 3 0.001 -0.000157175 0.00176836 0.0331317 -5.10978e-05 -1.27896e-05 -1.27118e-06 0 2.7337e-09
131 3 0.001 -0.000152116 0.00170892 0.0337613 4.70282e-05 -2.15346e-06 -1.22527e-06 0 2.73249e-09
132 3 0.001 -0.000146778 0.00164671 0.0343906 -2.67044e-05 -1.68762e-05 -1.41182e-06 0 2.73096e-09
133 3 0.001 -0.000141175 0.0015818 0.0350196 1.4742e-05 2.95254e-05 3.78229e-06 0 2.72873e-09
134 3 0.001 -0.000135316 0.00151432 0.0356483 -2.51087e-05 -1.09426e-05 -4.29934e-07 0 2.72633e-09
135 3 0.001 -0.000129212 0.00144437 0.0362768 2.03958e-05 -1.21419e-05 -2.10752e-06 0 2.72457e-09
136 3 0.001 -0.000122872 0.00137206 0.036905 1.34196e-05 1.93507e-05 1.30036e-06 0 2.72346e-09
137 3 0.001 -0.000116307 0.00129751 0.0375329 -2.79659e-05 -6.66158e-07 1.77079e-07 0 2.72218e-09
138 3 0.001 -0.000109534 0.00122084 0.0381606 4.70749e-06 -1.13218e-05 -7.58646e-07 0 2.72026e-09
139 3 0.001 -0.000102561 0.00114219 0.0387881 1.52313e-05 -8.65882e-06 -7.68181e-07 0 2.71812e-09
140 3 0.001 -9.54011e-05 0.00106166 0.0394153 1.73848e-05 2.11499e-05 2.2899e-06 0 2.71652e-09
141 3 0.001 -8.80683e-05 0.000979407 0.0400422 -7.33044e-05 1.06533e-07 2.42069e-07 0 2.71557e-09
142 3 0.001 -8.05796e-05 0.000895553 0.040669 9.59653e-05 -2.94405e-05 -5.40472e-06 0 2.71473e-09
143 3 0.001 -7.2942e-05 0.000810236 0.0412956 -7.14102e-05 2.70575e-05 5.08881e-06 0 2.71346e-09
144 3 0.001 -6.5176e-05 0.000723598 0.0419219 2.03237e-05 4.02261e-06 9.08976e-07 0 2.71193e-09
145 3 0.001 -5.72927e-05 0.000635781 0.0425481 6.09218e-06 -2.26927e-05 -3.45479e-06 0 2.71086e-09
146 3 0.001 -4.93055e-05 0.000546924 0.0431742 -2.54676e-05 1.84058e-05 2.34074e-06 0 2.71049e-09
147 3 0.001 -4.12291e-05 0.000457175 0.0438001 6.30171e-05 -5.50645e-06 -1.7754e-06 0 2.71028e-09
148 3 0.001 -3.3075e-05 0.00036668 0.044426 -6.53434e-05 -5.3907e-06 5.21419e-07 0 2.70973e-09
149 3 0.001 -2.48639e-05 0.000275586 0.0450517 2.11608e-05 8.73464e-06 1.37912e-06 0 2.61482e-09
150 3 0.001 -1.66067e-05 0.000184038 0.0456774 2.72733e-05 -6.31414e-06 -1.51954e-06 0 1.36271e-09
151 3 0.001 -8.30976e-06 9.2094e-05 0.0463037 -3.84584e-05 2.18081e-06 3.59649e-07 0 2.0521e-10
2 2 0.001 0 0 0.04693 1.42886e-05 -7.51104e-05 0.0057835 0 1.02647e-10
