ITEM: TIMESTEP
4600000
ITEM: NUMBER OF ATOMS
151
ITEM: BOX BOUNDS ff ff ff
-1.0000000000000000e-02 1.0000000000000000e-02
-6.0000000000000001e-03 6.0000000000000001e-03
-5.2499999999999998e-02 5.2499999999999998e-02
ITEM: ATOMS id type radius x y z fx fy fz c_bendingE c_stretchingE
1 1 0.001 0 0 -0.0475 -0.00596921 0 -0.0167906 0 5.29466e-09
3 3 0.001 0.000476268 0 -0.0470854 -2.79348e-10 0 1.31849e-10 0 1.06338e-08
4 3 0.001 0.000950261 0 -0.0466682 3.14463e-10 0 -3.05714e-10 0 1.51224e-08
5 3 0.001 0.00142148 0 -0.0462488 -1.01577e-10 0 1.23536e-10 0 1.99344e-08
6 3 0.001 0.00188925 0 -0.0458257 1.08256e-10 0 -2.53199e-11 0 2.04189e-08
7 3 0.001 0.00235243 0 -0.0453976 2.56748e-11 0 2.07157e-12 0 2.06779e-08
8 3 0.001 0.00280985 0 -0.0449633 -6.61168e-11 0 -1.4245e-10 0 2.09859e-08
9 3 0.001 0.00326031 0 -0.0445219 3.3311e-10 0 -3.01808e-10 0 2.13375e-08
10 3 0.001 0.00370261 0 -0.0440723 -1.59019e-10 0 1.90492e-10 0 2.17267e-08
11 3 0.001 0.00413552 0 -0.0436137 1.19872e-10 0 -1.2263e-10 0 2.21462e-08
12 3 0.001 0.0045578 0 -0.0431454 1.69233e-10 0 -9.46731e-11 0 2.2588e-08
13 3 0.001 0.00496823 0 -0.0426666 -2.43324e-10 0 2.99197e-11 0 2.30431e-08
14 3 0.001 0.00536556 0 -0.042177 5.28382e-10 0 -4.71404e-10 0 2.35019e-08
15 3 0.001 0.00574858 0 -0.0416761 -9.1179e-11 0 1.36922e-10 0 2.39542e-08
16 3 0.001 0.0061161 0 -0.0411638 -2.32588e-11 0 -7.55121e-11 0 2.43897e-08
17 3 0.001 0.00646698 0 -0.04064 2.51825e-10 0 -1.69179e-10 0 2.47979e-08
18 3 0.001 0.00680011 0 -0.0401047 -7.79088e-11 0 -4.62404e-11 0 2.51688e-08
19 3 0.001 0.00711449 0 -0.0395583 4.70895e-10 0 -3.40917e-10 0 2.54928e-08
20 3 0.001 0.00740918 0 -0.039001 -3.73504e-10 0 2.11928e-10 0 2.57616e-08
21 3 0.001 0.00768335 0 -0.0384333 2.84625e-10 0 -2.993e-10 0 2.59678e-08
22 3 0.001 0.00793629 0 -0.0378559 3.30168e-10 0 -2.22543e-10 0 2.6106e-08
23 3 0.001 0.00816743 0 -0.0372694 -1.93576e-10 0 5.79719e-11 0 2.61723e-08
24 3 0.001 0.00837633 0 -0.0366746 1.0553e-10 0 -1.64971e-10 0 2.61648e-08
25 3 0.001 0.00856272 0 -0.0360724 -2.0291e-10 0 2.33597e-11 0 2.60838e-08
26 3 0.001 0.00872645 0 -0.0354636 6.81706e-10 0 -2.954e-10 0 2.59315e-08
27 3 0.001 0.00886759 0 -0.0348492 -5.82e-10 0 -2.00517e-11 0 2.57121e-08
28 3 0.001 0.00898633 0 -0.0342301 1.15973e-10 0 -5.74409e-11 0 2.54316e-08
29 3 0.001 0.00908304 0 -0.0336071 6.15476e-12 0 -1.30801e-10 0 2.50683e-08
30 3 0.001 0.00915824 0 -0.0329811 -6.18456e-11 0 -4.67106e-11 0 2.46132e-08
31 3 0.001 0.00921259 0 -0.032353 -1.70534e-10 0 -6.4114e-11 0 2.41253e-08
32 3 0.001 0.00924679 0 -0.0317234 -1.82306e-10 0 -1.63888e-10 0 2.36829e-08
33 3 0.001 0.00926152 0 -0.031093 1.34554e-10 0 -3.07912e-11 0 2.33397e-08
34 3 0.001 0.00925746 0 -0.0304624 -8.70257e-10 0 -1.22745e-10 0 2.31159e-08
35 3 0.001 0.00923516 0 -0.0298322 4.92486e-10 0 -6.64302e-11 0 2.29994e-08
36 3 0.001 0.00919516 0 -0.0292029 -7.36855e-10 0 -4.81209e-11 0 2.29511e-08
37 3 0.001 0.00913789 0 -0.028575 8.84041e-11 0 -1.20369e-10 0 2.29144e-08
38 3 0.001 0.00906379 0 -0.0279487 -9.61831e-10 0 -1.69587e-10 0 2.28309e-08
39 3 0.001 0.00897332 0 -0.0273247 4.74562e-10 0 3.2587e-11 0 2.26796e-08
40 3 0.001 0.00886701 0 -0.0267031 -9.10312e-10 0 -2.77511e-10 0 2.24871e-08
41 3 0.001 0.00874548 0 -0.0260843 -1.96383e-10 0 -1.68204e-11 0 2.22763e-08
44 3 0.001 0.00829683 0 -0.0242466 -8.98578e-10 0 -2.17519e-10 0 2.15819e-08
42 3 0.001 0.00860942 0 -0.0254685 -9.72182e-10 0 -2.73704e-10 0 2.20519e-08
43 3 0.001 0.00845959 0 -0.0248559 3.83681e-10 0 7.21749e-11 0 2.18188e-08
46 3 0.001 0.00793613 0 -0.023038 -4.4424e-10 0 -1.13359e-10 0 2.11165e-08
45 3 0.001 0.00812202 0 -0.0236407 -4.27565e-10 0 -2.47137e-10 0 2.13463e-08
47 3 0.001 0.00774012 0 -0.0224385 -2.53172e-10 0 -1.60816e-11 0 2.08974e-08
48 3 0.001 0.00753503 0 -0.0218421 -6.88276e-10 0 -2.90423e-10 0 2.0693e-08
49 3 0.001 0.00732192 0 -0.0212485 -3.4116e-10 0 -1.01276e-10 0 2.05072e-08
51 3 0.001 0.00687598 0 -0.0200684 -5.48279e-10 0 -2.10037e-10 0 2.02047e-08
50 3 0.001 0.00710186 0 -0.0206574 -2.29579e-10 0 -1.54332e-10 0 2.03434e-08
53 3 0.001 0.00641122 0 -0.0188957 -3.58669e-10 0 -1.91728e-10 0 2.00117e-08
54 3 0.001 0.00617463 0 -0.018311 8.23186e-12 0 1.89869e-11 0 1.99607e-08
52 3 0.001 0.00664538 0 -0.0194814 -4.14024e-10 0 -6.87499e-11 0 2.00935e-08
56 3 0.001 0.00569879 0 -0.0171426 -5.37635e-10 0 -3.09489e-10 0 1.99543e-08
55 3 0.001 0.00593677 0 -0.0177268 -3.24066e-10 0 -1.88189e-10 0 1.99415e-08
57 3 0.001 0.00546185 0 -0.016558 -1.08714e-10 0 5.52041e-11 0 1.99989e-08
59 3 0.001 0.00499569 0 -0.0153858 -3.25813e-11 0 -7.70752e-11 0 2.018e-08
58 3 0.001 0.0052271 0 -0.0159726 1.06902e-12 0 -1.10392e-11 0 2.00746e-08
61 3 0.001 0.00454745 0 -0.0142066 4.37739e-11 0 -1.02983e-10 0 2.04722e-08
60 3 0.001 0.00476877 0 -0.0147973 -4.4073e-10 0 -2.01344e-10 0 2.03133e-08
62 3 0.001 0.00433284 0 -0.0136136 2.80304e-10 0 1.09142e-10 0 2.06538e-08
63 3 0.001 0.00412605 0 -0.0130177 -7.78618e-11 0 -3.81914e-11 0 2.08548e-08
64 3 0.001 0.00392812 0 -0.0124189 -2.98511e-10 0 -1.96514e-10 0 2.10713e-08
66 3 0.001 0.00356298 0 -0.0112116 5.94558e-11 0 -1.18373e-10 0 2.15341e-08
65 3 0.001 0.0037401 0 -0.0118168 4.89218e-10 0 1.6593e-10 0 2.12993e-08
67 3 0.001 0.00339772 0 -0.0106029 3.62733e-10 0 1.03666e-11 0 2.17711e-08
68 3 0.001 0.00324521 0 -0.009991 -4.59148e-10 0 -6.91263e-11 0 2.20054e-08
69 3 0.001 0.0031063 0 -0.00937586 1.08053e-09 0 1.6386e-10 0 2.2232e-08
71 3 0.001 0.00287234 0 -0.00813662 7.67615e-10 0 2.89051e-11 0 2.26424e-08
70 3 0.001 0.00298178 0 -0.00875766 -4.59598e-10 0 -9.14883e-11 0 2.24459e-08
72 3 0.001 0.00277863 0 -0.00751302 -5.13228e-10 0 -1.6749e-10 0 2.28172e-08
73 3 0.001 0.00270119 0 -0.00688721 1.16652e-09 0 1.97977e-10 0 2.29662e-08
74 3 0.001 0.00264048 0 -0.00625957 -5.12876e-10 0 -8.34095e-11 0 2.30858e-08
75 3 0.001 0.00259685 0 -0.00563051 6.36578e-10 0 1.92961e-11 0 2.31734e-08
76 3 0.001 0.00257057 0 -0.00500049 2.59038e-11 0 -1.85898e-12 0 2.32268e-08
77 3 0.001 0.00256179 0 -0.00436998 5.73534e-10 0 -9.87784e-11 0 2.32447e-08
78 3 0.001 0.00257057 0 -0.00373948 1.24831e-10 0 6.97259e-11 0 2.32268e-08
79 3 0.001 0.00259685 0 -0.00310946 -7.90235e-11 0 5.35222e-11 0 2.31734e-08
80 3 0.001 0.00264047 0 -0.0024804 8.0389e-10 0 -1.25407e-10 0 2.30859e-08
81 3 0.001 0.00270118 0 -0.00185276 -1.51552e-10 0 5.26314e-11 0 2.29662e-08
82 3 0.001 0.00277862 0 -0.00122694 3.69257e-10 0 -7.72503e-11 0 2.28173e-08
83 3 0.001 0.00287233 0 -0.00060335 2.81787e-10 0 1.49652e-11 0 2.26426e-08
84 3 0.001 0.00298176 0 1.76889e-05 3.00359e-10 0 4.03248e-11 0 2.2446e-08
85 3 0.001 0.00310628 0 0.000635891 -6.81597e-11 0 -2.5831e-11 0 2.22321e-08
86 3 0.001 0.00324518 0 0.00125104 5.24014e-10 0 -8.50689e-11 0 2.20055e-08
87 3 0.001 0.00339769 0 0.00186296 8.34765e-11 0 -3.67411e-12 0 2.17713e-08
88 3 0.001 0.00356295 0 0.00247159 5.15662e-11 0 2.77892e-11 0 2.15343e-08
89 3 0.001 0.00374007 0 0.00307688 4.4268e-12 0 1.56817e-10 0 2.12994e-08
90 3 0.001 0.00392809 0 0.00367889 3.76531e-10 0 -1.64313e-10 0 2.10715e-08
91 3 0.001 0.00412601 0 0.00427774 -1.7698e-10 0 5.45622e-11 0 2.0855e-08
92 3 0.001 0.00433281 0 0.00487359 7.95145e-11 0 4.62955e-11 0 2.0654e-08
93 3 0.001 0.00454741 0 0.00546669 -2.16667e-10 0 8.47252e-11 0 2.04724e-08
94 3 0.001 0.00476873 0 0.00605732 1.27657e-10 0 4.89677e-11 0 2.03135e-08
95 3 0.001 0.00499565 0 0.00664584 -2.92091e-10 0 8.21851e-11 0 2.01802e-08
96 3 0.001 0.00522706 0 0.00723261 5.32224e-11 0 -4.5982e-11 0 2.00748e-08
97 3 0.001 0.00546181 0 0.00781807 -5.68899e-10 0 3.3313e-10 0 1.99991e-08
98 3 0.001 0.00569875 0 0.00840264 1.57359e-10 0 -1.01333e-10 0 1.99545e-08
99 3 0.001 0.00593673 0 0.00898679 -5.22097e-10 0 2.19582e-10 0 1.99417e-08
100 3 0.001 0.00617459 0 0.00957099 -1.46564e-10 0 7.38417e-11 0 1.99609e-08
101 3 0.001 0.00641118 0 0.0101557 -5.90296e-10 0 1.36515e-10 0 2.00119e-08
102 3 0.001 0.00664535 0 0.0107414 -2.11029e-10 0 1.59546e-10 0 2.00937e-08
103 3 0.001 0.00687594 0 0.0113285 -2.43822e-10 0 1.06176e-10 0 2.0205e-08
104 3 0.001 0.00710183 0 0.0119174 -4.63004e-10 0 1.34082e-10 0 2.03437e-08
105 3 0.001 0.00732188 0 0.0125085 -6.01327e-10 0 2.30187e-10 0 2.05074e-08
106 3 0.001 0.007535 0 0.0131021 -3.46922e-10 0 1.28456e-11 0 2.06932e-08
107 3 0.001 0.00774009 0 0.0136986 -2.20521e-10 0 1.27879e-10 0 2.08976e-08
108 3 0.001 0.0079361 0 0.014298 -6.79249e-10 0 2.84827e-10 0 2.11168e-08
109 3 0.001 0.008122 0 0.0149007 -2.48699e-10 0 -1.39056e-11 0 2.13465e-08
110 3 0.001 0.0082968 0 0.0155067 -8.91946e-10 0 2.95839e-10 0 2.15822e-08
111 3 0.001 0.00845957 0 0.016116 1.90595e-10 0 -3.81676e-11 0 2.18191e-08
112 3 0.001 0.0086094 0 0.0167286 -7.87311e-10 0 1.90459e-10 0 2.20522e-08
113 3 0.001 0.00874546 0 0.0173443 -2.32891e-10 0 1.18269e-10 0 2.22766e-08
114 3 0.001 0.008867 0 0.0179631 -5.79161e-10 0 6.04213e-11 0 2.24874e-08
115 3 0.001 0.00897331 0 0.0185847 -2.9611e-10 0 1.16683e-10 0 2.26799e-08
116 3 0.001 0.00906378 0 0.0192088 -1.37811e-11 0 1.053e-10 0 2.28313e-08
117 3 0.001 0.00913788 0 0.019835 -7.02378e-10 0 7.33056e-11 0 2.29148e-08
118 3 0.001 0.00919515 0 0.020463 -2.28494e-10 0 1.12022e-10 0 2.29515e-08
119 3 0.001 0.00923516 0 0.0210923 1.2759e-10 0 2.59913e-11 0 2.29998e-08
120 3 0.001 0.00925746 0 0.0217225 -4.83102e-10 0 8.13623e-11 0 2.31164e-08
121 3 0.001 0.00926153 0 0.022353 -3.96407e-11 0 1.52808e-10 0 2.33401e-08
122 3 0.001 0.0092468 0 0.0229834 -2.7757e-10 0 -1.95233e-11 0 2.36833e-08
123 3 0.001 0.0092126 0 0.023613 1.32475e-10 0 7.94893e-11 0 2.41257e-08
124 3 0.001 0.00915826 0 0.0242411 -2.87239e-10 0 6.89248e-11 0 2.46137e-08
125 3 0.001 0.00908305 0 0.0248671 -1.2999e-10 0 5.57642e-11 0 2.50688e-08
126 3 0.001 0.00898635 0 0.0254901 2.74225e-10 0 2.34836e-10 0 2.54322e-08
127 3 0.001 0.00886761 0 0.0261092 -7.35257e-11 0 -5.70925e-12 0 2.57128e-08
128 3 0.001 0.00872648 0 0.0267236 -2.39215e-10 0 -7.29702e-11 0 2.59322e-08
130 3 0.001 0.00837636 0 0.0279346 -2.07961e-10 0 2.84779e-11 0 2.61655e-08
129 3 0.001 0.00856274 0 0.0273324 2.53179e-10 0 2.01294e-10 0 2.60845e-08
131 3 0.001 0.00816746 0 0.0285294 5.32141e-10 0 3.78066e-10 0 2.6173e-08
132 3 0.001 0.00793632 0 0.0291159 -4.08727e-10 0 -1.33357e-10 0 2.61068e-08
133 3 0.001 0.00768338 0 0.0296933 3.32016e-10 0 4.57146e-11 0 2.59686e-08
136 3 0.001 0.00680014 0 0.0313648 2.34982e-10 0 2.56644e-10 0 2.51696e-08
134 3 0.001 0.00740921 0 0.030261 1.79102e-11 0 1.35895e-10 0 2.57624e-08
135 3 0.001 0.00711452 0 0.0308183 5.72198e-11 0 1.36572e-10 0 2.54936e-08
137 3 0.001 0.00646701 0 0.0319 -2.1318e-10 0 -6.8083e-11 0 2.47987e-08
138 3 0.001 0.00611613 0 0.0324239 3.56954e-10 0 1.03741e-10 0 2.43905e-08
139 3 0.001 0.00574861 0 0.0329362 3.68809e-13 0 6.63561e-11 0 2.3955e-08
140 3 0.001 0.00536559 0 0.033437 1.89123e-10 0 2.64138e-10 0 2.35026e-08
141 3 0.001 0.00496825 0 0.0339267 -2.88037e-10 0 -2.23316e-10 0 2.30438e-08
142 3 0.001 0.00455783 0 0.0344054 4.57843e-10 0 5.23275e-10 0 2.25887e-08
144 3 0.001 0.00370263 0 0.0353324 1.78862e-10 0 1.23598e-10 0 2.17274e-08
145 3 0.001 0.00326033 0 0.0357819 5.86172e-11 0 1.50544e-10 0 2.13382e-08
143 3 0.001 0.00413554 0 0.0348738 -1.31828e-10 0 -2.2187e-10 0 2.21469e-08
148 3 0.001 0.00188926 0 0.0370857 -1.90317e-10 0 -1.94399e-10 0 2.04196e-08
146 3 0.001 0.00280987 0 0.0362233 2.00061e-11 0 -1.37668e-11 0 2.09865e-08
147 3 0.001 0.00235244 0 0.0366576 9.36675e-11 0 1.86371e-10 0 2.06786e-08
151 3 0.001 0.000476271 0 0.0383454 -8.06033e-11 0 -2.12388e-10 0 1.06343e-08
2 2 0.001 0 0 0.03876 -0.00596939 0 0.0167909 0 5.29489e-09
149 3 0.001 0.00142149 0 0.0375088 3.36631e-10 0 3.06387e-10 0 1.99351e-08
150 3 0.001 0.000950266 0 0.0379282 -3.03063e-13 0 8.91474e-11 0 1.5123e-08
