ITEM: TIMESTEP
2400000
ITEM: NUMBER OF ATOMS
151
ITEM: BOX BOUNDS ff ff ff
-1.0000000000000000e-02 1.0000000000000000e-02
-6.0000000000000001e-03 6.0000000000000001e-03
-5.2499999999999998e-02 5.2499999999999998e-02
ITEM: ATOMS id type radius x y z fx fy fz c_bendingE c_stretchingE
3 3 0.001 0.000289717 0.000161113 -0.0469611 -0.000126346 0.000194092 4.94342e-06 0 1.3021e-09
1 1 0.001 0 0 -0.0475 -0.00197815 -0.00118442 -0.00813349 0 6.50092e-10
4 3 0.001 0.00057909 0.000322046 -0.046422 0.000133841 -0.00022624 -7.79709e-06 0 3.25183e-09
5 3 0.001 0.000867494 0.000482428 -0.045883 -2.67222e-05 8.71308e-05 -9.17377e-06 0 5.33858e-09
6 3 0.001 0.00115487 0.000642241 -0.0453433 -6.72325e-05 6.6618e-05 2.09108e-05 0 5.47904e-09
7 3 0.001 0.0014409 0.000801309 -0.0448026 6.90588e-05 -0.000112981 -2.38317e-06 0 5.48532e-09
8 3 0.001 0.00172525 0.000959439 -0.0442608 -2.43925e-05 6.43141e-05 -9.61254e-06 0 5.49845e-09
9 3 0.001 0.00200758 0.00111645 -0.0437176 -1.15441e-05 4.23673e-05 -9.12555e-06 0 5.51571e-09
10 3 0.001 0.00228758 0.00127217 -0.0431729 2.63578e-05 -0.000128299 2.41356e-05 0 5.53187e-09
11 3 0.001 0.00256491 0.00142639 -0.0426264 -3.43437e-06 7.39049e-05 -1.60491e-05 0 5.5461e-09
12 3 0.001 0.00283925 0.00157896 -0.0420778 -4.74306e-05 6.52404e-05 6.18885e-06 0 5.56204e-09
13 3 0.001 0.00311028 0.0017297 -0.0415272 5.99476e-05 -0.00011682 3.24126e-07 0 5.58219e-09
14 3 0.001 0.00337771 0.00187842 -0.0409742 -7.34595e-06 3.8687e-05 -7.79533e-06 0 5.60434e-09
15 3 0.001 0.00364121 0.00202496 -0.0404188 -6.74653e-05 6.80842e-05 1.5495e-05 0 5.62507e-09
16 3 0.001 0.00390048 0.00216916 -0.0398608 8.26194e-05 -9.00561e-05 -1.34057e-05 0 5.64484e-09
17 3 0.001 0.00415525 0.00231084 -0.0393001 -1.4142e-05 3.60875e-05 -3.78486e-06 0 5.66675e-09
18 3 0.001 0.00440522 0.00244986 -0.0387366 -5.04696e-05 1.86224e-05 1.45754e-05 0 5.69162e-09
19 3 0.001 0.00465011 0.00258606 -0.0381701 6.89818e-05 -7.38276e-05 -1.20655e-05 0 5.71567e-09
20 3 0.001 0.00488967 0.00271929 -0.0376007 -5.68068e-05 0.000109462 2.17291e-06 0 5.73524e-09
21 3 0.001 0.00512363 0.00284942 -0.0370283 5.62553e-07 -3.36248e-05 9.65673e-06 0 5.75276e-09
22 3 0.001 0.00535175 0.0029763 -0.0364528 7.43175e-05 -0.000103561 -9.23138e-06 0 5.77355e-09
23 3 0.001 0.00557382 0.00309981 -0.0358741 -0.00010466 0.000136829 6.26902e-06 0 5.79766e-09
24 3 0.001 0.0057896 0.00321982 -0.0352924 9.01471e-05 -4.5994e-05 -2.33214e-05 0 5.81884e-09
25 3 0.001 0.0059989 0.00333624 -0.0347076 -5.99124e-05 -8.41851e-05 4.17022e-05 0 5.83303e-09
26 3 0.001 0.00620152 0.00344894 -0.0341197 2.89896e-05 0.000183968 -4.12158e-05 0 5.84361e-09
27 3 0.001 0.00639731 0.00355785 -0.0335288 -7.07604e-06 -0.000166014 3.02194e-05 0 5.85671e-09
28 3 0.001 0.0065861 0.00366286 -0.032935 -2.78619e-05 4.35545e-05 -4.56567e-06 0 5.8734e-09
29 3 0.001 0.00676776 0.00376391 -0.0323382 4.2582e-05 5.30312e-05 -2.17054e-05 0 5.88675e-09
30 3 0.001 0.00694219 0.00386093 -0.0317386 -5.93497e-07 -0.000106048 2.19116e-05 0 5.89127e-09
31 3 0.001 0.00710927 0.00395388 -0.0311363 -5.08734e-06 0.000131912 -1.51118e-05 0 5.89123e-09
32 3 0.001 0.00726894 0.0040427 -0.0305313 -5.02762e-05 -7.69674e-05 2.10892e-05 0 5.89403e-09
33 3 0.001 0.00742113 0.00412737 -0.0299239 7.94919e-05 -1.77863e-05 -2.19095e-05 0 5.89987e-09
34 3 0.001 0.00756582 0.00420786 -0.029314 -8.01779e-05 7.38703e-05 9.04278e-06 0 5.9015e-09
35 3 0.001 0.00770298 0.00428418 -0.0287019 6.6114e-05 -4.92242e-05 -4.15797e-06 0 5.89475e-09
36 3 0.001 0.00783263 0.00435631 -0.0280876 -3.17782e-05 -5.72641e-05 1.52192e-05 0 5.88414e-09
37 3 0.001 0.00795479 0.00442428 -0.0274713 2.66085e-05 9.41285e-05 -1.73922e-05 0 5.8757e-09
38 3 0.001 0.00806953 0.00448813 -0.0268532 -3.98744e-05 8.33424e-06 3.39611e-06 0 5.86891e-09
39 3 0.001 0.0081769 0.00454788 -0.0262333 1.37991e-05 -8.56178e-05 5.34542e-06 0 5.85874e-09
40 3 0.001 0.008277 0.0046036 -0.0256118 3.73342e-05 6.49625e-05 -8.16539e-06 0 5.84239e-09
41 3 0.001 0.00836996 0.00465533 -0.0249889 -9.68204e-05 1.3835e-05 1.42776e-05 0 5.82323e-09
42 3 0.001 0.00845591 0.00470317 -0.0243646 0.000149508 -0.000107347 -1.4108e-05 0 5.80626e-09
43 3 0.001 0.008535 0.0047472 -0.0237392 -0.000133221 0.000116417 5.7161e-06 0 5.79086e-09
44 3 0.001 0.00860741 0.00478751 -0.0231127 4.48792e-05 -6.3817e-05 -6.21454e-07 0 5.7724e-09
45 3 0.001 0.00867334 0.00482423 -0.0224853 5.96701e-05 4.12764e-06 -2.41369e-06 0 5.74876e-09
46 3 0.001 0.00873301 0.00485746 -0.021857 -0.000148467 0.000113822 8.91275e-06 0 5.72405e-09
47 3 0.001 0.00878664 0.00488735 -0.021228 0.000162526 -0.000163427 -8.75902e-06 0 5.70343e-09
48 3 0.001 0.0088345 0.00491401 -0.0205985 -9.52982e-05 4.80989e-05 1.74171e-06 0 5.68559e-09
49 3 0.001 0.00887684 0.0049376 -0.0199684 2.44704e-05 4.14457e-05 -2.2211e-06 0 5.66518e-09
50 3 0.001 0.00891396 0.0049583 -0.0193378 3.72307e-05 -3.18096e-05 2.99187e-06 0 5.64023e-09
51 3 0.001 0.00894614 0.00497625 -0.0187069 -8.39881e-05 3.99534e-06 5.26979e-06 0 5.61537e-09
52 3 0.001 0.0089737 0.00499163 -0.0180757 7.9621e-05 7.19272e-06 -5.87473e-06 0 5.59555e-09
53 3 0.001 0.00899696 0.00500462 -0.0174443 -4.33024e-05 3.04926e-05 -1.92471e-06 0 5.57962e-09
54 3 0.001 0.00901627 0.00501542 -0.0168127 1.54901e-05 -4.47837e-05 2.92592e-07 0 5.56276e-09
55 3 0.001 0.00903195 0.0050242 -0.016181 -1.80094e-05 -1.12383e-05 3.02979e-06 0 5.54284e-09
56 3 0.001 0.00904438 0.00503116 -0.0155492 3.10268e-05 3.66312e-05 7.62544e-07 0 5.52298e-09
57 3 0.001 0.0090539 0.0050365 -0.0149173 1.03915e-05 -4.52499e-05 -9.15244e-07 0 5.50745e-09
58 3 0.001 0.00906085 0.00504041 -0.0142854 -8.99723e-05 0.00011392 -1.74992e-06 0 5.49657e-09
59 3 0.001 0.00906558 0.00504308 -0.0136534 0.000114846 -0.000152259 -9.9456e-08 0 5.48724e-09
60 3 0.001 0.00906841 0.00504467 -0.0130214 -7.24217e-05 5.80296e-05 1.65576e-06 0 5.47792e-09
61 3 0.001 0.00906964 0.00504537 -0.0123894 1.70065e-05 9.51083e-05 3.12218e-07 0 5.47062e-09
62 3 0.001 0.00906955 0.00504531 -0.0117574 1.37874e-05 -0.000181289 -1.50602e-06 0 5.46722e-09
63 3 0.001 0.0090684 0.00504465 -0.0111255 6.04564e-06 0.00016047 -4.34908e-07 0 5.46609e-09
64 3 0.001 0.00906643 0.00504353 -0.0104935 -0.000146098 -5.78394e-05 6.46251e-07 0 5.46437e-09
65 3 0.001 0.00906385 0.00504205 -0.00986149 0.000424704 -5.30446e-05 3.29015e-06 0 5.46213e-09
66 3 0.001 0.00906088 0.00504032 -0.0092295 -0.000818257 7.59863e-05 -4.75038e-06 0 5.46204e-09
67 3 0.001 0.00905762 0.00503845 -0.00859752 0.00142962 0.000123357 5.72049e-06 0 5.46484e-09
68 3 0.001 0.00905432 0.00503654 -0.00796554 -0.0017349 -0.000338479 -1.05712e-05 0 5.46759e-09
69 3 0.001 0.00905099 0.00503462 -0.00733357 0.0012311 0.000193482 9.15357e-06 0 5.46756e-09
70 3 0.001 0.00904785 0.00503278 -0.00670159 -0.000624053 2.22612e-05 -1.26859e-06 0 5.46615e-09
71 3 0.001 0.00904492 0.00503108 -0.0060696 0.000324532 3.46674e-06 2.9855e-07 0 5.46692e-09
72 3 0.001 0.00904232 0.00502957 -0.00543762 -0.000130776 -5.33377e-05 -3.22041e-06 0 5.4705e-09
73 3 0.001 0.00904011 0.00502828 -0.00480564 4.04644e-05 1.9407e-05 -2.0368e-07 0 5.47344e-09
74 3 0.001 0.00903832 0.00502724 -0.00417365 -3.98968e-05 -3.95539e-06 2.23145e-06 0 5.47293e-09
75 3 0.001 0.00903702 0.00502647 -0.00354166 7.94088e-05 -7.89331e-06 1.9817e-06 0 5.47076e-09
76 3 0.001 0.00903622 0.00502601 -0.00290967 -0.000121248 4.18769e-05 -1.20209e-06 0 5.47075e-09
77 3 0.001 0.00903593 0.00502585 -0.00227768 0.00012584 -3.79275e-06 -2.53018e-06 0 5.47354e-09
78 3 0.001 0.00903618 0.00502599 -0.00164569 -6.89435e-05 -9.92263e-05 -3.70703e-07 0 5.47575e-09
79 3 0.001 0.00903695 0.00502644 -0.00101371 -3.9542e-05 0.000149673 2.05948e-06 0 5.47468e-09
80 3 0.001 0.00903823 0.00502719 -0.000381717 0.0001328 -0.00010769 1.46056e-06 0 5.47202e-09
81 3 0.001 0.00903999 0.00502822 0.000250269 -0.000144006 4.93794e-05 -5.85805e-07 0 5.47126e-09
82 3 0.001 0.00904219 0.0050295 0.000882254 0.000124526 -6.59097e-05 -2.36529e-06 0 5.47284e-09
83 3 0.001 0.00904478 0.00503101 0.00151424 -0.000137103 0.000136779 4.19314e-08 0 5.47381e-09
84 3 0.001 0.00904769 0.00503271 0.00214622 0.000121517 -0.000236244 1.87231e-06 0 5.47211e-09
85 3 0.001 0.00905086 0.00503454 0.0027782 -8.00154e-05 0.00053866 -2.53714e-07 0 5.46956e-09
86 3 0.001 0.00905417 0.00503647 0.00341018 6.60613e-05 -0.000884964 1.13793e-06 0 5.46907e-09
87 3 0.001 0.00905752 0.00503839 0.00404215 -2.10893e-05 0.000809422 -3.87035e-06 0 5.47035e-09
88 3 0.001 0.00906079 0.00504029 0.00467413 -4.22395e-05 -0.00048776 2.25396e-06 0 5.47063e-09
89 3 0.001 0.00906382 0.00504203 0.00530611 2.0409e-05 0.000286945 9.65361e-07 0 5.4691e-09
90 3 0.001 0.00906646 0.00504355 0.0059381 8.02877e-05 -0.00016962 4.93929e-07 0 5.46837e-09
91 3 0.001 0.00906851 0.00504473 0.00657008 -0.000150742 9.47919e-05 -1.57355e-06 0 5.47104e-09
92 3 0.001 0.00906975 0.00504544 0.00720207 0.000148046 -9.2911e-05 -1.6949e-06 0 5.47624e-09
93 3 0.001 0.00906996 0.00504556 0.00783406 -9.98999e-05 9.28181e-05 1.0476e-06 0 5.48107e-09
94 3 0.001 0.00906887 0.00504494 0.00846605 9.74086e-06 -3.16516e-05 2.19437e-06 0 5.48522e-09
95 3 0.001 0.0090662 0.00504344 0.00909803 8.08585e-05 -5.24351e-05 8.05472e-07 0 5.49193e-09
96 3 0.001 0.00906166 0.00504088 0.00972999 -9.18449e-05 9.9117e-05 -2.26577e-06 0 5.50391e-09
97 3 0.001 0.00905492 0.00503709 0.0103619 2.98256e-05 -4.67979e-05 -1.98801e-06 0 5.52003e-09
98 3 0.001 0.00904564 0.00503187 0.0109938 1.3452e-05 -7.22103e-05 1.26092e-07 0 5.53664e-09
99 3 0.001 0.00903348 0.00502505 0.0116256 -1.32646e-05 0.000145082 4.16747e-06 0 5.55192e-09
101 3 0.001 0.00899907 0.0050058 0.012889 -6.14637e-06 1.45298e-05 -2.18822e-06 0 5.58841e-09
100 3 0.001 0.00901807 0.00501643 0.0122574 1.72394e-05 -0.000123262 -2.71989e-07 0 5.56818e-09
102 3 0.001 0.00897612 0.00499298 0.0135204 -6.31304e-05 8.76487e-05 -2.98086e-06 0 5.61167e-09
103 3 0.001 0.00894889 0.00497778 0.0141516 0.000111214 -7.39361e-05 4.53049e-06 0 5.63356e-09
104 3 0.001 0.00891706 0.00496002 0.0147825 -5.08682e-05 6.97061e-06 5.76947e-07 0 5.65261e-09
105 3 0.001 0.0088803 0.00493952 0.0154131 -3.65103e-05 1.3779e-06 -2.40122e-06 0 5.673e-09
106 3 0.001 0.00883831 0.00491612 0.0160432 4.92891e-05 4.14366e-05 2.20193e-06 0 5.6977e-09
108 3 0.001 0.00873755 0.00485998 0.0173019 4.76655e-05 -1.72768e-05 5.4005e-06 0 5.74607e-09
107 3 0.001 0.00879082 0.00488965 0.0166728 -3.05274e-05 -5.30292e-05 -6.52974e-06 0 5.72367e-09
109 3 0.001 0.00867825 0.00482694 0.0179302 -7.26972e-05 0.000104067 2.12685e-06 0 5.76442e-09
110 3 0.001 0.00861267 0.00479043 0.0185576 6.1582e-05 -0.000114803 -3.18169e-07 0 5.78355e-09
111 3 0.001 0.00854061 0.00475031 0.0191842 -1.45396e-05 6.37518e-05 -1.26453e-06 0 5.80688e-09
113 3 0.001 0.00837625 0.00465881 0.020434 6.19224e-05 1.43512e-05 1.22659e-05 0 5.84977e-09
112 3 0.001 0.00846187 0.00470647 0.0198097 -4.2714e-05 -2.40291e-05 -1.04137e-05 0 5.8311e-09
116 3 0.001 0.00807672 0.0044921 0.0222984 -1.94032e-05 0.000165199 8.63846e-06 0 5.88877e-09
114 3 0.001 0.00828361 0.00460725 0.021057 -3.63986e-05 3.40212e-05 2.48449e-06 0 5.86157e-09
115 3 0.001 0.00818381 0.00455171 0.0216785 1.9984e-05 -0.000139394 -9.30642e-06 0 5.87296e-09
117 3 0.001 0.00796225 0.00442841 0.0229166 -4.11863e-07 -5.39359e-05 -8.88927e-06 0 5.90512e-09
118 3 0.001 0.00784033 0.00436057 0.023533 1.78707e-05 -6.25889e-05 -2.08182e-06 0 5.91542e-09
119 3 0.001 0.0077109 0.00428856 0.0241473 -3.09947e-05 0.00010789 1.06889e-05 0 5.91828e-09
120 3 0.001 0.00757393 0.00421235 0.0247595 5.13212e-05 -9.91038e-05 9.83903e-07 0 5.91871e-09
121 3 0.001 0.00742941 0.00413195 0.0253694 -1.57776e-05 3.5505e-05 -2.09583e-06 0 5.92197e-09
122 3 0.001 0.00727736 0.00404736 0.0259769 -5.60571e-05 4.4733e-05 -1.20499e-05 0 5.92671e-09
123 3 0.001 0.0071178 0.0039586 0.0265819 7.01087e-05 -8.84346e-05 5.94815e-06 0 5.92666e-09
124 3 0.001 0.0069508 0.0038657 0.0271843 -3.51867e-05 9.72295e-05 9.55177e-06 0 5.91892e-09
125 3 0.001 0.00677643 0.0037687 0.0277839 1.08582e-05 -5.51113e-05 -3.98225e-06 0 5.90803e-09
126 3 0.001 0.00659479 0.00366766 0.0283806 1.37871e-06 -2.69115e-05 -7.02201e-06 0 5.89944e-09
127 3 0.001 0.00640598 0.00356264 0.0289745 -1.93124e-05 6.92417e-05 3.44035e-06 0 5.89174e-09
128 3 0.001 0.00621015 0.00345371 0.0295654 1.61944e-05 -5.16657e-05 -3.20764e-06 0 5.87963e-09
130 3 0.001 0.00579805 0.0032245 0.030738 6.48727e-06 -2.94251e-05 -3.27238e-06 0 5.84345e-09
129 3 0.001 0.00600745 0.00334097 0.0301532 5.48697e-06 2.45761e-05 9.63314e-06 0 5.86208e-09
131 3 0.001 0.00558213 0.0031044 0.0313196 -4.96044e-05 6.32622e-05 -8.31644e-06 0 5.82702e-09
132 3 0.001 0.0053599 0.0029808 0.0318981 7.77328e-05 -8.4064e-05 1.08279e-05 0 5.81034e-09
133 3 0.001 0.00513157 0.00285381 0.0324736 -7.73348e-05 5.13121e-05 -1.74868e-05 0 5.78944e-09
135 3 0.001 0.00465757 0.00259019 0.0336152 1.32292e-05 -6.68135e-05 -1.10218e-05 0 5.74245e-09
134 3 0.001 0.00489738 0.00272356 0.0330459 4.33184e-05 1.77859e-05 2.47869e-05 0 5.76522e-09
136 3 0.001 0.00441239 0.00245383 0.0341814 -4.38517e-05 8.17656e-05 -3.05649e-06 0 5.72335e-09
139 3 0.001 0.00364737 0.00202837 0.0358631 1.13286e-05 3.48799e-05 1.78042e-05 0 5.65535e-09
137 3 0.001 0.00416211 0.00231464 0.0347448 3.29671e-05 -6.41423e-05 -2.32465e-06 0 5.70424e-09
138 3 0.001 0.00390701 0.00217277 0.0353053 -9.8209e-06 1.05857e-05 1.53935e-06 0 5.68091e-09
140 3 0.001 0.00338349 0.00188162 0.0364182 -2.97026e-05 -4.18317e-05 -2.72981e-05 0 5.63357e-09
141 3 0.001 0.00311566 0.00173267 0.0369709 2.60108e-05 3.0743e-05 1.65248e-05 0 5.61722e-09
144 3 0.001 0.00229162 0.0012744 0.0386157 -1.89775e-05 1.88695e-05 -8.722e-07 0 5.56048e-09
143 3 0.001 0.00256941 0.00142889 0.0380695 3.67602e-05 -1.78529e-05 1.7652e-05 0 5.58136e-09
142 3 0.001 0.0028442 0.0015817 0.0375213 -2.7259e-05 -6.01565e-06 -1.59824e-05 0 5.60123e-09
145 3 0.001 0.00201116 0.00111843 0.0391602 1.53276e-05 -2.62256e-05 -1.56133e-06 0 5.54475e-09
146 3 0.001 0.00172834 0.000961148 0.039703 -2.46624e-05 4.49947e-05 -4.35139e-06 0 5.53538e-09
147 3 0.001 0.00144349 0.000802743 0.0402445 -5.74263e-06 -3.07468e-05 -1.30634e-05 0 5.52727e-09
150 3 0.001 0.00058014 0.000322624 0.0418628 7.87294e-05 -3.88747e-05 2.88364e-05 0 3.27287e-09
148 3 0.001 0.00115695 0.000643397 0.0407847 5.01588e-05 -1.01818e-05 2.74351e-05 0 5.51632e-09
149 3 0.001 0.000869065 0.000483297 0.0413241 -7.59365e-05 3.55426e-05 -2.71378e-05 0 5.36778e-09
151 3 0.001 0.000290241 0.000161406 0.0424015 -4.81705e-05 2.68182e-05 -2.15984e-05 0 1.32077e-09
2 2 0.001 0 0 0.04294 -0.00201654 -0.00113689 0.00816844 0 6.60684e-10
