ITEM: TIMESTEP
4700000
ITEM: NUMBER OF ATOMS
151
ITEM: BOX BOUNDS ff ff ff
-1.0000000000000000e-02 1.0000000000000000e-02
-6.0000000000000001e-03 6.0000000000000001e-03
-5.2499999999999998e-02 5.2499999999999998e-02
ITEM: ATOMS id type radius x y z fx fy fz c_bendingE c_stretchingE
3 3 0.001 0.00039339 0.000282607 -0.0470947 0.000451363 -0.000688556 6.79645e-05 0 9.49334e-09
1 1 0.001 0 0 -0.0475 -0.00603688 -0.00249687 -0.0156504 0 4.74533e-09
4 3 0.001 0.000786128 0.000564399 -0.0466882 -0.00099928 0.00122719 0.000126627 0 1.37041e-08
5 3 0.001 0.0011771 0.000844362 -0.0462798 0.00136576 -0.00149077 -0.000299997 0 1.82608e-08
6 3 0.001 0.00156609 0.00112188 -0.045868 -0.0013493 0.00138279 0.000326322 0 1.87152e-08
7 3 0.001 0.00195235 0.00139629 -0.0454515 0.00119147 -0.00116503 -0.000330052 0 1.89302e-08
8 3 0.001 0.00233526 0.00166669 -0.0450293 -0.000843419 0.000889878 0.000209992 0 1.91603e-08
9 3 0.001 0.00271402 0.00193237 -0.0446005 0.00022258 -0.000295726 -1.86851e-05 0 1.9435e-08
10 3 0.001 0.00308795 0.00219247 -0.0441641 0.000300444 -0.000229178 -0.000140493 0 1.97724e-08
11 3 0.001 0.0034563 0.00244617 -0.0437194 -0.000628099 0.000389722 0.00028129 0 2.0141e-08
12 3 0.001 0.00381828 0.00269269 -0.0432654 0.00075974 -0.000531457 -0.000288554 0 2.0484e-08
13 3 0.001 0.00417315 0.00293122 -0.0428018 -0.000652459 0.000637175 0.000212457 0 2.07882e-08
14 3 0.001 0.0045201 0.003161 -0.0423278 0.000504363 -0.000616643 -7.11385e-05 0 2.11192e-08
15 3 0.001 0.00485836 0.00338124 -0.0418432 -0.000312531 0.000604056 -9.40704e-05 0 2.15321e-08
16 3 0.001 0.00518714 0.00359122 -0.0413477 0.00026048 -0.000529004 5.70987e-06 0 2.19841e-08
17 3 0.001 0.00550566 0.0037902 -0.0408411 -0.000568815 0.000712101 7.89727e-05 0 2.23739e-08
18 3 0.001 0.00581317 0.00397753 -0.0403234 0.000906925 -0.00131101 -2.77804e-05 0 2.26383e-08
19 3 0.001 0.00610899 0.00415253 -0.0397947 -0.00104248 0.00145394 0.000148373 0 2.28126e-08
20 3 0.001 0.0063924 0.00431475 -0.0392553 0.000758875 -0.0007857 -0.000153701 0 2.29864e-08
21 3 0.001 0.00666284 0.0044636 -0.0387055 9.86121e-06 -1.06773e-05 -4.08624e-05 0 2.32163e-08
22 3 0.001 0.00691973 0.00459869 -0.0381457 -0.000640753 0.000430809 0.000137975 0 2.34608e-08
23 3 0.001 0.00716255 0.00471969 -0.0375765 0.000843962 -0.000653091 -0.000215851 0 2.3597e-08
24 3 0.001 0.00739096 0.00482631 -0.0369985 -0.00107829 0.0011674 0.000254931 0 2.35623e-08
25 3 0.001 0.00760459 0.00491844 -0.0364124 0.00130997 -0.00167735 -0.000194217 0 2.34401e-08
26 3 0.001 0.00780331 0.00499589 -0.0358191 -0.00101003 0.00143617 0.000141084 0 2.33325e-08
27 3 0.001 0.00798691 0.00505881 -0.0352191 0.000466028 -0.000690085 -9.41319e-05 0 2.32213e-08
28 3 0.001 0.00815543 0.00510726 -0.0346134 -0.000215167 0.000191086 3.47738e-05 0 2.30368e-08
29 3 0.001 0.00830895 0.00514145 -0.0340028 0.000108111 -5.54878e-05 -1.30872e-05 0 2.27648e-08
30 3 0.001 0.00844771 0.0051616 -0.0333879 -7.25544e-06 -1.26901e-05 1.11246e-05 0 2.24582e-08
31 3 0.001 0.00857201 0.00516799 -0.0327697 -0.000157025 4.76595e-05 2.54364e-05 0 2.21809e-08
32 3 0.001 0.00868226 0.00516087 -0.0321488 0.000284324 -1.95716e-05 -4.79432e-05 0 2.1938e-08
33 3 0.001 0.00877899 0.00514048 -0.031526 5.99161e-06 -2.01861e-05 8.72224e-06 0 2.16995e-08
34 3 0.001 0.00886279 0.00510704 -0.0309018 -0.000374434 0.000193017 5.86692e-05 0 2.1466e-08
35 3 0.001 0.0089343 0.00506078 -0.0302769 0.000387134 -0.000342853 -8.49291e-05 0 2.12471e-08
36 3 0.001 0.00899434 0.00500194 -0.0296518 -0.00024324 0.00027016 3.65923e-05 0 2.10156e-08
37 3 0.001 0.00904371 0.00493084 -0.0290271 -8.47037e-05 -0.000136598 -6.72157e-06 0 2.07347e-08
38 3 0.001 0.00908332 0.00484782 -0.0284031 0.000513831 -8.97535e-05 -1.90145e-05 0 2.03973e-08
39 3 0.001 0.00911416 0.00475332 -0.0277802 -0.000554401 0.000212928 7.16695e-05 0 2.00515e-08
40 3 0.001 0.00913713 0.00464782 -0.0271588 0.000197728 4.68097e-05 -8.40028e-06 0 1.9763e-08
42 3 0.001 0.00916333 0.0044059 -0.0259209 -0.000307984 0.000152412 2.53843e-05 0 1.93472e-08
41 3 0.001 0.00915321 0.00453183 -0.026539 0.000197238 -0.000233869 -7.15853e-05 0 1.95421e-08
44 3 0.001 0.00916906 0.00412671 -0.0246906 0.000559791 -5.71274e-05 5.62791e-06 0 1.89217e-08
45 3 0.001 0.00916624 0.00397478 -0.0240784 -0.000727543 0.00029458 7.39532e-05 0 1.87426e-08
43 3 0.001 0.00916834 0.00427065 -0.0253048 -7.31791e-05 -8.74005e-05 -8.28355e-06 0 1.91379e-08
47 3 0.001 0.00915244 0.00364981 -0.0228593 -4.43432e-05 0.000119856 2.34044e-05 0 1.85457e-08
46 3 0.001 0.0091605 0.00381558 -0.023468 0.000645757 -0.000313074 -9.04139e-05 0 1.86266e-08
48 3 0.001 0.00914252 0.00347826 -0.0222523 -0.00115884 2.22475e-05 -7.034e-06 0 1.84557e-08
50 3 0.001 0.00911874 0.00312093 -0.0210425 -0.0032067 1.92184e-05 -6.8274e-05 0 1.82922e-08
49 3 0.001 0.00913113 0.00330169 -0.0216468 0.00233892 -4.29785e-05 4.40565e-05 0 1.83588e-08
52 3 0.001 0.00909172 0.00275006 -0.0198367 -0.00440215 -0.000707355 -0.000320347 0 1.82379e-08
51 3 0.001 0.00910544 0.00293677 -0.0204392 0.00379348 9.99534e-05 0.000106187 0 1.82634e-08
55 3 0.001 0.00904866 0.002183 -0.0180316 0.00520186 0.00306863 0.0010732 0 1.82063e-08
53 3 0.001 0.00907748 0.00256159 -0.0192348 0.00568983 0.00247307 0.000926192 0 1.81986e-08
54 3 0.001 0.00906321 0.00237238 -0.0186332 -0.00646681 -0.00390296 -0.00138457 0 1.81779e-08
57 3 0.001 0.00901988 0.00180765 -0.0168273 0.00209492 0.000752106 0.000296953 0 1.82894e-08
56 3 0.001 0.00903428 0.00199452 -0.0174297 -0.00328839 -0.00160693 -0.000590447 0 1.82593e-08
60 3 0.001 0.00897802 0.0012656 -0.0150144 -0.000957974 -0.000183057 -9.52755e-05 0 1.84417e-08
59 3 0.001 0.0089917 0.00144237 -0.0156199 0.00105715 8.22926e-05 4.66106e-05 0 1.83397e-08
58 3 0.001 0.0090057 0.00162333 -0.0162241 -0.00140259 -0.000161404 -6.24248e-05 0 1.82985e-08
61 3 0.001 0.00896467 0.0010938 -0.0144076 0.000928972 9.48713e-05 3.17495e-05 0 1.85713e-08
62 3 0.001 0.00895176 0.000927796 -0.0137991 -0.001113 -6.1154e-05 -3.08189e-05 0 1.86757e-08
64 3 0.001 0.00892747 0.000616225 -0.0125767 -0.00145622 -0.000113223 -4.7287e-05 0 1.8823e-08
63 3 0.001 0.00893931 0.000768348 -0.0131888 0.00136606 0.000126734 7.95803e-05 0 1.87459e-08
66 3 0.001 0.00890566 0.000336767 -0.0113466 -0.00202123 0.000189753 -7.7638e-06 0 1.90816e-08
67 3 0.001 0.00889576 0.000210789 -0.0107286 0.00198036 -0.000394736 -4.95708e-05 0 1.92186e-08
65 3 0.001 0.0089162 0.00047213 -0.0119627 0.00172371 1.59224e-05 2.65125e-05 0 1.89384e-08
68 3 0.001 0.0088867 9.47857e-05 -0.0101086 -0.00177946 0.00034226 4.12097e-05 0 1.93317e-08
69 3 0.001 0.0088784 -1.06316e-05 -0.00948672 0.0014967 -0.000201362 -1.09308e-05 0 1.94331e-08
72 3 0.001 0.00885895 -0.000258453 -0.00761097 -0.0003181 0.000173515 1.45081e-05 0 1.96983e-08
71 3 0.001 0.0088645 -0.0001877 -0.00823775 0.000770403 -6.53163e-05 1.53191e-06 0 1.96192e-08
70 3 0.001 0.00887102 -0.000104956 -0.00886306 -0.00111956 0.000133546 8.74429e-06 0 1.95304e-08
73 3 0.001 0.00885434 -0.000316851 -0.00698291 -0.000385611 -0.000185039 -2.07805e-05 0 1.977e-08
74 3 0.001 0.00885072 -0.000362627 -0.00635381 0.00101171 -5.44605e-05 -1.23549e-06 0 1.98338e-08
75 3 0.001 0.00884815 -0.000395536 -0.0057239 -0.00132396 -5.62816e-05 -7.95416e-06 0 1.9885e-08
76 3 0.001 0.00884656 -0.000415395 -0.00509344 0.0013854 0.000323645 8.46503e-06 0 1.99158e-08
77 3 0.001 0.00884606 -0.000422069 -0.00446271 -0.000931093 -0.000212316 4.22633e-06 0 1.99173e-08
78 3 0.001 0.00884655 -0.000415562 -0.00383197 3.90384e-06 0.000106985 6.74424e-06 0 1.98901e-08
79 3 0.001 0.00884807 -0.0003959 -0.00320151 0.000867824 -0.000259358 8.47468e-06 0 1.98549e-08
80 3 0.001 0.00885064 -0.000363197 -0.00257159 -0.00138245 0.000299719 -2.45871e-05 0 1.98325e-08
81 3 0.001 0.00885417 -0.000317589 -0.00194247 0.00123393 4.20824e-05 -2.69187e-05 0 1.98109e-08
82 3 0.001 0.00885875 -0.000259328 -0.00131441 -0.000533012 -0.000360314 5.19105e-05 0 1.97448e-08
83 3 0.001 0.00886427 -0.000188746 -0.000687607 -0.000247594 0.000314314 -1.07816e-05 0 1.96192e-08
84 3 0.001 0.00887074 -0.000106161 -6.2276e-05 0.00101846 -0.000244256 2.9045e-05 0 1.9489e-08
85 3 0.001 0.00887814 -1.20082e-05 0.000561415 -0.00140503 0.000352659 -5.99594e-05 0 1.94058e-08
86 3 0.001 0.00888635 9.32622e-05 0.00118332 0.00110929 -0.000455732 4.5779e-05 0 1.93481e-08
87 3 0.001 0.00889541 0.000209088 0.00180334 -0.000737666 0.000333529 -5.00817e-05 0 1.92565e-08
88 3 0.001 0.00890523 0.000334941 0.0024214 0.000563061 -0.000200569 4.95427e-05 0 1.9117e-08
89 3 0.001 0.0089158 0.000470192 0.00303746 -0.000289725 0.000263053 -4.5472e-05 0 1.89689e-08
90 3 0.001 0.00892703 0.000614203 0.00365154 -3.85043e-05 -5.1967e-05 6.86054e-06 0 1.88488e-08
91 3 0.001 0.00893887 0.000766254 0.00426367 0.0002613 -0.000206256 4.10624e-05 0 1.87523e-08
92 3 0.001 0.00895128 0.000925603 0.00487393 -0.000230746 1.45593e-05 2.55869e-06 0 1.86555e-08
93 3 0.001 0.00896417 0.00109152 0.00548245 -0.000144393 0.000104913 -2.29002e-05 0 1.85558e-08
94 3 0.001 0.00897749 0.00126325 0.00608934 0.000661004 7.45135e-05 -3.67893e-05 0 1.84666e-08
95 3 0.001 0.00899119 0.00143999 0.00669479 -0.00117198 -0.00030469 0.000114361 0 1.83959e-08
96 3 0.001 0.00900516 0.00162091 0.007299 0.00175038 0.000464502 -0.000185491 0 1.8342e-08
97 3 0.001 0.00901941 0.00180523 0.00790218 -0.00236156 -0.000427367 0.000188561 0 1.82965e-08
98 3 0.001 0.00903374 0.00199206 0.00850459 0.00299882 0.000450668 -0.000208719 0 1.82558e-08
99 3 0.001 0.00904825 0.00218059 0.00910647 -0.00485982 -0.000913229 0.000407352 0 1.8226e-08
100 3 0.001 0.00906265 0.00236992 0.0097081 0.00619431 0.0010423 -0.000475927 0 1.82137e-08
101 3 0.001 0.00907712 0.00255926 0.0103097 -0.004275 -0.000257201 0.000180742 0 1.82219e-08
102 3 0.001 0.00909127 0.00274775 0.0109116 0.00194078 -0.000290499 3.89762e-05 0 1.82524e-08
103 3 0.001 0.00910513 0.00293452 0.0115141 -0.000960682 0.000115717 -1.75819e-05 0 1.82975e-08
104 3 0.001 0.00911841 0.00311875 0.0121173 0.000590028 0.000151691 -5.09558e-05 0 1.83406e-08
105 3 0.001 0.00913093 0.00329961 0.0127216 -0.00054444 -0.000110033 5.68233e-05 0 1.83786e-08
106 3 0.001 0.00914235 0.00347627 0.0133271 0.000298714 -0.00012035 2.95784e-05 0 1.84388e-08
107 3 0.001 0.00915236 0.00364792 0.0139341 -9.23407e-05 0.000136 -5.17608e-05 0 1.85476e-08
108 3 0.001 0.00916054 0.0038138 0.0145427 0.000147409 6.90804e-05 -3.1712e-05 0 1.869e-08
109 3 0.001 0.0091664 0.00397315 0.015153 -0.000199377 -0.000108967 3.1427e-05 0 1.88333e-08
110 3 0.001 0.00916936 0.0041252 0.0157652 2.71455e-05 -3.21643e-05 1.83657e-05 0 1.89709e-08
111 3 0.001 0.00916878 0.00426925 0.0163794 0.000174348 -8.75287e-06 1.50972e-05 0 1.912e-08
112 3 0.001 0.00916394 0.00440463 0.0169955 -0.000204939 0.000146332 -3.05711e-05 0 1.93077e-08
113 3 0.001 0.00915402 0.0045307 0.0176135 0.000203741 -0.000148899 2.33859e-05 0 1.95533e-08
114 3 0.001 0.00913817 0.00464684 0.0182333 -2.96531e-05 -5.18434e-05 -5.65278e-06 0 1.98478e-08
115 3 0.001 0.00911543 0.0047525 0.0188547 -0.000507536 0.000382145 -8.59773e-05 0 2.01559e-08
116 3 0.001 0.00908485 0.00484716 0.0194776 0.000981005 -0.000626284 0.000156405 0 2.04452e-08
117 3 0.001 0.00904552 0.00493032 0.0201016 -0.000896019 0.000827595 -0.000149969 0 2.07158e-08
118 3 0.001 0.0089964 0.0050016 0.0207263 0.000372791 -0.000711555 9.96711e-05 0 2.09997e-08
119 3 0.001 0.00893664 0.00506056 0.0213514 -1.85967e-05 0.000183443 -3.72658e-05 0 2.13004e-08
120 3 0.001 0.0088654 0.00510696 0.0219763 -1.5293e-05 9.73308e-05 -9.1322e-06 0 2.15664e-08
121 3 0.001 0.00878191 0.00514054 0.0226005 0.000261339 -0.000350069 6.88961e-05 0 2.17737e-08
122 3 0.001 0.00868548 0.00516106 0.0232234 -0.000765437 0.000884945 -0.00013345 0 2.19661e-08
123 3 0.001 0.00857547 0.00516836 0.0238443 0.000905386 -0.00106209 0.000166803 0 2.22039e-08
125 3 0.001 0.0083129 0.00514208 0.0250775 0.000124159 -1.17502e-05 2.38848e-05 0 2.28129e-08
124 3 0.001 0.00845143 0.00516209 0.0244626 -0.000547413 0.000655522 -0.000118203 0 2.2501e-08
127 3 0.001 0.00799125 0.00505972 0.0262939 -0.000350035 0.000300491 -7.12031e-05 0 2.33074e-08
126 3 0.001 0.00815958 0.00510805 0.0256882 0.00015662 -0.000312375 2.59475e-05 0 2.30885e-08
128 3 0.001 0.0078078 0.00499693 0.0268939 0.000500167 -0.000455259 0.000110745 0 2.34577e-08
129 3 0.001 0.00760925 0.00491953 0.0274874 -0.000506594 0.000489149 -0.000102145 0 2.35408e-08
130 3 0.001 0.00739569 0.00482754 0.0280735 0.000252109 -9.54448e-05 8.06944e-05 0 2.35724e-08
133 3 0.001 0.00666767 0.00446506 0.0297805 0.000185792 -0.000352869 5.83562e-06 0 2.33836e-08
132 3 0.001 0.00692455 0.00460008 0.0292207 -0.000234467 0.000596164 2.16132e-05 0 2.35123e-08
131 3 0.001 0.00716736 0.004721 0.0286515 7.94278e-05 -0.000364279 -5.07814e-05 0 2.35652e-08
135 3 0.001 0.0061137 0.00415405 0.0308697 -0.000391436 0.000635851 -4.43084e-06 0 2.29193e-08
134 3 0.001 0.0063972 0.00431624 0.0303303 9.48685e-05 -0.000247995 -1.24267e-05 0 2.31765e-08
136 3 0.001 0.00581777 0.00397903 0.0313984 0.000303928 -0.000529061 -1.72577e-05 0 2.26442e-08
138 3 0.001 0.00519142 0.00359267 0.0324224 -0.000235736 0.000171926 -8.27675e-05 0 2.2036e-08
139 3 0.001 0.00486246 0.00338266 0.0329178 0.000518899 -0.000425289 0.000184648 0 2.16581e-08
137 3 0.001 0.0055101 0.00379169 0.031916 -8.40571e-06 0.000148699 3.42982e-05 0 2.23593e-08
141 3 0.001 0.00417681 0.00293252 0.033876 0.000355773 -0.000510208 3.62678e-06 0 2.08742e-08
142 3 0.001 0.00382168 0.00269389 0.0343394 -1.81083e-05 0.000174639 6.35903e-05 0 2.05235e-08
140 3 0.001 0.00452401 0.00316235 0.0334022 -0.000608509 0.000587984 -0.000144254 0 2.12556e-08
144 3 0.001 0.00309074 0.00219349 0.0352374 0.000610958 -0.000860306 1.06915e-05 0 1.98551e-08
143 3 0.001 0.0034594 0.00244728 0.034793 -0.000302469 0.00039606 -3.1638e-05 0 2.01855e-08
145 3 0.001 0.00271649 0.00193328 0.0356735 -0.000945476 0.000990438 -0.000217104 0 1.95363e-08
147 3 0.001 0.00195416 0.00139694 0.0365237 -0.000924033 0.00100173 -0.000188524 0 1.89631e-08
148 3 0.001 0.00156753 0.00112244 0.0369397 0.000695544 -0.000696467 0.000177696 0 1.8757e-08
149 3 0.001 0.00117823 0.00084475 0.0373512 -0.000552029 0.000479236 -0.000214425 0 1.83458e-08
146 3 0.001 0.00233736 0.00166751 0.0361019 0.00112733 -0.00106219 0.000356901 0 1.9232e-08
151 3 0.001 0.000393753 0.000282742 0.0381652 0.000167397 5.19612e-05 0.000209721 0 9.53657e-09
2 2 0.001 0 0 0.03857 -0.0060565 -0.00267005 0.0155416 0 4.7565e-09
150 3 0.001 0.00078686 0.00056469 0.0377592 0.000154981 -0.000297334 -5.67299e-05 0 1.37899e-08
