ITEM: TIMESTEP
6400000
ITEM: NUMBER OF ATOMS
151
ITEM: BOX BOUNDS ff ff ff
-1.0000000000000000e-02 1.0000000000000000e-02
-6.0000000000000001e-03 6.0000000000000001e-03
-5.2499999999999998e-02 5.2499999999999998e-02
ITEM: ATOMS id type radius x y z fx fy fz c_bendingE c_stretchingE
3 3 0.001 0.000374383 0.000321959 -0.047106 4.34042e-11 -2.19681e-11 -2.76762e-11 0 7.94748e-09
1 1 0.001 0 0 -0.0475 -0.00599027 -0.00147425 -0.015538 0 3.96318e-09
4 3 0.001 0.000748307 0.000642799 -0.0467106 -3.86549e-11 1.92932e-11 9.18186e-12 0 1.18995e-08
5 3 0.001 0.00112092 0.000961064 -0.046313 -2.52966e-11 -1.84634e-11 2.22212e-11 0 1.61675e-08
6 3 0.001 0.00149211 0.00127594 -0.0459115 -6.01154e-12 4.2195e-11 -4.83897e-11 0 1.66214e-08
7 3 0.001 0.0018614 0.00158632 -0.0455048 1.35511e-12 -6.9194e-11 2.69757e-11 0 1.68815e-08
8 3 0.001 0.00222826 0.00189106 -0.0450917 -5.53191e-11 6.07397e-11 -2.37162e-11 0 1.71923e-08
9 3 0.001 0.00259214 0.002189 -0.044671 -1.35932e-11 -4.24408e-11 1.12733e-11 0 1.75495e-08
10 3 0.001 0.00295246 0.00247899 -0.0442419 -4.9392e-11 3.01576e-11 -1.63678e-11 0 1.79477e-08
11 3 0.001 0.00330858 0.00275986 -0.0438034 -7.36094e-12 -2.65805e-11 -1.45061e-11 0 1.83805e-08
12 3 0.001 0.00365985 0.00303047 -0.0433547 -9.56747e-11 1.83566e-11 2.60762e-11 0 1.88407e-08
13 3 0.001 0.00400558 0.00328966 -0.0428951 2.46728e-11 -3.50696e-11 -3.61131e-11 0 1.93199e-08
14 3 0.001 0.00434503 0.00353628 -0.0424241 -1.16101e-10 4.2802e-11 2.22435e-11 0 1.9809e-08
15 3 0.001 0.00467746 0.00376923 -0.0419413 -2.7581e-11 -3.28181e-11 -3.70936e-12 0 2.02981e-08
16 3 0.001 0.0050021 0.00398744 -0.0414465 -4.91482e-11 -2.53233e-11 2.89277e-12 0 2.07769e-08
17 3 0.001 0.00531817 0.00418987 -0.0409396 -9.61426e-11 5.33763e-11 3.7796e-12 0 2.12347e-08
18 3 0.001 0.00562488 0.00437556 -0.0404208 -5.64702e-11 -5.50535e-11 1.85417e-11 0 2.16608e-08
19 3 0.001 0.00592145 0.00454363 -0.0398902 -5.98523e-11 -1.12119e-12 1.40491e-12 0 2.20448e-08
20 3 0.001 0.00620715 0.00469326 -0.0393483 -1.16439e-10 8.21254e-12 2.77724e-11 0 2.23772e-08
21 3 0.001 0.00648125 0.00482376 -0.0387956 -7.97021e-11 -1.69086e-11 1.69912e-11 0 2.26492e-08
22 3 0.001 0.00674308 0.00493454 -0.0382327 -6.35395e-11 -2.6894e-11 1.19613e-11 0 2.28539e-08
23 3 0.001 0.00699205 0.00502513 -0.0376605 -1.36696e-10 -3.98729e-12 3.9104e-11 0 2.29812e-08
24 3 0.001 0.00722762 0.00509521 -0.0370798 -9.69119e-11 8.74456e-12 1.96203e-11 0 2.30106e-08
25 3 0.001 0.00744934 0.00514457 -0.0364915 -8.32897e-11 -6.21521e-11 2.16825e-11 0 2.29528e-08
26 3 0.001 0.00765686 0.00517311 -0.0358968 -1.4729e-10 9.13219e-12 3.94861e-11 0 2.28582e-08
27 3 0.001 0.00784993 0.0051808 -0.0352965 -1.19723e-10 -1.12361e-11 3.29552e-11 0 2.27678e-08
28 3 0.001 0.0080284 0.00516766 -0.0346918 -9.89776e-11 -5.02832e-11 2.50089e-11 0 2.26951e-08
29 3 0.001 0.00819222 0.00513372 -0.0340838 -1.67865e-10 1.1657e-11 4.39591e-11 0 2.26219e-08
30 3 0.001 0.00834146 0.0050791 -0.0334736 -9.28162e-11 -3.63838e-11 2.21441e-11 0 2.25063e-08
31 3 0.001 0.00847628 0.00500394 -0.0328621 -1.61332e-10 -3.25409e-11 3.64035e-11 0 2.23068e-08
32 3 0.001 0.00859696 0.00490852 -0.0322506 -1.42532e-10 1.33951e-11 3.96654e-11 0 2.20289e-08
33 3 0.001 0.00870387 0.00479322 -0.0316398 -8.44028e-11 -7.11937e-11 1.40432e-11 0 2.1698e-08
35 3 0.001 0.00887841 0.00450518 -0.0304245 -1.18643e-10 -2.44195e-11 2.50653e-11 0 2.09125e-08
34 3 0.001 0.00879749 0.00465857 -0.0310309 -1.96647e-10 1.65343e-11 4.75367e-11 0 2.13228e-08
37 3 0.001 0.00900491 0.00414513 -0.0292223 -1.89451e-10 2.7832e-11 4.82532e-11 0 2.0025e-08
36 3 0.001 0.0089473 0.00433376 -0.0298214 -8.75817e-11 -4.86067e-11 1.49305e-11 0 2.04766e-08
38 3 0.001 0.00905207 0.00394017 -0.0286276 -4.56691e-11 -6.07616e-11 5.54501e-12 0 1.95612e-08
39 3 0.001 0.0090897 0.00371982 -0.0280378 -1.45166e-10 7.19395e-12 3.56577e-11 0 1.90919e-08
40 3 0.001 0.00911874 0.00348507 -0.0274529 -1.54937e-10 -2.35966e-12 2.99885e-11 0 1.86328e-08
42 3 0.001 0.00915488 0.00297657 -0.0262988 -2.26681e-10 5.06347e-11 5.66774e-11 0 1.78017e-08
43 3 0.001 0.00916386 0.002705 -0.0257294 1.04343e-11 -3.72899e-11 9.8672e-12 0 1.74462e-08
41 3 0.001 0.00914015 0.00323696 -0.0268733 5.01514e-11 -7.16749e-11 -6.54545e-12 0 1.81992e-08
45 3 0.001 0.00916791 0.00213274 -0.0246048 -7.36733e-11 6.56326e-12 3.04245e-11 0 1.68691e-08
44 3 0.001 0.00916793 0.00242334 -0.0251648 -6.82268e-11 -2.53185e-11 1.48002e-11 0 1.71353e-08
48 3 0.001 0.00914998 0.0012187 -0.0229473 -4.19553e-11 1.11077e-11 3.41248e-11 0 1.63231e-08
47 3 0.001 0.00915833 0.00152927 -0.0234965 -1.98534e-11 -1.16255e-11 2.27363e-11 0 1.64649e-08
46 3 0.001 0.00916449 0.00183433 -0.0240488 -4.39837e-11 -2.5064e-11 1.38573e-11 0 1.66463e-08
50 3 0.001 0.00912855 0.000585672 -0.0218557 3.38697e-11 2.42581e-11 4.19218e-11 0 1.61517e-08
49 3 0.001 0.00913992 0.000903777 -0.0224006 -5.67463e-11 -3.66772e-11 4.96424e-12 0 1.62192e-08
51 3 0.001 0.00911622 0.000265544 -0.0213121 -7.85585e-11 -7.94756e-11 -1.99721e-11 0 1.61199e-08
53 3 0.001 0.00908998 -0.000376189 -0.0202256 -5.35908e-11 -8.50615e-11 -2.47699e-11 0 1.61543e-08
52 3 0.001 0.00910324 -5.54163e-05 -0.0207689 3.96582e-11 8.88408e-11 8.17005e-11 0 1.61208e-08
54 3 0.001 0.00907645 -0.000695507 -0.0196816 -9.47499e-12 4.41158e-11 5.07452e-11 0 1.62214e-08
55 3 0.001 0.00906278 -0.0010122 -0.0191359 7.18145e-12 -4.00982e-11 3.13703e-12 0 1.63199e-08
56 3 0.001 0.00904906 -0.00132509 -0.0185881 -1.53971e-11 9.71252e-12 3.39509e-11 0 1.64481e-08
58 3 0.001 0.00902189 -0.00193488 -0.0174836 8.57045e-11 -1.59814e-11 1.90382e-11 0 1.67865e-08
57 3 0.001 0.00903541 -0.00163304 -0.0180375 -6.71229e-11 -4.15581e-12 2.21405e-11 0 1.66044e-08
59 3 0.001 0.00900858 -0.00222946 -0.0169258 -8.29903e-11 7.3902e-12 2.43707e-11 0 1.6992e-08
62 3 0.001 0.00897048 -0.00305841 -0.0152248 -5.67752e-11 1.78952e-11 3.30193e-11 0 1.77178e-08
60 3 0.001 0.00899553 -0.00251566 -0.0163636 -1.07551e-11 3.93397e-13 2.451e-11 0 1.72181e-08
61 3 0.001 0.00898281 -0.00279234 -0.0157967 2.50597e-11 -1.45306e-11 2.13631e-11 0 1.74614e-08
63 3 0.001 0.0089586 -0.0033128 -0.0146475 4.22546e-11 -1.41461e-11 1.85987e-11 0 1.79829e-08
64 3 0.001 0.00894723 -0.00355445 -0.0140649 -8.86016e-11 6.05045e-12 2.25928e-11 0 1.82517e-08
65 3 0.001 0.00893643 -0.00378237 -0.0134767 3.33932e-11 1.7197e-11 3.06226e-11 0 1.85191e-08
66 3 0.001 0.00892626 -0.0039956 -0.0128831 -2.17062e-11 -2.31984e-11 1.74717e-11 0 1.87798e-08
67 3 0.001 0.00891676 -0.00419323 -0.0122841 -1.75243e-11 3.86394e-11 3.7703e-11 0 1.90286e-08
69 3 0.001 0.00890002 -0.00453845 -0.0110709 7.1817e-12 5.65032e-12 2.50592e-11 0 1.947e-08
68 3 0.001 0.008908 -0.00437444 -0.0116799 -4.31941e-11 -9.97806e-12 2.10116e-11 0 1.92603e-08
70 3 0.001 0.00889286 -0.0046846 -0.0104573 -2.39612e-11 1.50941e-11 2.74141e-11 0 1.9653e-08
71 3 0.001 0.00888657 -0.00481227 -0.00983957 -2.59211e-11 1.47518e-11 2.68378e-11 0 1.98053e-08
72 3 0.001 0.00888118 -0.00492099 -0.00921826 -2.10729e-11 7.83622e-12 2.70502e-11 0 1.99234e-08
73 3 0.001 0.00887672 -0.00501036 -0.00859387 -1.14395e-11 1.57629e-11 2.77655e-11 0 2.00036e-08
74 3 0.001 0.00887322 -0.0050801 -0.00796699 -5.94208e-11 -4.51042e-13 2.60544e-11 0 2.00289e-08
75 3 0.001 0.0088707 -0.00513003 -0.00733821 3.58123e-11 3.48827e-11 2.79329e-11 0 2.0002e-08
76 3 0.001 0.00886918 -0.00516007 -0.00670816 -8.10253e-11 2.5858e-12 2.53717e-11 0 1.99622e-08
77 3 0.001 0.00886865 -0.00517017 -0.00607747 2.47336e-11 4.31467e-12 2.68333e-11 0 1.99447e-08
78 3 0.001 0.00886913 -0.00516034 -0.00544678 -8.00261e-11 2.94055e-11 2.68832e-11 0 1.99629e-08
79 3 0.001 0.00887062 -0.00513058 -0.00481672 2.17475e-11 -5.37507e-12 2.76926e-11 0 2.00039e-08
80 3 0.001 0.00887309 -0.00508093 -0.00418792 -3.06692e-11 3.13963e-11 2.47253e-11 0 2.00324e-08
81 3 0.001 0.00887655 -0.00501147 -0.003561 -5.74192e-11 -9.79913e-12 2.89705e-11 0 2.00091e-08
82 3 0.001 0.00888097 -0.00492237 -0.00293658 -3.2494e-12 1.74866e-11 2.45759e-11 0 1.99307e-08
83 3 0.001 0.00888632 -0.00481391 -0.00231522 -1.2874e-11 4.415e-12 2.77674e-11 0 1.98142e-08
84 3 0.001 0.00889258 -0.00468648 -0.00169748 -5.59063e-11 1.38509e-11 2.55192e-11 0 1.96634e-08
85 3 0.001 0.0088997 -0.00454058 -0.00108383 -4.1017e-12 -8.4862e-12 3.05348e-11 0 1.94819e-08
86 3 0.001 0.00890765 -0.00437679 -0.000474715 -3.51926e-11 1.22722e-11 2.53652e-11 0 1.92735e-08
87 3 0.001 0.00891638 -0.0041958 0.000129519 -2.38102e-11 -1.03455e-11 3.18441e-11 0 1.90429e-08
88 3 0.001 0.00892585 -0.00399836 0.000728587 -6.11214e-12 3.33473e-12 2.61452e-11 0 1.87952e-08
89 3 0.001 0.008936 -0.00378532 0.00132229 -7.60204e-11 8.51813e-12 2.43454e-11 0 1.85353e-08
90 3 0.001 0.00894679 -0.00355757 0.00191052 3.54414e-11 -2.77704e-11 3.83531e-11 0 1.82687e-08
91 3 0.001 0.00895814 -0.00331606 0.00249324 -4.53114e-11 9.37699e-12 2.54763e-11 0 1.80005e-08
92 3 0.001 0.00897001 -0.00306181 0.00307052 -2.21315e-11 -1.11833e-11 3.22663e-11 0 1.7736e-08
93 3 0.001 0.00898233 -0.00279585 0.00364252 -5.99767e-11 -1.44021e-11 3.40411e-11 0 1.748e-08
94 3 0.001 0.00899505 -0.00251926 0.00420946 4.66795e-11 2.64713e-12 2.13049e-11 0 1.72371e-08
95 3 0.001 0.0090081 -0.00223314 0.00477166 -6.35857e-11 -2.32465e-11 3.86618e-11 0 1.70113e-08
96 3 0.001 0.00902142 -0.00193862 0.00532952 -3.30239e-11 -1.1922e-11 3.34344e-11 0 1.6806e-08
97 3 0.001 0.00903495 -0.00163682 0.00588348 3.50291e-11 -9.8332e-12 3.0044e-11 0 1.66241e-08
98 3 0.001 0.00904862 -0.00132889 0.00643408 -1.00029e-10 -2.32593e-11 4.00965e-11 0 1.6468e-08
99 3 0.001 0.00906235 -0.001016 0.00698187 7.26835e-11 1.48517e-11 1.20113e-11 0 1.634e-08
100 3 0.001 0.00907606 -0.000699296 0.00752748 -1.01866e-10 -6.78787e-11 6.37922e-11 0 1.62418e-08
101 3 0.001 0.00908962 -0.000379947 0.00807156 2.71265e-11 5.2922e-11 -8.47892e-12 0 1.61749e-08
102 3 0.001 0.00910292 -5.91272e-05 0.00861478 -1.9575e-11 -1.04567e-10 8.584e-11 0 1.61417e-08
103 3 0.001 0.00911593 0.000261892 0.0091579 -6.06845e-11 7.50934e-11 -2.08251e-11 0 1.61411e-08
104 3 0.001 0.00912832 0.000582096 0.0097015 -1.13001e-11 -9.81145e-11 8.07231e-11 0 1.61731e-08
105 3 0.001 0.00913975 0.000900292 0.0102463 1.97115e-11 4.92649e-11 -6.91283e-12 0 1.62409e-08
106 3 0.001 0.00914989 0.00121532 0.010793 -1.13102e-10 -7.55586e-11 6.63177e-11 0 1.63452e-08
107 3 0.001 0.00915833 0.001526 0.0113421 3.98787e-11 2.55095e-11 6.26219e-12 0 1.64873e-08
108 3 0.001 0.00916461 0.0018312 0.0118944 -6.95093e-11 -4.82921e-11 4.88875e-11 0 1.66689e-08
109 3 0.001 0.00916815 0.00212975 0.0124502 -6.62613e-11 -6.51359e-13 2.35131e-11 0 1.68921e-08
110 3 0.001 0.00916832 0.0024205 0.0130102 -1.2717e-11 -2.84142e-11 3.74912e-11 0 1.71587e-08
111 3 0.001 0.00916442 0.00270232 0.0135747 -6.55884e-11 -2.17763e-11 3.38173e-11 0 1.747e-08
112 3 0.001 0.00915563 0.00297407 0.014144 -8.08296e-11 -1.53356e-11 2.74064e-11 0 1.78261e-08
113 3 0.001 0.00914111 0.00323464 0.0147184 -4.87423e-11 -1.41635e-11 2.74666e-11 0 1.82246e-08
114 3 0.001 0.00911993 0.00348293 0.015298 -4.87632e-11 -4.39946e-11 4.04144e-11 0 1.86595e-08
115 3 0.001 0.00909115 0.00371788 0.0158827 -1.61194e-10 1.80685e-12 1.57671e-11 0 1.91204e-08
116 3 0.001 0.00905379 0.00393843 0.0164726 4.88978e-11 -3.27647e-11 4.39796e-11 0 1.95923e-08
117 3 0.001 0.00900691 0.0041436 0.0170672 -2.28983e-10 -1.84116e-11 1.27347e-11 0 2.00589e-08
118 3 0.001 0.0089496 0.00433244 0.0176663 4.27566e-11 -3.06957e-11 4.0964e-11 0 2.05133e-08
119 3 0.001 0.00888102 0.00450406 0.0182693 -1.68903e-10 -8.67319e-12 1.01717e-11 0 2.09521e-08
120 3 0.001 0.0088004 0.00465766 0.0188757 -1.82073e-11 -5.90259e-11 4.20297e-11 0 2.13655e-08
123 3 0.001 0.00848004 0.00500364 0.020707 -2.33868e-10 8.69676e-11 -2.46296e-11 0 2.2359e-08
122 3 0.001 0.00860045 0.00490802 0.0200954 4.65608e-11 -1.11213e-10 6.2362e-11 0 2.20779e-08
121 3 0.001 0.00870707 0.00479252 0.0194846 -1.64496e-10 3.99371e-11 -1.23248e-12 0 2.17439e-08
124 3 0.001 0.00834548 0.00507899 0.0213184 1.03102e-10 -1.37006e-10 7.44432e-11 0 2.25615e-08
125 3 0.001 0.00819648 0.00513381 0.0219287 -1.85227e-10 5.48616e-11 -1.36561e-11 0 2.26797e-08
126 3 0.001 0.00803286 0.00516792 0.0225368 -8.98683e-12 -3.4845e-11 3.96969e-11 0 2.27551e-08
127 3 0.001 0.00785458 0.00518123 0.0231415 -5.85606e-11 -1.48896e-11 2.46718e-11 0 2.283e-08
128 3 0.001 0.00766166 0.0051737 0.0237418 1.52319e-12 -7.65337e-11 4.2314e-11 0 2.29226e-08
130 3 0.001 0.00723263 0.00509608 0.0249249 9.27904e-11 -1.40138e-10 6.80579e-11 0 2.30806e-08
129 3 0.001 0.00745426 0.0051453 0.0243366 -1.48902e-10 1.05014e-10 -2.64674e-12 0 2.30198e-08
131 3 0.001 0.00699711 0.00502612 0.0255056 -1.15166e-10 8.31326e-11 1.0714e-11 0 2.3054e-08
132 3 0.001 0.00674816 0.00493564 0.0260779 1.63032e-11 -6.77812e-11 4.30668e-11 0 2.29288e-08
133 3 0.001 0.0064863 0.00482495 0.0266407 -1.76386e-11 2.13654e-11 4.56573e-11 0 2.27255e-08
136 3 0.001 0.00562965 0.00437691 0.0282658 8.23246e-11 -9.56671e-11 6.54441e-11 0 2.17379e-08
135 3 0.001 0.00592635 0.00454494 0.0277353 -5.05331e-11 4.7776e-11 3.77213e-11 0 2.21221e-08
134 3 0.001 0.00621214 0.00469452 0.0271934 -1.68941e-11 -3.08023e-11 3.40112e-11 0 2.24542e-08
137 3 0.001 0.00532279 0.00419123 0.0287846 -1.03707e-10 1.0106e-10 2.49591e-11 0 2.13111e-08
138 3 0.001 0.00500654 0.00398879 0.0292913 9.43006e-11 -9.97978e-11 6.60358e-11 0 2.08522e-08
139 3 0.001 0.00468168 0.00377056 0.029786 -1.0283e-10 8.43932e-11 1.76151e-11 0 2.0372e-08
142 3 0.001 0.00366329 0.00303164 0.0311987 3.61179e-11 -1.37615e-11 6.26766e-11 0 1.89092e-08
141 3 0.001 0.00400929 0.00329089 0.0307393 -4.20774e-11 1.30311e-11 2.37751e-11 0 1.93903e-08
140 3 0.001 0.00434901 0.00353757 0.0302685 8.57734e-11 -5.4585e-11 8.15073e-11 0 1.98812e-08
143 3 0.001 0.00331172 0.00276095 0.0316471 -4.41371e-11 3.29234e-11 2.38329e-11 0 1.84471e-08
144 3 0.001 0.00295528 0.00247998 0.0320853 3.67884e-11 -1.91957e-11 5.24376e-11 0 1.80123e-08
145 3 0.001 0.00259464 0.00218988 0.0325141 8.07284e-12 -1.96772e-11 2.87789e-11 0 1.76124e-08
148 3 0.001 0.00149357 0.00127648 0.0337533 -9.83131e-11 9.01151e-11 -1.92115e-12 0 1.66803e-08
149 3 0.001 0.00112202 0.000961467 0.0341544 7.21106e-11 -5.52522e-11 3.83863e-11 0 1.62251e-08
146 3 0.001 0.00223042 0.00189183 0.0329343 -4.01622e-11 5.32588e-11 3.495e-11 0 1.72536e-08
147 3 0.001 0.00186321 0.00158698 0.033347 8.10868e-11 -8.23414e-11 3.81772e-11 0 1.69414e-08
150 3 0.001 0.000749041 0.000643069 0.0345516 -7.1548e-13 3.96659e-12 1.37908e-11 0 1.1948e-08
151 3 0.001 0.00037475 0.000322095 0.0349465 -3.28248e-11 1.76934e-11 -9.95033e-12 0 7.98771e-09
2 2 0.001 0 0 0.03534 -0.00600662 -0.0014845 0.0155667 0 3.98332e-09
