ITEM: TIMESTEP
6400000
ITEM: NUMBER OF ATOMS
151
ITEM: BOX BOUNDS ff ff ff
-1.0000000000000000e-02 1.0000000000000000e-02
-6.0000000000000001e-03 6.0000000000000001e-03
-5.2499999999999998e-02 5.2499999999999998e-02
ITEM: ATOMS id type radius x y z fx fy fz c_bendingE c_stretchingE
1 1 0.001 0 0 -0.0475 -0.00407723 0 -0.0154369 0 3.03195e-09
3 3 0.001 0.000496252 0 -0.0471088 -6.89457e-10 0 4.86675e-10 0 6.10456e-09
4 3 0.001 0.000990143 0 -0.0467146 2.58546e-09 0 -3.61159e-09 0 9.68041e-09
5 3 0.001 0.00148115 0 -0.0463179 -6.4085e-09 0 7.5969e-09 0 1.35298e-08
6 3 0.001 0.00196856 0 -0.0459168 7.32023e-09 0 -8.41311e-09 0 1.39616e-08
7 3 0.001 0.00245117 0 -0.04551 -3.32817e-09 0 4.75035e-09 0 1.42238e-08
8 3 0.001 0.00292774 0 -0.0450962 4.4758e-10 0 -3.93969e-10 0 1.45385e-08
9 3 0.001 0.00339696 0 -0.0446741 6.8601e-10 0 -1.42836e-09 0 1.49019e-08
10 3 0.001 0.00385752 0 -0.0442427 -4.11662e-09 0 3.36786e-09 0 1.53093e-08
11 3 0.001 0.00430805 0 -0.0438008 8.89662e-09 0 -8.6793e-09 0 1.57551e-08
12 3 0.001 0.00474718 0 -0.0433476 -1.2389e-08 0 1.26138e-08 0 1.62327e-08
13 3 0.001 0.00517348 0 -0.0428824 1.29263e-08 0 -1.09946e-08 0 1.67342e-08
14 3 0.001 0.0055855 0 -0.0424045 -1.05712e-08 0 8.54589e-09 0 1.72511e-08
15 3 0.001 0.00598182 0 -0.0419136 6.5285e-09 0 -6.00017e-09 0 1.77736e-08
16 3 0.001 0.00636098 0 -0.0414093 -2.98275e-09 0 1.8903e-09 0 1.82913e-08
17 3 0.001 0.00672157 0 -0.0408917 2.0356e-09 0 -7.87962e-10 0 1.87934e-08
18 3 0.001 0.0070622 0 -0.0403607 -1.91394e-09 0 1.65003e-09 0 1.92685e-08
19 3 0.001 0.00738157 0 -0.0398168 5.42585e-10 0 -4.46037e-10 0 1.97056e-08
20 3 0.001 0.00767841 0 -0.0392602 -6.01181e-10 0 1.27247e-10 0 2.0094e-08
21 3 0.001 0.00795159 0 -0.0386917 6.08892e-09 0 -2.7538e-09 0 2.04238e-08
22 3 0.001 0.00820008 0 -0.038112 -1.55117e-08 0 5.87003e-09 0 2.06864e-08
23 3 0.001 0.00842301 0 -0.037522 2.12601e-08 0 -7.45271e-09 0 2.08748e-08
24 3 0.001 0.00861963 0 -0.0369227 -1.96112e-08 0 6.29404e-09 0 2.09838e-08
25 3 0.001 0.00878938 0 -0.0363153 1.33264e-08 0 -3.20042e-09 0 2.10105e-08
26 3 0.001 0.0089319 0 -0.0357009 -6.5403e-09 0 1.49398e-09 0 2.09541e-08
27 3 0.001 0.00904698 0 -0.0350807 1.99153e-09 0 -8.22794e-10 0 2.08029e-08
28 3 0.001 0.00913465 0 -0.0344562 -2.09349e-09 0 -1.07114e-10 0 2.05344e-08
29 3 0.001 0.00919507 0 -0.0338283 5.10422e-09 0 -1.93484e-10 0 2.01884e-08
30 3 0.001 0.00922856 0 -0.0331984 -4.99987e-09 0 7.07552e-10 0 1.98606e-08
31 3 0.001 0.0092355 0 -0.0325677 6.73919e-10 0 1.24864e-10 0 1.96166e-08
32 3 0.001 0.00921628 0 -0.0319372 2.96102e-09 0 -1.49851e-10 0 1.94697e-08
33 3 0.001 0.00917132 0 -0.031308 -5.38028e-09 0 -7.88429e-10 0 1.93804e-08
34 3 0.001 0.00910104 0 -0.0306811 9.01788e-09 0 1.28849e-09 0 1.92729e-08
35 3 0.001 0.00900594 0 -0.0300575 -1.13236e-08 0 -1.79932e-09 0 1.9076e-08
36 3 0.001 0.00888662 0 -0.0294381 9.616e-09 0 2.19259e-09 0 1.87964e-08
37 3 0.001 0.00874381 0 -0.0288236 -5.30474e-09 0 -1.34221e-09 0 1.84724e-08
39 3 0.001 0.00839135 0 -0.0276122 7.40382e-09 0 2.49885e-09 0 1.77242e-08
38 3 0.001 0.00857839 0 -0.0282148 -1.08655e-09 0 -5.29084e-10 0 1.81123e-08
42 3 0.001 0.00771174 0 -0.0258463 -1.71732e-08 0 -7.54845e-09 0 1.6477e-08
41 3 0.001 0.00795681 0 -0.0264277 1.67539e-08 0 7.0129e-09 0 1.6898e-08
40 3 0.001 0.00818376 0 -0.0270164 -1.24053e-08 0 -4.62603e-09 0 1.73166e-08
44 3 0.001 0.00717252 0 -0.0247053 -3.5792e-09 0 -1.77138e-09 0 1.56586e-08
43 3 0.001 0.00744986 0 -0.0252721 1.102e-08 0 4.89487e-09 0 1.60613e-08
45 3 0.001 0.00688112 0 -0.0241455 2.30922e-09 0 1.38189e-09 0 1.52756e-08
47 3 0.001 0.00626176 0 -0.0230458 5.40611e-09 0 3.08283e-09 0 1.45925e-08
46 3 0.001 0.00657705 0 -0.0235925 -5.58917e-09 0 -2.91089e-09 0 1.49184e-08
49 3 0.001 0.00560321 0 -0.0219689 -5.71505e-09 0 -3.78093e-09 0 1.40516e-08
48 3 0.001 0.00593667 0 -0.0225048 3.73847e-10 0 -1.71571e-10 0 1.43022e-08
50 3 0.001 0.00526283 0 -0.0214374 6.54578e-09 0 4.55825e-09 0 1.38437e-08
52 3 0.001 0.004567 0 -0.020384 -2.56445e-10 0 -3.75823e-10 0 1.35654e-08
53 3 0.001 0.0042144 0 -0.0198605 4.2803e-09 0 2.26499e-09 0 1.3498e-08
51 3 0.001 0.00491695 0 -0.0209094 -4.16074e-09 0 -2.28164e-09 0 1.3681e-08
56 3 0.001 0.00315485 0 -0.018291 3.85601e-09 0 2.87098e-09 0 1.35906e-08
55 3 0.001 0.00350691 0 -0.0188149 -1.24213e-09 0 -3.93651e-10 0 1.35107e-08
54 3 0.001 0.00386056 0 -0.0193378 -3.14243e-09 0 -2.19261e-09 0 1.34798e-08
58 3 0.001 0.00246121 0 -0.0172362 6.74851e-09 0 3.80231e-09 0 1.3893e-08
57 3 0.001 0.00280581 0 -0.0177651 -4.56514e-09 0 -3.19945e-09 0 1.37185e-08
59 3 0.001 0.00212248 0 -0.0167036 -8.31648e-09 0 -5.311e-09 0 1.41122e-08
61 3 0.001 0.00146833 0 -0.0156241 2.35469e-09 0 1.41293e-09 0 1.46732e-08
60 3 0.001 0.00179104 0 -0.0161665 5.07319e-09 0 3.54695e-09 0 1.43733e-08
63 3 0.001 0.000854857 0 -0.0145211 1.11758e-08 0 5.59909e-09 0 1.5372e-08
62 3 0.001 0.0011558 0 -0.0150758 -8.78139e-09 0 -5.01541e-09 0 1.50076e-08
64 3 0.001 0.00056694 0 -0.0139595 -9.83134e-09 0 -4.97e-09 0 1.57607e-08
66 3 0.001 3.57743e-05 0 -0.0128148 -5.89597e-09 0 -2.51544e-09 0 1.65852e-08
65 3 0.001 0.000293453 0 -0.0133908 7.71425e-09 0 3.95435e-09 0 1.61674e-08
67 3 0.001 -0.000204753 0 -0.0122315 6.83603e-09 0 2.40744e-09 0 1.70064e-08
68 3 0.001 -0.000426835 0 -0.0116409 -1.03567e-08 0 -3.69772e-09 0 1.74229e-08
69 3 0.001 -0.00062924 0 -0.0110433 1.12729e-08 0 3.6818e-09 0 1.78264e-08
72 3 0.001 -0.00110733 0 -0.00921296 8.55467e-09 0 1.51223e-09 0 1.88731e-08
71 3 0.001 -0.000970499 0 -0.00982879 -3.38638e-09 0 -7.5844e-10 0 1.85597e-08
70 3 0.001 -0.000810816 0 -0.0104391 -5.25225e-09 0 -1.57174e-09 0 1.82081e-08
73 3 0.001 -0.00122048 0 -0.00859236 -7.24301e-09 0 -1.17978e-09 0 1.91409e-08
74 3 0.001 -0.00130924 0 -0.00796782 3.55402e-09 0 7.67526e-10 0 1.93564e-08
75 3 0.001 -0.00137305 0 -0.00734026 -2.70509e-09 0 -1.16204e-10 0 1.95145e-08
76 3 0.001 -0.0014115 0 -0.00671064 5.91619e-09 0 -1.32764e-10 0 1.96109e-08
77 3 0.001 -0.00142434 0 -0.00607998 -6.38682e-09 0 -3.38678e-10 0 1.96434e-08
78 3 0.001 -0.0014115 0 -0.00544933 1.7332e-09 0 3.14263e-10 0 1.9611e-08
79 3 0.001 -0.00137306 0 -0.00481971 1.23341e-09 0 3.09523e-10 0 1.95145e-08
80 3 0.001 -0.00130925 0 -0.00419214 2.23296e-09 0 -3.76354e-10 0 1.93565e-08
81 3 0.001 -0.0012205 0 -0.0035676 -4.09634e-09 0 4.2983e-10 0 1.9141e-08
82 3 0.001 -0.00110735 0 -0.00294701 4.13717e-10 0 -3.19138e-10 0 1.88732e-08
83 3 0.001 -0.000970521 0 -0.00233118 4.08121e-09 0 -1.09485e-09 0 1.85598e-08
84 3 0.001 -0.000810841 0 -0.00172085 -6.3161e-09 0 2.16415e-09 0 1.82082e-08
85 3 0.001 -0.000629268 0 -0.00111665 8.52654e-09 0 -2.40663e-09 0 1.78265e-08
86 3 0.001 -0.000426865 0 -0.000519072 -6.62565e-09 0 2.41657e-09 0 1.74231e-08
87 3 0.001 -0.000204786 0 7.15034e-05 -2.10929e-10 0 -2.47948e-10 0 1.70066e-08
88 3 0.001 3.5739e-05 0 0.000654841 3.56409e-09 0 -2.09251e-09 0 1.65854e-08
89 3 0.001 0.000293416 0 0.00123084 -1.05631e-12 0 1.21106e-10 0 1.61676e-08
90 3 0.001 0.000566901 0 0.00179954 -2.32579e-09 0 1.89054e-09 0 1.57609e-08
91 3 0.001 0.000854816 0 0.0023611 -6.93242e-10 0 9.07156e-10 0 1.53722e-08
92 3 0.001 0.00115575 0 0.00291582 5.54597e-09 0 -3.59507e-09 0 1.50078e-08
93 3 0.001 0.00146829 0 0.00346412 -7.07644e-09 0 3.35175e-09 0 1.46733e-08
94 3 0.001 0.001791 0 0.00400653 3.05974e-09 0 -1.71872e-09 0 1.43735e-08
95 3 0.001 0.00212243 0 0.00454367 5.71563e-09 0 -3.08114e-09 0 1.41123e-08
96 3 0.001 0.00246117 0 0.00507626 -1.11603e-08 0 7.65473e-09 0 1.38932e-08
97 3 0.001 0.00280577 0 0.0056051 1.09171e-08 0 -7.2226e-09 0 1.37186e-08
98 3 0.001 0.00315481 0 0.00613103 -1.09932e-08 0 6.83219e-09 0 1.35907e-08
99 3 0.001 0.00350686 0 0.00665495 1.43483e-08 0 -9.83184e-09 0 1.35109e-08
100 3 0.001 0.00386052 0 0.0071778 -1.56136e-08 0 1.08077e-08 0 1.34799e-08
101 3 0.001 0.00421435 0 0.00770053 8.85215e-09 0 -5.83524e-09 0 1.34982e-08
102 3 0.001 0.00456696 0 0.00822408 1.65726e-09 0 -9.09882e-10 0 1.35655e-08
103 3 0.001 0.00491691 0 0.00874941 -7.00506e-09 0 4.6013e-09 0 1.36812e-08
104 3 0.001 0.00526279 0 0.00927741 9.80064e-09 0 -6.4601e-09 0 1.38439e-08
105 3 0.001 0.00560317 0 0.00980895 -1.64238e-08 0 1.02103e-08 0 1.40518e-08
106 3 0.001 0.00593663 0 0.0103448 2.32479e-08 0 -1.42268e-08 0 1.43024e-08
107 3 0.001 0.00626172 0 0.0108858 -2.28655e-08 0 1.3743e-08 0 1.45926e-08
108 3 0.001 0.00657702 0 0.0114326 1.46506e-08 0 -8.20517e-09 0 1.49186e-08
109 3 0.001 0.00688108 0 0.0119856 -2.37418e-09 0 1.4737e-09 0 1.52758e-08
110 3 0.001 0.00717249 0 0.0125453 -5.89984e-09 0 2.8061e-09 0 1.56588e-08
111 3 0.001 0.00744983 0 0.0131122 5.61292e-09 0 -3.07559e-09 0 1.60616e-08
112 3 0.001 0.00771171 0 0.0136863 -2.50489e-09 0 1.07254e-09 0 1.64772e-08
113 3 0.001 0.00795679 0 0.0142677 1.87559e-09 0 -3.8813e-10 0 1.68983e-08
114 3 0.001 0.00818374 0 0.0148565 3.86718e-10 0 1.73959e-10 0 1.73168e-08
115 3 0.001 0.00839133 0 0.0154523 -7.7994e-09 0 2.35058e-09 0 1.77245e-08
116 3 0.001 0.00857838 0 0.0160548 1.38107e-08 0 -4.29896e-09 0 1.81126e-08
117 3 0.001 0.0087438 0 0.0166636 -1.49398e-08 0 3.61554e-09 0 1.84728e-08
118 3 0.001 0.00888661 0 0.0172781 1.41718e-08 0 -2.87381e-09 0 1.87968e-08
119 3 0.001 0.00900593 0 0.0178975 -1.07012e-08 0 2.13767e-09 0 1.90763e-08
120 3 0.001 0.00910103 0 0.0185211 6.02259e-09 0 -8.17712e-10 0 1.92733e-08
121 3 0.001 0.00917132 0 0.019148 -6.47184e-09 0 4.42114e-10 0 1.93808e-08
122 3 0.001 0.00921629 0 0.0197772 1.09102e-08 0 -6.11624e-10 0 1.94701e-08
123 3 0.001 0.00923551 0 0.0204077 -1.47091e-08 0 1.04875e-10 0 1.96171e-08
124 3 0.001 0.00922857 0 0.0210385 1.8489e-08 0 7.46679e-10 0 1.9861e-08
125 3 0.001 0.00919508 0 0.0216683 -2.26188e-08 0 -1.82066e-09 0 2.01889e-08
126 3 0.001 0.00913466 0 0.0222962 2.28687e-08 0 2.65382e-09 0 2.05349e-08
127 3 0.001 0.009047 0 0.0229208 -1.7624e-08 0 -2.62931e-09 0 2.08035e-08
128 3 0.001 0.00893192 0 0.0235409 9.33357e-09 0 1.84954e-09 0 2.09546e-08
129 3 0.001 0.0087894 0 0.0241553 -1.14016e-09 0 -1.88227e-10 0 2.10111e-08
130 3 0.001 0.00861965 0 0.0247627 -4.89316e-09 0 -1.96357e-09 0 2.09845e-08
131 3 0.001 0.00842303 0 0.025362 8.4865e-09 0 2.97892e-09 0 2.08755e-08
132 3 0.001 0.00820011 0 0.025952 -8.48284e-09 0 -3.01809e-09 0 2.06871e-08
133 3 0.001 0.00795161 0 0.0265317 5.55257e-09 0 2.71005e-09 0 2.04245e-08
134 3 0.001 0.00767843 0 0.0271002 -5.71284e-09 0 -2.97049e-09 0 2.00947e-08
135 3 0.001 0.00738159 0 0.0276568 9.44095e-09 0 5.01474e-09 0 1.97063e-08
137 3 0.001 0.0067216 0 0.0287317 1.21568e-08 0 8.44381e-09 0 1.87941e-08
138 3 0.001 0.00636101 0 0.0292494 -1.04618e-08 0 -7.02202e-09 0 1.8292e-08
136 3 0.001 0.00706223 0 0.0282008 -1.19517e-08 0 -7.7151e-09 0 1.92692e-08
141 3 0.001 0.0051735 0 0.0307224 -5.41107e-09 0 -5.47753e-09 0 1.67349e-08
139 3 0.001 0.00598184 0 0.0297536 5.15534e-09 0 3.99853e-09 0 1.77743e-08
140 3 0.001 0.00558553 0 0.0302445 1.63927e-09 0 1.11473e-09 0 1.72517e-08
144 3 0.001 0.00385753 0 0.0320827 9.97914e-09 0 1.08314e-08 0 1.53099e-08
145 3 0.001 0.00339697 0 0.0325142 -8.27738e-09 0 -9.28277e-09 0 1.49024e-08
142 3 0.001 0.0047472 0 0.0311876 6.88148e-09 0 6.68e-09 0 1.62333e-08
143 3 0.001 0.00430807 0 0.0316408 -8.69179e-09 0 -8.15088e-09 0 1.57557e-08
148 3 0.001 0.00196857 0 0.0337568 -8.5443e-09 0 -9.50799e-09 0 1.39622e-08
149 3 0.001 0.00148116 0 0.0341579 1.93374e-09 0 2.71088e-09 0 1.35304e-08
146 3 0.001 0.00292775 0 0.0329362 1.4911e-09 0 7.23916e-10 0 1.45391e-08
147 3 0.001 0.00245119 0 0.0333501 6.95324e-09 0 8.3677e-09 0 1.42244e-08
151 3 0.001 0.000496255 0 0.0349488 -3.01614e-09 0 -4.65081e-09 0 6.10491e-09
2 2 0.001 0 0 0.03534 -0.0040774 0 0.0154372 0 3.03213e-09
150 3 0.001 0.000990148 0 0.0345546 3.68656e-09 0 4.28279e-09 0 9.68084e-09
