ITEM: TIMESTEP
3900000
ITEM: NUMBER OF ATOMS
151
ITEM: BOX BOUNDS ff ff ff
-1.0000000000000000e-02 1.0000000000000000e-02
-6.0000000000000001e-03 6.0000000000000001e-03
-5.2499999999999998e-02 5.2499999999999998e-02
ITEM: ATOMS id type radius x y z fx fy fz c_bendingE c_stretchingE
3 3 0.001 0.000415876 0.000231995 -0.0470856 -7.21405e-05 6.02989e-05 3.64759e-05 0 1.25441e-08
1 1 0.001 0 0 -0.0475 -0.00655096 -0.00367202 -0.0165398 0 6.26239e-09
4 3 0.001 0.000830895 0.000463513 -0.04667 0.000100328 -0.00010256 -4.47328e-05 0 1.73165e-08
5 3 0.001 0.00124378 0.000693831 -0.0462526 -4.26538e-05 4.31816e-05 1.94012e-05 0 2.24369e-08
6 3 0.001 0.00165407 0.000922703 -0.045832 -3.50466e-05 3.90366e-05 1.50355e-05 0 2.28944e-08
7 3 0.001 0.00206092 0.00114966 -0.0454071 5.96395e-05 -4.64089e-05 -3.08173e-05 0 2.30952e-08
8 3 0.001 0.00246347 0.00137421 -0.0449768 -3.93978e-05 1.02267e-05 2.9922e-05 0 2.33371e-08
9 3 0.001 0.00286084 0.00159587 -0.0445402 2.86725e-05 2.60131e-06 -2.92153e-05 0 2.36152e-08
10 3 0.001 0.00325212 0.00181414 -0.0440966 -3.5434e-05 1.43244e-05 2.28841e-05 0 2.39209e-08
11 3 0.001 0.00363644 0.00202852 -0.043645 -1.61525e-06 1.0274e-06 1.08694e-06 0 2.42455e-08
12 3 0.001 0.00401291 0.00223852 -0.0431849 4.41409e-05 -4.37548e-06 -3.05667e-05 0 2.45814e-08
13 3 0.001 0.00438063 0.00244363 -0.0427157 -3.3873e-05 -2.92572e-05 4.02008e-05 0 2.49239e-08
14 3 0.001 0.00473873 0.00264337 -0.0422368 2.24441e-05 1.36116e-05 -2.32257e-05 0 2.52705e-08
15 3 0.001 0.00508634 0.00283725 -0.0417479 -1.06343e-05 2.29409e-06 4.68136e-06 0 2.56133e-08
16 3 0.001 0.00542262 0.00302481 -0.0412487 -2.39839e-05 2.32214e-05 5.39197e-06 0 2.59411e-08
17 3 0.001 0.00574677 0.00320561 -0.0407392 4.02634e-05 -2.7154e-05 -1.50502e-05 0 2.62429e-08
18 3 0.001 0.00605803 0.0033792 -0.0402192 -1.47648e-05 1.38567e-05 6.36314e-06 0 2.65097e-08
19 3 0.001 0.00635568 0.00354521 -0.0396889 -2.1826e-05 -2.88868e-06 1.35497e-05 0 2.67382e-08
20 3 0.001 0.00663909 0.00370327 -0.0391485 1.52962e-05 -6.69742e-07 -7.7769e-06 0 2.69254e-08
21 3 0.001 0.00690769 0.00385305 -0.0385982 1.43394e-05 2.11886e-06 -7.3814e-06 0 2.70658e-08
22 3 0.001 0.00716098 0.0039943 -0.0380386 -2.63672e-05 2.93756e-06 9.0892e-06 0 2.71566e-08
23 3 0.001 0.00739857 0.00412678 -0.03747 3.82062e-05 -2.93984e-05 -1.04865e-05 0 2.71951e-08
24 3 0.001 0.00762018 0.00425034 -0.0368929 -1.8652e-05 1.08347e-05 5.37199e-06 0 2.71752e-08
25 3 0.001 0.00782559 0.00436486 -0.0363081 -3.55472e-05 5.90649e-05 3.34622e-06 0 2.70947e-08
26 3 0.001 0.00801475 0.00447032 -0.0357161 5.55317e-05 -8.71503e-05 1.57105e-07 0 2.69592e-08
27 3 0.001 0.00818768 0.00456671 -0.0351177 -4.32954e-05 4.94774e-05 3.43806e-06 0 2.67789e-08
28 3 0.001 0.00834454 0.00465414 -0.0345134 1.38715e-05 3.05671e-05 -1.07158e-05 0 2.65617e-08
29 3 0.001 0.00848559 0.00473275 -0.0339041 2.44553e-05 -7.49284e-05 1.29217e-06 0 2.63085e-08
30 3 0.001 0.00861122 0.00480275 -0.0332903 -3.49095e-05 5.29471e-05 1.36571e-06 0 2.6018e-08
31 3 0.001 0.00872192 0.00486441 -0.0326728 3.39992e-05 -3.36977e-05 1.32005e-06 0 2.56931e-08
32 3 0.001 0.00881828 0.00491808 -0.0320521 -3.28995e-05 -7.65973e-06 8.41713e-06 0 2.53468e-08
33 3 0.001 0.00890101 0.00496413 -0.0314288 2.17587e-05 3.49134e-05 -5.59695e-06 0 2.49972e-08
34 3 0.001 0.00897088 0.00500302 -0.0308034 -1.50522e-05 2.92853e-05 -3.69766e-06 0 2.4656e-08
35 3 0.001 0.00902879 0.00503523 -0.0301764 7.70567e-06 -7.06572e-05 -1.55132e-06 0 2.43198e-08
36 3 0.001 0.00907568 0.00506129 -0.0295482 2.80597e-06 3.9104e-05 -1.47282e-06 0 2.39756e-08
37 3 0.001 0.00911256 0.00508176 -0.028919 -2.18864e-05 1.36134e-05 5.52997e-06 0 2.3628e-08
38 3 0.001 0.0091405 0.00509722 -0.0282893 5.24528e-05 -7.14564e-05 3.81411e-06 0 2.33041e-08
39 3 0.001 0.00916053 0.00510823 -0.0276591 -6.84002e-05 8.73539e-05 -2.23336e-07 0 2.3032e-08
40 3 0.001 0.00917367 0.00511536 -0.0270287 4.18085e-05 -6.5112e-05 -5.09493e-06 0 2.2824e-08
41 3 0.001 0.00918091 0.00511912 -0.0263982 1.79654e-05 3.11804e-05 -3.93595e-06 0 2.2672e-08
42 3 0.001 0.00918312 0.00512002 -0.0257676 -1.39983e-05 -3.02852e-05 1.02549e-06 0 2.25599e-08
43 3 0.001 0.00918114 0.0051185 -0.025137 -5.75143e-05 9.33157e-05 4.52033e-06 0 2.24774e-08
44 3 0.001 0.00917568 0.00511496 -0.0245064 4.75793e-05 -9.72168e-05 3.22639e-06 0 2.24244e-08
45 3 0.001 0.0091674 0.00510975 -0.0238759 2.0498e-05 1.25817e-05 -7.51056e-07 0 2.24039e-08
46 3 0.001 0.00915685 0.00510318 -0.0232454 -3.15325e-05 5.66259e-05 -4.32654e-06 0 2.24113e-08
47 3 0.001 0.00914449 0.00509552 -0.0226149 1.09824e-05 -7.00994e-05 -3.51565e-06 0 2.24319e-08
48 3 0.001 0.00913072 0.005087 -0.0219845 2.26165e-05 1.83351e-06 2.28759e-06 0 2.24501e-08
49 3 0.001 0.00911586 0.00507779 -0.0213542 -7.2446e-05 0.00010075 3.86056e-06 0 2.24612e-08
50 3 0.001 0.00910016 0.00506807 -0.0207238 0.000117279 -0.000170467 2.13621e-06 0 2.24718e-08
51 3 0.001 0.00908384 0.00505794 -0.0200935 -0.000142069 0.000217731 -2.30732e-06 0 2.24886e-08
52 3 0.001 0.00906706 0.00504754 -0.0194632 0.00015031 -0.000280471 -4.03187e-06 0 2.25095e-08
53 3 0.001 0.00904997 0.00503692 -0.0188329 -0.000212791 0.000432509 5.83166e-07 0 2.25253e-08
54 3 0.001 0.00903267 0.00502619 -0.0182026 0.000382915 -0.000704529 6.57975e-07 0 2.253e-08
55 3 0.001 0.00901527 0.00501536 -0.0175724 -0.000494977 0.000861886 3.73842e-06 0 2.25269e-08
56 3 0.001 0.00899786 0.00500456 -0.0169421 0.000394329 -0.000697899 -8.6102e-07 0 2.25245e-08
57 3 0.001 0.00898053 0.00499378 -0.0163118 -0.000211294 0.000413221 -8.50432e-07 0 2.25279e-08
58 3 0.001 0.00896337 0.00498311 -0.0156815 8.37444e-05 -0.000231781 -3.51785e-06 0 2.25344e-08
59 3 0.001 0.00894646 0.00497261 -0.0150512 -5.10462e-05 0.000178175 1.88015e-06 0 2.25379e-08
60 3 0.001 0.00892989 0.00496232 -0.0144209 7.55017e-05 -0.000166867 1.14114e-06 0 2.25364e-08
61 3 0.001 0.00891375 0.00495229 -0.0137906 -9.24091e-05 0.000151196 1.40215e-06 0 2.25337e-08
62 3 0.001 0.00889812 0.00494258 -0.0131603 9.76932e-05 -0.00013114 -6.04314e-08 0 2.25343e-08
63 3 0.001 0.00888308 0.00493323 -0.0125299 -7.38795e-05 7.43057e-05 -2.28044e-06 0 2.25391e-08
64 3 0.001 0.00886871 0.00492431 -0.0118995 3.1473e-05 -2.50834e-05 -7.96382e-07 0 2.2545e-08
65 3 0.001 0.00885509 0.00491584 -0.0112691 -2.25583e-05 1.08791e-05 1.32538e-07 0 2.25482e-08
66 3 0.001 0.00884227 0.00490787 -0.0106387 5.09971e-05 -9.40619e-06 2.47607e-06 0 2.25476e-08
67 3 0.001 0.00883034 0.00490046 -0.0100083 -4.48891e-05 3.19854e-06 3.15886e-07 0 2.2546e-08
68 3 0.001 0.00881934 0.00489363 -0.00937778 -1.85725e-05 2.45648e-05 -6.42923e-07 0 2.25475e-08
69 3 0.001 0.00880934 0.00488742 -0.00874729 4.36016e-05 -2.55844e-05 -1.36856e-06 0 2.25529e-08
70 3 0.001 0.00880039 0.00488186 -0.00811677 -1.21285e-05 -1.68279e-05 -1.30044e-06 0 2.25587e-08
71 3 0.001 0.00879254 0.00487697 -0.00748623 4.0883e-08 4.63798e-05 1.24918e-06 0 2.25607e-08
72 3 0.001 0.00878582 0.0048728 -0.00685568 1.03269e-06 -4.87798e-05 1.55475e-06 0 2.25586e-08
73 3 0.001 0.00878027 0.00486935 -0.00622511 -2.38704e-06 1.44272e-05 8.31952e-07 0 2.25566e-08
74 3 0.001 0.00877591 0.00486664 -0.00559452 -1.00906e-05 4.36279e-05 -1.07705e-06 0 2.25585e-08
75 3 0.001 0.00877278 0.0048647 -0.00496393 9.08178e-06 -6.87793e-05 -1.84667e-06 0 2.25635e-08
76 3 0.001 0.00877088 0.00486352 -0.00433333 -1.53763e-06 5.2252e-05 -2.42914e-07 0 2.25672e-08
77 3 0.001 0.00877023 0.00486312 -0.00370272 7.87989e-08 -1.71148e-05 1.2896e-06 0 2.25665e-08
78 3 0.001 0.00877083 0.00486349 -0.00307212 -2.6613e-06 -1.15062e-05 1.30997e-06 0 2.25634e-08
79 3 0.001 0.00877267 0.00486464 -0.00244152 2.07962e-05 2.78539e-05 -3.65606e-07 0 2.25621e-08
80 3 0.001 0.00877576 0.00486656 -0.00181092 -4.04723e-05 -2.3939e-05 -8.69288e-07 0 2.25639e-08
81 3 0.001 0.00878007 0.00486923 -0.00118034 5.62393e-05 -3.59989e-05 -9.34715e-07 0 2.25662e-08
82 3 0.001 0.00878557 0.00487265 -0.000549764 -6.26891e-05 9.6466e-05 4.69933e-07 0 2.2566e-08
83 3 0.001 0.00879225 0.0048768 8.07919e-05 4.72521e-05 -8.36864e-05 9.93151e-07 0 2.25634e-08
84 3 0.001 0.00880006 0.00488166 0.00071133 -2.49887e-05 2.68555e-05 3.69407e-07 0 2.2561e-08
85 3 0.001 0.00880897 0.00488719 0.00134185 -1.09504e-05 4.86266e-05 -1.00512e-06 0 2.25607e-08
86 3 0.001 0.00881893 0.00489339 0.00197234 5.51269e-05 -0.000101866 -5.19009e-07 0 2.25614e-08
87 3 0.001 0.00882989 0.0049002 0.00260282 -5.98839e-05 8.83403e-05 4.60346e-07 0 2.25607e-08
88 3 0.001 0.0088418 0.00490759 0.00323327 3.86966e-06 -4.80432e-05 1.46622e-06 0 2.25577e-08
89 3 0.001 0.00885458 0.00491554 0.00386369 6.33644e-05 4.69211e-06 -1.17944e-06 0 2.2555e-08
90 3 0.001 0.00886819 0.00492399 0.0044941 -5.1636e-05 4.09441e-05 -3.67158e-07 0 2.25548e-08
91 3 0.001 0.00888254 0.00493291 0.00512447 -4.28514e-06 -7.99902e-05 2.24959e-07 0 2.25565e-08
92 3 0.001 0.00889756 0.00494224 0.00575483 6.22834e-06 0.000112057 -1.8114e-06 0 2.25569e-08
93 3 0.001 0.00891318 0.00495195 0.00638517 1.1596e-06 -0.000107759 2.9302e-06 0 2.25543e-08
94 3 0.001 0.00892931 0.00496197 0.00701549 1.26246e-05 8.94523e-05 -4.77173e-07 0 2.25501e-08
95 3 0.001 0.00894588 0.00497227 0.00764579 3.3038e-05 -0.000123673 1.06341e-06 0 2.2548e-08
96 3 0.001 0.00896279 0.00498278 0.00827609 -0.000153621 0.000224815 -1.14767e-06 0 2.255e-08
97 3 0.001 0.00897996 0.00499345 0.00890637 0.000295087 -0.000352274 -3.70583e-06 0 2.25542e-08
98 3 0.001 0.00899731 0.00500422 0.00953664 -0.000509209 0.000509276 5.20704e-06 0 2.25567e-08
99 3 0.001 0.00901473 0.00501505 0.0101669 0.000664462 -0.000614619 -6.08393e-06 0 2.25541e-08
100 3 0.001 0.00903216 0.00502587 0.0107972 -0.00054745 0.000525492 8.39057e-06 0 2.25463e-08
101 3 0.001 0.00904947 0.00503664 0.0114275 0.000368592 -0.000370905 -3.23519e-06 0 2.25371e-08
102 3 0.001 0.0090666 0.00504727 0.0120577 -0.000261684 0.000290598 -9.02881e-08 0 2.25308e-08
103 3 0.001 0.00908341 0.00505771 0.012688 0.000137338 -0.000230356 -3.13778e-06 0 2.25261e-08
104 3 0.001 0.00909977 0.00506785 0.0133184 -3.02945e-05 0.000147098 -2.16258e-06 0 2.25159e-08
105 3 0.001 0.00911552 0.00507761 0.0139487 -3.37202e-05 -7.15822e-05 5.19098e-06 0 2.24946e-08
106 3 0.001 0.00913045 0.00508684 0.0145791 7.01745e-05 3.6113e-05 1.79043e-06 0 2.24667e-08
107 3 0.001 0.00914429 0.00509541 0.0152095 -4.58537e-05 -3.57518e-05 1.44585e-06 0 2.24454e-08
108 3 0.001 0.00915673 0.00510311 0.0158399 -2.32464e-05 4.58696e-05 -4.5093e-06 0 2.24413e-08
109 3 0.001 0.00916737 0.00510973 0.0164704 5.38053e-05 -5.39865e-05 -4.18376e-06 0 2.24532e-08
110 3 0.001 0.00917575 0.00511501 0.0171009 -1.54919e-05 3.77069e-05 1.17273e-06 0 2.24747e-08
111 3 0.001 0.00918133 0.00511862 0.0177315 -6.39119e-05 2.93022e-05 5.22311e-06 0 2.25087e-08
112 3 0.001 0.00918345 0.00512023 0.0183621 8.41164e-05 -5.59448e-05 3.26311e-06 0 2.25726e-08
113 3 0.001 0.00918139 0.00511942 0.0189927 3.86372e-06 -1.11964e-05 -1.8685e-06 0 2.26868e-08
114 3 0.001 0.00917434 0.00511576 0.0196232 -9.32489e-05 7.95665e-05 -6.45935e-06 0 2.28612e-08
115 3 0.001 0.00916139 0.00510874 0.0202537 0.000110192 -8.77296e-05 -1.41006e-06 0 2.30893e-08
116 3 0.001 0.00914158 0.00509784 0.0208838 -8.3425e-05 4.57126e-05 9.33039e-07 0 2.33573e-08
117 3 0.001 0.00911388 0.00508252 0.0215136 6.20521e-05 -7.12101e-06 8.89211e-06 0 2.36577e-08
118 3 0.001 0.00907724 0.00506218 0.0221427 -5.62061e-05 -1.2129e-05 -1.89616e-06 0 2.39892e-08
119 3 0.001 0.00903062 0.00503627 0.022771 1.6555e-05 2.97296e-05 -1.40284e-06 0 2.43442e-08
120 3 0.001 0.00897298 0.00500422 0.023398 3.98767e-05 -1.6962e-05 -1.56351e-06 0 2.47073e-08
122 3 0.001 0.00882093 0.00491959 0.0246467 5.20235e-05 -2.60769e-05 8.11654e-06 0 2.54144e-08
121 3 0.001 0.00890338 0.00496549 0.0240234 -5.53679e-05 1.14243e-05 -7.42822e-06 0 2.5067e-08
123 3 0.001 0.00872484 0.00486607 0.0252675 -4.22023e-05 -7.33699e-06 -3.58502e-06 0 2.57442e-08
125 3 0.001 0.00848902 0.00473468 0.0264989 3.96459e-05 -5.34942e-06 7.37449e-06 0 2.63539e-08
124 3 0.001 0.0086144 0.00480454 0.0258851 6.53452e-06 3.28045e-05 6.40907e-06 0 2.60578e-08
128 3 0.001 0.00801878 0.00447259 0.0283112 9.95472e-06 -4.91008e-05 -3.63153e-06 0 2.70515e-08
127 3 0.001 0.00819154 0.00456889 0.0277127 3.68695e-05 3.04062e-05 1.03002e-05 0 2.6866e-08
126 3 0.001 0.00834819 0.0046562 0.0271084 -6.00396e-05 -1.46538e-05 -2.13623e-05 0 2.66272e-08
129 3 0.001 0.00782978 0.00436723 0.0289032 -3.76819e-05 4.60415e-05 1.51656e-06 0 2.71735e-08
130 3 0.001 0.00762448 0.00425277 0.0294881 1.06771e-05 -3.16451e-06 8.05102e-06 0 2.72377e-08
133 3 0.001 0.00691217 0.00385557 0.0311935 1.06524e-05 -8.43431e-05 -2.23437e-05 0 2.7164e-08
132 3 0.001 0.00716544 0.0039968 0.0306338 -3.57648e-05 0.000147485 1.40968e-05 0 2.72349e-08
131 3 0.001 0.00740297 0.00412926 0.0300652 3.43246e-05 -9.09854e-05 -8.03436e-06 0 2.72565e-08
134 3 0.001 0.00664356 0.00370578 0.0317437 3.07305e-05 -3.99304e-05 5.05575e-06 0 2.70309e-08
135 3 0.001 0.0063601 0.00354769 0.0322841 -7.90904e-05 0.000135328 5.56933e-06 0 2.68319e-08
136 3 0.001 0.00606236 0.00338164 0.0328143 6.9919e-05 -0.000140701 9.35157e-07 0 2.6583e-08
139 3 0.001 0.00509024 0.00283945 0.0343426 8.43357e-05 -0.000143218 -1.98556e-06 0 2.57093e-08
138 3 0.001 0.0054267 0.00302711 0.0338436 -2.99524e-05 5.82839e-05 -6.02496e-06 0 2.60189e-08
137 3 0.001 0.00575099 0.00320798 0.0333342 -2.04387e-05 5.81532e-05 5.31034e-06 0 2.63082e-08
140 3 0.001 0.00474244 0.00264544 0.0348313 -7.65435e-05 0.000121013 -4.02763e-06 0 2.53716e-08
141 3 0.001 0.00438412 0.00244558 0.03531 1.82617e-05 -3.29835e-05 6.77478e-06 0 2.50127e-08
142 3 0.001 0.00401615 0.00224033 0.035779 6.0012e-06 -2.46855e-05 -2.50892e-06 0 2.46527e-08
143 3 0.001 0.00363941 0.00203018 0.0362388 -7.51376e-06 4.67991e-05 1.32088e-05 0 2.43105e-08
144 3 0.001 0.0032548 0.00181565 0.03669 -2.11471e-05 -2.03314e-05 -3.38878e-05 0 2.39928e-08
145 3 0.001 0.00286321 0.00159721 0.0371333 6.26372e-05 -3.39742e-05 3.68615e-05 0 2.36965e-08
147 3 0.001 0.00206266 0.00115064 0.0379993 -2.36448e-05 -1.70478e-05 -2.86358e-05 0 2.31727e-08
148 3 0.001 0.00165547 0.00092349 0.0384239 3.68616e-05 -6.05556e-06 3.42039e-05 0 2.29634e-08
149 3 0.001 0.00124484 0.000694421 0.038844 -8.98281e-06 -2.74819e-05 -2.43304e-05 0 2.25006e-08
146 3 0.001 0.00246554 0.00137537 0.0375695 -3.64162e-05 4.63104e-05 -7.24585e-06 0 2.34205e-08
151 3 0.001 0.000416233 0.00023219 0.039676 -1.46982e-05 -4.09102e-05 -4.02078e-05 0 1.25998e-08
2 2 0.001 0 0 0.04009 -0.00657634 -0.00366679 0.0165733 0 6.29182e-09
150 3 0.001 0.000831607 0.000463902 0.0392609 3.44486e-09 6.72595e-05 3.50526e-05 0 1.73739e-08
