ITEM: TIMESTEP
6100000
ITEM: NUMBER OF ATOMS
151
ITEM: BOX BOUNDS ff ff ff
-1.0000000000000000e-02 1.0000000000000000e-02
-6.0000000000000001e-03 6.0000000000000001e-03
-5.2499999999999998e-02 5.2499999999999998e-02
ITEM: ATOMS id type radius x y z fx fy fz c_bendingE c_stretchingE
3 3 0.001 0.000354701 0.000317832 -0.0470846 1.48492e-10 -1.31799e-10 -3.2734e-11 0 5.82764e-09
1 1 0.001 0 0 -0.0475 -0.00513307 -0.000753669 -0.0141771 0 2.90629e-09
4 3 0.001 0.000709018 0.000634561 -0.0466681 -1.4617e-10 1.10883e-10 2.97647e-11 0 9.292e-09
5 3 0.001 0.0010622 0.000948754 -0.0462497 5.3939e-11 -2.69636e-11 -3.62151e-11 0 1.30286e-08
6 3 0.001 0.00141418 0.00125961 -0.0458279 8.4361e-11 -8.21234e-11 -2.39684e-11 0 1.34037e-08
7 3 0.001 0.00176458 0.00156605 -0.0454015 -8.63119e-11 6.85846e-11 -2.30848e-12 0 1.35995e-08
8 3 0.001 0.00211295 0.00186693 -0.0449696 9.9359e-11 -7.93032e-11 -5.23708e-11 0 1.3834e-08
9 3 0.001 0.00245883 0.00216115 -0.0445312 3.14523e-12 -2.3955e-11 -1.72345e-11 0 1.41045e-08
10 3 0.001 0.00280173 0.00244757 -0.0440854 -1.0112e-11 7.26368e-12 -2.38118e-11 0 1.44074e-08
11 3 0.001 0.00314114 0.00272506 -0.0436314 1.46172e-10 -8.85064e-11 -8.37152e-11 0 1.47383e-08
12 3 0.001 0.00347651 0.00299249 -0.0431685 -1.20137e-10 2.29325e-11 3.74711e-11 0 1.50925e-08
13 3 0.001 0.00380725 0.00324875 -0.042696 1.14152e-10 -4.59727e-11 -9.67062e-11 0 1.54643e-08
14 3 0.001 0.00413275 0.00349273 -0.0422135 1.27509e-10 -1.21589e-10 -6.31284e-11 0 1.58476e-08
15 3 0.001 0.00445239 0.00372335 -0.0417208 -1.47239e-10 9.85504e-11 1.31053e-11 0 1.62357e-08
16 3 0.001 0.00476551 0.00393955 -0.0412174 1.98531e-10 -1.68856e-10 -8.71056e-11 0 1.66213e-08
17 3 0.001 0.00507144 0.00414033 -0.0407033 2.52576e-11 -8.66762e-12 -5.06876e-11 0 1.69968e-08
18 3 0.001 0.00536951 0.00432472 -0.0401787 -7.18184e-11 1.10409e-11 -5.64028e-12 0 1.73547e-08
19 3 0.001 0.00565903 0.00449183 -0.0396436 1.85469e-10 -1.43964e-10 -9.60741e-11 0 1.76873e-08
20 3 0.001 0.00593934 0.00464084 -0.0390984 -2.50909e-11 1.40551e-11 -2.62596e-11 0 1.79871e-08
21 3 0.001 0.0062098 0.00477102 -0.0385435 6.42972e-11 -7.81553e-11 -4.80918e-11 0 1.82475e-08
22 3 0.001 0.00646978 0.00488174 -0.0379794 3.89348e-11 -6.00479e-11 -4.44581e-11 0 1.84622e-08
23 3 0.001 0.0067187 0.00497246 -0.0374069 3.11656e-13 -5.07054e-12 -3.77181e-11 0 1.86261e-08
24 3 0.001 0.00695603 0.00504277 -0.0368266 1.19864e-10 -1.14535e-10 -6.97436e-11 0 1.8729e-08
25 3 0.001 0.00718131 0.00509239 -0.0362395 -2.65517e-11 -4.87375e-11 -1.92919e-11 0 1.87656e-08
26 3 0.001 0.00739413 0.00512113 -0.0356463 2.11926e-11 2.6403e-11 -3.78229e-11 0 1.87558e-08
27 3 0.001 0.00759417 0.00512892 -0.0350481 1.09733e-10 -1.87621e-10 -6.85406e-11 0 1.87274e-08
28 3 0.001 0.00778118 0.00511573 -0.0344457 -6.23799e-11 6.13332e-11 -1.13826e-11 0 1.86898e-08
29 3 0.001 0.00795499 0.00508163 -0.0338403 1.54523e-11 -8.84229e-11 -3.9675e-11 0 1.86292e-08
30 3 0.001 0.00811554 0.00502675 -0.0332326 1.30757e-10 -1.04036e-10 -7.14132e-11 0 1.85171e-08
31 3 0.001 0.00826283 0.00495131 -0.0326239 -1.31397e-10 3.15226e-11 9.27434e-12 0 1.83426e-08
32 3 0.001 0.00839697 0.00485565 -0.0320149 6.32278e-11 -9.4687e-11 -5.72632e-11 0 1.81165e-08
35 3 0.001 0.00872288 0.0044525 -0.0301953 1.24036e-10 -1.37987e-10 -7.83091e-11 0 1.72068e-08
33 3 0.001 0.00851815 0.00474023 -0.0314066 5.94758e-11 -7.81556e-11 -5.39871e-11 0 1.78475e-08
34 3 0.001 0.00862667 0.00460563 -0.0307998 -1.38972e-10 4.49539e-11 1.07696e-11 0 1.7542e-08
37 3 0.001 0.00888032 0.00409378 -0.0289959 -1.02326e-10 1.13133e-11 -8.54163e-12 0 1.64766e-08
36 3 0.001 0.00880725 0.00428161 -0.0295939 -3.90178e-11 -1.64613e-11 -2.34349e-11 0 1.68491e-08
39 3 0.001 0.00899505 0.003671 -0.0278125 -3.90381e-11 2.19454e-11 -9.20057e-12 0 1.57168e-08
38 3 0.001 0.00894269 0.00388993 -0.028402 6.90176e-11 -1.1383e-10 -7.05446e-11 0 1.60967e-08
40 3 0.001 0.00903813 0.00343801 -0.0272276 -3.87188e-11 -5.40577e-11 -3.95847e-11 0 1.53404e-08
42 3 0.001 0.00909968 0.00293405 -0.0260721 -3.27428e-11 -3.28758e-11 -3.59122e-11 0 1.4619e-08
41 3 0.001 0.00907273 0.00319201 -0.0266474 -1.8158e-11 -1.69912e-11 -2.7079e-11 0 1.49714e-08
45 3 0.001 0.00914298 0.00209944 -0.0243732 -3.21021e-11 1.07879e-11 -1.40911e-11 0 1.37467e-08
44 3 0.001 0.00913398 0.00238666 -0.0249352 -1.02341e-10 -9.93074e-12 -2.41022e-11 0 1.4001e-08
43 3 0.001 0.00911981 0.00266523 -0.0255014 3.08985e-11 -3.04743e-11 -3.68446e-11 0 1.42932e-08
47 3 0.001 0.00914846 0.00150356 -0.0232603 -1.46191e-10 2.80991e-11 -5.23294e-12 0 1.33563e-08
48 3 0.001 0.0091463 0.00119714 -0.0227084 4.39664e-11 -3.16907e-11 -3.83043e-11 0 1.3219e-08
46 3 0.001 0.00914757 0.0018047 -0.023815 9.35113e-11 -5.8194e-11 -5.09958e-11 0 1.35318e-08
50 3 0.001 0.00913504 0.000572944 -0.0216111 -5.30137e-11 8.18026e-12 -1.71537e-11 0 1.30523e-08
49 3 0.001 0.00914165 0.000886558 -0.0221589 -3.41535e-11 1.23894e-11 -1.49287e-11 0 1.31183e-08
51 3 0.001 0.0091269 0.000257422 -0.0210644 8.96324e-13 -9.95008e-12 -2.79365e-11 0 1.30198e-08
53 3 0.001 0.00910776 -0.000374886 -0.0199718 -9.34755e-11 1.52989e-11 -1.30931e-11 0 1.30452e-08
52 3 0.001 0.00911767 -5.88657e-05 -0.0205181 1.89833e-11 1.25416e-11 -1.31521e-11 0 1.30181e-08
55 3 0.001 0.00908648 -0.00100152 -0.018876 -6.60544e-11 1.81203e-11 -1.34575e-11 0 1.3184e-08
54 3 0.001 0.00909729 -0.000689487 -0.0194246 2.55402e-11 2.07343e-12 -1.92979e-11 0 1.31009e-08
56 3 0.001 0.00907547 -0.00130987 -0.0183253 1.53882e-12 4.0274e-11 -1.50244e-12 0 1.32926e-08
58 3 0.001 0.00905345 -0.00191103 -0.0172154 -5.31749e-11 3.19657e-11 -2.70527e-12 0 1.35799e-08
57 3 0.001 0.00906442 -0.00161341 -0.0177719 -3.9486e-11 -3.43415e-12 -2.41069e-11 0 1.34252e-08
59 3 0.001 0.00904263 -0.00220161 -0.0166551 -1.50695e-11 3.91166e-11 1.75748e-13 0 1.37546e-08
60 3 0.001 0.00903204 -0.00248407 -0.0160907 -3.72428e-11 1.96358e-11 -1.27619e-11 0 1.3947e-08
61 3 0.001 0.00902175 -0.0027573 -0.0155219 -9.22597e-11 3.38519e-11 -7.30097e-12 0 1.41543e-08
63 3 0.001 0.00900223 -0.00327184 -0.0143694 -3.66263e-11 3.12449e-11 -4.57299e-12 0 1.46018e-08
62 3 0.001 0.00901179 -0.00302024 -0.0149482 3.10059e-13 4.11457e-11 -1.59398e-12 0 1.43737e-08
64 3 0.001 0.00899311 -0.00351107 -0.0137854 -1.36447e-10 4.26088e-11 6.00771e-14 0 1.48352e-08
65 3 0.001 0.00898446 -0.00373693 -0.0131962 -2.49975e-11 4.02638e-11 -1.78842e-12 0 1.50701e-08
66 3 0.001 0.00897633 -0.00394848 -0.0126017 8.27269e-12 5.26841e-11 1.3321e-12 0 1.53023e-08
67 3 0.001 0.00896876 -0.00414481 -0.012002 -1.41966e-10 4.90255e-11 -2.14588e-12 0 1.55276e-08
68 3 0.001 0.00896179 -0.00432508 -0.0113972 -1.21448e-10 3.10368e-11 -4.34254e-12 0 1.57418e-08
69 3 0.001 0.00895544 -0.00448849 -0.0107877 7.55297e-11 5.2804e-11 5.51731e-12 0 1.59407e-08
70 3 0.001 0.00894976 -0.00463432 -0.0101738 -1.24156e-10 5.28958e-11 1.19703e-12 0 1.61205e-08
71 3 0.001 0.00894477 -0.00476196 -0.00955586 -1.90846e-10 6.84694e-11 1.94219e-12 0 1.62775e-08
72 3 0.001 0.00894049 -0.00487083 -0.00893433 5.74005e-11 3.71619e-11 -1.56229e-12 0 1.64085e-08
73 3 0.001 0.00893696 -0.00496049 -0.00830974 -1.19628e-10 5.00276e-11 1.77997e-12 0 1.65106e-08
74 3 0.001 0.00893419 -0.00503058 -0.00768265 -1.06809e-10 6.42284e-11 4.01672e-12 0 1.65783e-08
75 3 0.001 0.0089322 -0.00508083 -0.00705366 -3.29157e-11 5.30758e-11 1.43285e-12 0 1.66057e-08
76 3 0.001 0.00893099 -0.00511109 -0.0064234 -1.04717e-10 4.58643e-11 5.33712e-13 0 1.66058e-08
77 3 0.001 0.00893057 -0.00512127 -0.00579249 -8.421e-11 5.99258e-11 1.84317e-12 0 1.66028e-08
78 3 0.001 0.00893095 -0.00511136 -0.00516157 -1.42551e-10 6.56761e-11 1.66612e-12 0 1.66068e-08
79 3 0.001 0.00893213 -0.00508137 -0.00453129 6.08579e-11 4.27923e-11 1.71478e-12 0 1.6608e-08
80 3 0.001 0.00893408 -0.00503138 -0.00390229 -1.58012e-10 5.16151e-11 2.87817e-12 0 1.65822e-08
81 3 0.001 0.00893682 -0.00496156 -0.00327517 -1.8375e-10 6.58043e-11 1.35607e-12 0 1.65161e-08
82 3 0.001 0.00894032 -0.00487215 -0.00265054 1.39379e-10 4.6005e-11 1.99331e-12 0 1.64154e-08
83 3 0.001 0.00894456 -0.00476352 -0.00202897 -2.72994e-10 5.13452e-11 4.11311e-12 0 1.62858e-08
84 3 0.001 0.00894952 -0.00463613 -0.00141096 4.57433e-11 4.20553e-11 2.91021e-12 0 1.61301e-08
85 3 0.001 0.00895517 -0.00449052 -0.000796985 -1.3594e-10 7.03201e-11 -2.96565e-12 0 1.59514e-08
86 3 0.001 0.00896149 -0.00432732 -0.000187438 -5.35682e-11 3.06443e-11 7.62197e-12 0 1.57535e-08
87 3 0.001 0.00896844 -0.00414726 0.000417349 -3.68034e-11 4.82281e-11 4.38236e-12 0 1.55403e-08
88 3 0.001 0.00897599 -0.00395111 0.00101712 -1.25255e-10 5.58496e-11 2.66994e-12 0 1.53159e-08
89 3 0.001 0.00898411 -0.00373973 0.00161171 -8.03182e-12 3.21238e-11 7.07041e-12 0 1.50844e-08
90 3 0.001 0.00899274 -0.00351402 0.00220101 -1.05187e-10 2.69744e-11 9.72565e-12 0 1.48502e-08
91 3 0.001 0.00900185 -0.00327493 0.00278503 8.04427e-14 7.32558e-11 -1.02368e-11 0 1.46174e-08
92 3 0.001 0.0090114 -0.00302346 0.00336384 -1.08713e-10 9.14741e-12 2.21881e-11 0 1.43897e-08
93 3 0.001 0.00902135 -0.00276062 0.00393758 -2.69138e-12 2.12316e-11 1.62014e-11 0 1.41707e-08
94 3 0.001 0.00903164 -0.00248747 0.0045065 -8.29776e-11 7.52337e-11 -1.30875e-11 0 1.39637e-08
95 3 0.001 0.00904223 -0.00220508 0.00507091 -3.02692e-12 -1.26081e-11 2.81489e-11 0 1.37716e-08
96 3 0.001 0.00905306 -0.00191455 0.00563117 -5.77471e-11 2.59693e-11 1.13654e-11 0 1.35972e-08
97 3 0.001 0.00906405 -0.00161696 0.00618774 -2.03898e-11 4.50276e-11 3.10199e-12 0 1.34427e-08
98 3 0.001 0.00907512 -0.00131344 0.0067411 -1.00019e-10 2.32111e-11 1.57661e-11 0 1.33104e-08
99 3 0.001 0.00908615 -0.00100509 0.00729179 1.11197e-10 -3.01182e-11 3.95203e-11 0 1.32019e-08
100 3 0.001 0.009097 -0.000693038 0.00784041 -1.28035e-10 8.66695e-11 -2.44806e-11 0 1.31191e-08
101 3 0.001 0.0091075 -0.000378404 0.00838757 -6.27815e-11 -8.29091e-11 7.26935e-11 0 1.30635e-08
102 3 0.001 0.00911746 -6.2335e-05 0.00893391 9.40958e-11 1.0694e-10 -3.65265e-11 0 1.30366e-08
103 3 0.001 0.00912676 0.000254013 0.0094801 -6.70354e-11 -8.92431e-11 7.96938e-11 0 1.30386e-08
104 3 0.001 0.00913498 0.000569611 0.0100267 -8.82173e-11 1.06437e-10 -3.63746e-11 0 1.30712e-08
105 3 0.001 0.00914169 0.000883314 0.0105745 7.40355e-11 -1.05359e-10 8.10956e-11 0 1.31373e-08
106 3 0.001 0.00914645 0.001194 0.011124 -6.27192e-11 4.30091e-11 -6.8906e-13 0 1.32382e-08
107 3 0.001 0.00914874 0.00150053 0.0116758 -5.74904e-11 1.55462e-11 1.81101e-11 0 1.33757e-08
108 3 0.001 0.009148 0.0018018 0.0122305 5.89845e-11 -6.07526e-11 5.91309e-11 0 1.35515e-08
109 3 0.001 0.00914358 0.00209668 0.0127886 -1.30577e-10 1.72979e-11 1.14768e-11 0 1.37667e-08
110 3 0.001 0.00913478 0.00238404 0.0133505 7.74116e-11 -2.25699e-11 3.44782e-11 0 1.40215e-08
111 3 0.001 0.00912084 0.00266277 0.0139166 -1.0746e-11 -7.84495e-11 6.21579e-11 0 1.43143e-08
112 3 0.001 0.00910094 0.00293176 0.0144872 -2.12609e-10 1.14028e-10 -3.50009e-11 0 1.46412e-08
113 3 0.001 0.00907426 0.00318989 0.0150625 2.90319e-10 -2.05483e-10 1.31506e-10 0 1.49951e-08
114 3 0.001 0.00903994 0.00343608 0.0156426 -3.90713e-10 1.55048e-10 -6.71103e-11 0 1.5366e-08
115 3 0.001 0.00899715 0.00366926 0.0162274 3.68264e-10 -2.47303e-10 1.47008e-10 0 1.57445e-08
116 3 0.001 0.0089451 0.00388838 0.0168169 -3.62793e-10 2.09427e-10 -8.27618e-11 0 1.61265e-08
117 3 0.001 0.00888304 0.00409243 0.0174108 2.09239e-10 -2.24594e-10 1.26529e-10 0 1.65087e-08
118 3 0.001 0.00881028 0.00428046 0.0180087 -4.9507e-11 -1.48131e-11 2.35426e-11 0 1.68837e-08
119 3 0.001 0.00872622 0.00445156 0.0186102 -9.35091e-11 3.27846e-11 1.45121e-12 0 1.72439e-08
120 3 0.001 0.00863031 0.00460489 0.0192146 1.07296e-10 -1.07154e-10 7.01902e-11 0 1.75818e-08
122 3 0.001 0.00840118 0.00485531 0.0204297 3.35621e-11 -9.35973e-11 5.353e-11 0 1.81616e-08
121 3 0.001 0.00852209 0.0047397 0.0198214 -5.60142e-11 -1.53911e-11 2.29929e-11 0 1.789e-08
123 3 0.001 0.0082673 0.00495116 0.0210387 5.53711e-13 -4.16449e-12 3.01762e-11 0 1.83902e-08
124 3 0.001 0.00812025 0.00502679 0.0216475 7.1671e-12 -8.34533e-11 3.88482e-11 0 1.85672e-08
125 3 0.001 0.00795991 0.00508186 0.0222552 2.19744e-11 2.72824e-12 3.72209e-11 0 1.86814e-08
126 3 0.001 0.00778628 0.00511613 0.0228607 1.4075e-10 -1.83991e-10 8.35776e-11 0 1.87439e-08
127 3 0.001 0.00759943 0.00512949 0.0234631 -1.97598e-10 1.49075e-10 -2.97442e-11 0 1.87832e-08
130 3 0.001 0.00696156 0.00504377 0.0252417 1.82769e-10 -1.87985e-10 8.97336e-11 0 1.87911e-08
129 3 0.001 0.00718678 0.00509326 0.0246546 -1.49766e-10 1.38341e-10 -1.39188e-11 0 1.88255e-08
128 3 0.001 0.00739951 0.00512186 0.0240614 2.80627e-10 -2.79587e-10 1.22338e-10 0 1.88135e-08
131 3 0.001 0.00672424 0.00497358 0.025822 -1.10248e-10 7.53237e-11 2.52493e-12 0 1.86901e-08
132 3 0.001 0.0064753 0.00488296 0.0263946 2.66469e-10 -2.33547e-10 1.17152e-10 0 1.85275e-08
135 3 0.001 0.00566429 0.00449324 0.0280586 1.49992e-11 -5.99584e-11 2.80108e-11 0 1.77538e-08
133 3 0.001 0.00621527 0.00477233 0.0269586 -1.94709e-10 1.41596e-10 -2.36977e-11 0 1.83136e-08
134 3 0.001 0.00594473 0.00464221 0.0275135 2.04741e-10 -1.53096e-10 1.01656e-10 0 1.80537e-08
136 3 0.001 0.00537462 0.00432616 0.0285936 3.9863e-11 -7.13615e-12 6.04978e-11 0 1.74209e-08
137 3 0.001 0.00507637 0.00414178 0.0291182 -3.34491e-11 -8.11082e-12 2.01628e-11 0 1.70624e-08
138 3 0.001 0.00477023 0.00394099 0.0296321 2.98564e-10 -1.9355e-10 1.42917e-10 0 1.66859e-08
141 3 0.001 0.00381118 0.00325006 0.0311101 -1.86788e-10 9.27863e-11 -4.04996e-11 0 1.55251e-08
139 3 0.001 0.00445687 0.00372476 0.0301353 -3.12607e-10 1.52761e-10 -9.46848e-11 0 1.62992e-08
140 3 0.001 0.00413697 0.0034941 0.0306279 3.60117e-10 -2.06697e-10 1.74093e-10 0 1.59098e-08
142 3 0.001 0.00348014 0.00299373 0.0315823 2.32555e-10 -1.48156e-10 1.20962e-10 0 1.51518e-08
143 3 0.001 0.00314446 0.0027262 0.032045 -1.85445e-10 8.84533e-11 -5.08227e-11 0 1.47962e-08
144 3 0.001 0.00280472 0.00244861 0.0324987 2.47612e-10 -1.58181e-10 1.16362e-10 0 1.44638e-08
148 3 0.001 0.00141572 0.00126018 0.0342396 1.60602e-10 -1.09886e-10 7.13259e-11 0 1.34561e-08
146 3 0.001 0.00211523 0.00186775 0.0333822 7.86872e-11 -6.79769e-11 4.29106e-11 0 1.38881e-08
147 3 0.001 0.00176649 0.00156674 0.0338137 -5.56465e-11 3.71046e-11 2.99558e-12 0 1.36526e-08
145 3 0.001 0.00246147 0.00216209 0.0329442 -1.05775e-10 6.77132e-11 -1.0422e-11 0 1.41597e-08
150 3 0.001 0.000709794 0.000634847 0.035079 8.95678e-11 -6.99498e-11 3.09825e-11 0 9.33452e-09
151 3 0.001 0.000355089 0.000317976 0.0354951 -1.18402e-11 2.69273e-11 1.57408e-11 0 5.86203e-09
149 3 0.001 0.00106335 0.00094918 0.034661 -1.38843e-10 8.2595e-11 -4.2241e-11 0 1.308e-08
2 2 0.001 0 0 0.03591 -0.00514785 -0.000763049 0.0142058 0 2.92351e-09
