ITEM: TIMESTEP
8400000
ITEM: NUMBER OF ATOMS
151
ITEM: BOX BOUNDS ff ff ff
-1.0000000000000000e-02 1.0000000000000000e-02
-6.0000000000000001e-03 6.0000000000000001e-03
-5.2499999999999998e-02 5.2499999999999998e-02
ITEM: ATOMS id type radius x y z fx fy fz c_bendingE c_stretchingE
1 1 0.001 0 0 -0.0475 -0.00249203 0 -0.01479 0 1.73513e-09
3 3 0.001 0.000513175 0 -0.0471307 4.63718e-12 0 -1.72351e-12 0 3.50752e-09
4 3 0.001 0.0010239 0 -0.046758 -2.62369e-11 0 2.56745e-11 0 6.39618e-09
5 3 0.001 0.00153162 0 -0.0463823 5.80665e-11 0 -8.14638e-11 0 9.52438e-09
6 3 0.001 0.00203558 0 -0.0460017 -7.61504e-11 0 9.94177e-11 0 9.92191e-09
7 3 0.001 0.00253452 0 -0.0456146 7.0959e-11 0 -7.57364e-11 0 1.01924e-08
8 3 0.001 0.00302709 0 -0.0452194 -8.25648e-12 0 5.53552e-12 0 1.05199e-08
9 3 0.001 0.00351191 0 -0.0448148 -1.60524e-11 0 1.65494e-11 0 1.09021e-08
10 3 0.001 0.00398751 0 -0.0443995 -2.58585e-12 0 -2.19703e-11 0 1.13359e-08
11 3 0.001 0.00445241 0 -0.0439723 3.8359e-11 0 -3.64533e-11 0 1.1817e-08
12 3 0.001 0.00490502 0 -0.0435322 -5.22631e-11 0 5.98398e-11 0 1.23403e-08
13 3 0.001 0.00534374 0 -0.0430782 7.87407e-11 0 -7.32936e-11 0 1.2899e-08
14 3 0.001 0.00576691 0 -0.0426098 -4.69971e-11 0 3.28693e-11 0 1.34852e-08
15 3 0.001 0.00617283 0 -0.0421264 -9.887e-12 0 -5.23795e-12 0 1.40896e-08
16 3 0.001 0.00655978 0 -0.0416278 5.0779e-11 0 -4.65593e-11 0 1.47017e-08
17 3 0.001 0.00692606 0 -0.0411139 -1.24487e-11 0 1.13399e-11 0 1.53096e-08
18 3 0.001 0.00726998 0 -0.0405848 -4.30813e-11 0 2.06907e-11 0 1.59006e-08
19 3 0.001 0.00758989 0 -0.0400408 6.82876e-11 0 -4.48855e-11 0 1.64617e-08
20 3 0.001 0.00788424 0 -0.0394827 -3.48114e-11 0 1.66484e-11 0 1.69794e-08
21 3 0.001 0.00815155 0 -0.0389112 3.43415e-11 0 -2.96959e-11 0 1.74407e-08
22 3 0.001 0.00839049 0 -0.0383273 -1.62137e-11 0 -1.94358e-12 0 1.78335e-08
23 3 0.001 0.00859986 0 -0.0377321 -1.50203e-11 0 -4.10309e-12 0 1.81472e-08
24 3 0.001 0.00877868 0 -0.0371271 5.00302e-11 0 -1.97243e-11 0 1.83729e-08
25 3 0.001 0.00892613 0 -0.0365137 -1.68575e-11 0 2.2055e-12 0 1.85041e-08
26 3 0.001 0.00904162 0 -0.0358935 1.9381e-11 0 -1.47049e-11 0 1.85271e-08
27 3 0.001 0.0091248 0 -0.0352682 -1.06205e-11 0 -1.69309e-11 0 1.84237e-08
28 3 0.001 0.00917553 0 -0.0346394 -1.95988e-12 0 -5.5266e-12 0 1.82376e-08
29 3 0.001 0.00919385 0 -0.0340087 6.57278e-11 0 -1.09875e-11 0 1.80568e-08
30 3 0.001 0.00917995 0 -0.033378 -4.96812e-11 0 -1.50119e-11 0 1.79209e-08
31 3 0.001 0.00913412 0 -0.0327487 3.18357e-11 0 -6.46639e-12 0 1.7802e-08
32 3 0.001 0.00905678 0 -0.0321226 8.27208e-11 0 -7.9407e-12 0 1.76232e-08
33 3 0.001 0.00894848 0 -0.031501 -1.41513e-10 0 -4.034e-11 0 1.73385e-08
34 3 0.001 0.00880998 0 -0.0308855 2.07709e-10 0 2.86228e-11 0 1.69667e-08
35 3 0.001 0.00864223 0 -0.0302772 -1.38896e-10 0 -5.4569e-11 0 1.6532e-08
37 3 0.001 0.00822356 0 -0.0290869 -5.42001e-11 0 -4.98187e-11 0 1.55192e-08
36 3 0.001 0.00844633 0 -0.0296774 1.34997e-10 0 3.51456e-11 0 1.60455e-08
39 3 0.001 0.00770309 0 -0.0279373 4.9378e-11 0 -4.71191e-12 0 1.43956e-08
40 3 0.001 0.00740847 0 -0.0273791 3.12566e-11 0 -4.58842e-12 0 1.38221e-08
38 3 0.001 0.00797531 0 -0.0285067 6.28519e-11 0 3.08279e-13 0 1.49652e-08
43 3 0.001 0.00640679 0 -0.0257728 -7.61541e-11 0 -8.78106e-11 0 1.21808e-08
42 3 0.001 0.00675863 0 -0.0262969 2.1605e-10 0 1.12638e-10 0 1.27054e-08
41 3 0.001 0.00709309 0 -0.0268323 -8.72173e-11 0 -8.64253e-11 0 1.32554e-08
46 3 0.001 0.00526386 0 -0.0242628 1.3461e-10 0 7.1209e-11 0 1.08272e-08
45 3 0.001 0.00565772 0 -0.0247564 1.08068e-11 0 -3.34865e-11 0 1.1236e-08
44 3 0.001 0.00603926 0 -0.0252594 7.43626e-11 0 6.52886e-12 0 1.16889e-08
48 3 0.001 0.00444563 0 -0.0233008 1.42404e-10 0 7.0333e-11 0 1.01568e-08
47 3 0.001 0.00485929 0 -0.023778 -8.25829e-11 0 -1.1886e-10 0 1.04664e-08
49 3 0.001 0.00402445 0 -0.0228303 1.7507e-11 0 -3.29382e-11 0 9.90064e-09
51 3 0.001 0.00316566 0 -0.0219041 6.41283e-11 0 1.22847e-11 0 9.55474e-09
52 3 0.001 0.00273105 0 -0.0214459 -4.78901e-11 0 -1.01093e-10 0 9.46687e-09
50 3 0.001 0.00359729 0 -0.0223651 7.82254e-11 0 1.34143e-11 0 9.69957e-09
55 3 0.001 0.00142402 0 -0.0200742 1.19975e-10 0 5.90757e-11 0 9.54776e-09
54 3 0.001 0.00185876 0 -0.0205323 -7.45834e-11 0 -1.44586e-10 0 9.46337e-09
56 3 0.001 0.000992162 0 -0.0196133 3.77278e-11 0 -2.23208e-11 0 9.68914e-09
53 3 0.001 0.00229493 0 -0.020989 2.38746e-10 0 1.59342e-10 0 9.43637e-09
58 3 0.001 0.000143098 0 -0.0186783 2.30561e-11 0 -4.14137e-11 0 1.01397e-08
57 3 0.001 0.000564686 0 -0.0191485 1.29225e-10 0 6.13109e-11 0 9.88682e-09
59 3 0.001 -0.000271063 0 -0.0182016 5.74467e-11 0 -1.95313e-11 0 1.04461e-08
61 3 0.001 -0.00107079 0 -0.0172242 5.34658e-11 0 -6.75686e-12 0 1.12098e-08
62 3 0.001 -0.00145312 0 -0.0167218 8.647e-11 0 1.33055e-11 0 1.16602e-08
60 3 0.001 -0.000676227 0 -0.0177172 1.12386e-10 0 3.39478e-11 0 1.08038e-08
65 3 0.001 -0.00250996 0 -0.0151509 -3.31936e-11 0 -6.43e-11 0 1.32214e-08
63 3 0.001 -0.00182155 0 -0.0162091 3.18945e-11 0 -3.68504e-11 0 1.21499e-08
64 3 0.001 -0.0021744 0 -0.0156856 1.82907e-10 0 7.26164e-11 0 1.26727e-08
66 3 0.001 -0.00282655 0 -0.0146048 1.11962e-10 0 2.97487e-11 0 1.37873e-08
67 3 0.001 -0.00312248 0 -0.0140473 1.3307e-10 0 2.22632e-11 0 1.43607e-08
69 3 0.001 -0.00364587 0 -0.012899 2.86237e-10 0 8.45748e-11 0 1.54862e-08
68 3 0.001 -0.00339612 0 -0.0134786 -6.32754e-11 0 -6.5945e-11 0 1.49309e-08
70 3 0.001 -0.00387023 0 -0.0123092 -9.49608e-11 0 -5.87372e-11 0 1.60146e-08
71 3 0.001 -0.00406779 0 -0.0117099 8.80877e-11 0 1.73835e-11 0 1.65038e-08
72 3 0.001 -0.00423729 0 -0.0111021 2.69367e-10 0 3.52237e-11 0 1.6942e-08
74 3 0.001 -0.00448776 0 -0.00986568 2.40812e-10 0 2.82074e-11 0 1.76216e-08
73 3 0.001 -0.0043776 0 -0.0104869 -1.84685e-10 0 -5.31175e-11 0 1.73179e-08
75 3 0.001 -0.004567 0 -0.00923976 6.7068e-11 0 -3.44203e-13 0 1.78448e-08
76 3 0.001 -0.00461477 0 -0.00861067 1.67758e-11 0 -3.64367e-12 0 1.79814e-08
77 3 0.001 -0.00463074 0 -0.00797998 1.35798e-10 0 9.18551e-13 0 1.80273e-08
78 3 0.001 -0.00461478 0 -0.00734929 6.33033e-11 0 1.89723e-12 0 1.79814e-08
79 3 0.001 -0.00456701 0 -0.0067202 6.12064e-11 0 -3.18172e-12 0 1.78449e-08
80 3 0.001 -0.00448777 0 -0.00609428 1.0716e-10 0 1.81138e-12 0 1.76217e-08
81 3 0.001 -0.00437762 0 -0.00547304 5.05044e-11 0 -1.48703e-13 0 1.7318e-08
82 3 0.001 -0.00423731 0 -0.00485788 1.18463e-10 0 -6.12704e-12 0 1.69421e-08
83 3 0.001 -0.00406782 0 -0.00425009 1.53602e-12 0 2.22098e-11 0 1.6504e-08
84 3 0.001 -0.00387025 0 -0.0036508 1.71365e-10 0 -2.95981e-11 0 1.60147e-08
85 3 0.001 -0.0036459 0 -0.00306097 2.79987e-11 0 8.69319e-12 0 1.54864e-08
86 3 0.001 -0.00339615 0 -0.0024814 5.77928e-11 0 1.07378e-11 0 1.49311e-08
87 3 0.001 -0.00312252 0 -0.00191267 1.30154e-10 0 -2.20897e-11 0 1.43609e-08
88 3 0.001 -0.00282659 0 -0.00135516 6.63615e-11 0 2.92123e-13 0 1.37875e-08
89 3 0.001 -0.00251 0 -0.000809068 2.27558e-11 0 3.62705e-11 0 1.32216e-08
90 3 0.001 -0.00217444 0 -0.000274376 1.4379e-10 0 -5.05755e-11 0 1.26729e-08
91 3 0.001 -0.0018216 0 0.000249125 2.3247e-11 0 3.11676e-11 0 1.215e-08
92 3 0.001 -0.00145317 0 0.00076183 1.4513e-10 0 -5.28908e-11 0 1.16604e-08
93 3 0.001 -0.00107084 0 0.0012643 -1.43014e-11 0 7.07215e-11 0 1.121e-08
94 3 0.001 -0.000676274 0 0.00175728 1.45122e-10 0 -5.71181e-11 0 1.0804e-08
95 3 0.001 -0.000271111 0 0.00224162 1.7423e-11 0 4.69463e-11 0 1.04463e-08
96 3 0.001 0.00014305 0 0.00271833 1.42165e-10 0 -7.71888e-11 0 1.01398e-08
97 3 0.001 0.000564638 0 0.00318852 -2.27276e-11 0 7.85587e-11 0 9.88697e-09
98 3 0.001 0.000992114 0 0.00365339 9.81643e-11 0 -1.96104e-11 0 9.68929e-09
99 3 0.001 0.00142397 0 0.00411421 1.37726e-10 0 -5.62314e-11 0 9.5479e-09
100 3 0.001 0.00185871 0 0.00457233 -2.63434e-11 0 7.60481e-11 0 9.46351e-09
101 3 0.001 0.00229488 0 0.0050291 1.15489e-10 0 -5.30026e-11 0 9.4365e-09
102 3 0.001 0.002731 0 0.00548591 -1.56424e-11 0 7.21672e-11 0 9.467e-09
103 3 0.001 0.00316561 0 0.00594415 1.49174e-10 0 -8.31264e-11 0 9.55487e-09
104 3 0.001 0.00359725 0 0.00640519 3.19549e-11 0 3.48687e-11 0 9.69971e-09
105 3 0.001 0.00402441 0 0.00687034 -5.14075e-11 0 9.77702e-11 0 9.90078e-09
106 3 0.001 0.00444559 0 0.00734089 2.52997e-10 0 -1.73193e-10 0 1.0157e-08
107 3 0.001 0.00485925 0 0.00781804 -1.73806e-10 0 1.91036e-10 0 1.04666e-08
108 3 0.001 0.00526382 0 0.00830287 2.18852e-10 0 -1.35292e-10 0 1.08273e-08
109 3 0.001 0.00565769 0 0.0087964 -8.26749e-11 0 1.1491e-10 0 1.12362e-08
110 3 0.001 0.00603922 0 0.00929947 1.123e-10 0 -4.71732e-11 0 1.16891e-08
111 3 0.001 0.00640675 0 0.00981282 9.79097e-12 0 3.36129e-11 0 1.2181e-08
112 3 0.001 0.0067586 0 0.010337 6.64304e-11 0 -1.12389e-11 0 1.27056e-08
113 3 0.001 0.00709306 0 0.0108724 -2.8322e-11 0 4.96247e-11 0 1.32556e-08
114 3 0.001 0.00740844 0 0.0114192 8.93109e-11 0 -2.46491e-11 0 1.38223e-08
115 3 0.001 0.00770307 0 0.0119773 1.90807e-11 0 2.00509e-11 0 1.43958e-08
116 3 0.001 0.0079753 0 0.0125467 6.55881e-14 0 2.0452e-11 0 1.49654e-08
117 3 0.001 0.00822355 0 0.013127 9.78808e-12 0 2.09577e-11 0 1.55195e-08
118 3 0.001 0.00844632 0 0.0137174 1.34479e-10 0 -2.67545e-11 0 1.60459e-08
119 3 0.001 0.00864222 0 0.0143172 -1.43491e-10 0 6.71624e-11 0 1.65323e-08
120 3 0.001 0.00880998 0 0.0149255 1.64243e-10 0 -2.73385e-11 0 1.6967e-08
121 3 0.001 0.00894848 0 0.0155411 -6.514e-11 0 2.68441e-11 0 1.73388e-08
122 3 0.001 0.00905678 0 0.0161626 1.98125e-11 0 8.85222e-12 0 1.76236e-08
123 3 0.001 0.00913412 0 0.0167888 8.24901e-11 0 1.00017e-11 0 1.78024e-08
124 3 0.001 0.00917996 0 0.017418 -8.51566e-11 0 1.30144e-11 0 1.79213e-08
125 3 0.001 0.00919386 0 0.0180488 8.83877e-11 0 1.4422e-11 0 1.80572e-08
126 3 0.001 0.00917554 0 0.0186794 -1.6971e-11 0 8.05588e-12 0 1.82381e-08
127 3 0.001 0.00912481 0 0.0193082 -4.69401e-11 0 4.12483e-12 0 1.84242e-08
128 3 0.001 0.00904164 0 0.0199336 1.59262e-10 0 3.68669e-11 0 1.85277e-08
129 3 0.001 0.00892615 0 0.0205538 -1.87397e-10 0 -3.08043e-11 0 1.85046e-08
130 3 0.001 0.0087787 0 0.0211672 1.31729e-10 0 3.41232e-11 0 1.83735e-08
131 3 0.001 0.00859989 0 0.0217722 1.55242e-11 0 1.85132e-11 0 1.81478e-08
132 3 0.001 0.00839051 0 0.0223673 -1.17779e-10 0 -3.28461e-11 0 1.78342e-08
133 3 0.001 0.00815157 0 0.0229512 1.53316e-10 0 7.46735e-11 0 1.74413e-08
134 3 0.001 0.00788426 0 0.0235228 -1.18341e-10 0 -6.18298e-11 0 1.698e-08
137 3 0.001 0.00692608 0 0.0251539 2.20545e-10 0 1.5757e-10 0 1.53102e-08
135 3 0.001 0.00758992 0 0.0240809 1.21931e-10 0 7.88347e-11 0 1.64623e-08
136 3 0.001 0.00727 0 0.0246248 -1.68951e-10 0 -1e-10 0 1.59013e-08
138 3 0.001 0.0065598 0 0.0256679 -1.93526e-10 0 -1.36182e-10 0 1.47023e-08
139 3 0.001 0.00617285 0 0.0261665 1.07884e-10 0 8.56359e-11 0 1.40902e-08
140 3 0.001 0.00576693 0 0.0266498 5.39912e-12 0 1.29991e-11 0 1.34858e-08
141 3 0.001 0.00534377 0 0.0271182 -5.28491e-11 0 -4.28746e-11 0 1.28995e-08
142 3 0.001 0.00490504 0 0.0275722 2.66214e-11 0 2.9245e-11 0 1.23408e-08
143 3 0.001 0.00445242 0 0.0280123 6.03164e-11 0 6.58042e-11 0 1.18175e-08
145 3 0.001 0.00351192 0 0.0288549 7.05012e-11 0 1.0044e-10 0 1.09026e-08
146 3 0.001 0.00302711 0 0.0292594 -6.72815e-11 0 -8.11509e-11 0 1.05203e-08
147 3 0.001 0.00253453 0 0.0296546 1.15747e-10 0 1.44133e-10 0 1.01928e-08
144 3 0.001 0.00398753 0 0.0284395 -8.89373e-11 0 -1.07613e-10 0 1.13364e-08
151 3 0.001 0.000513178 0 0.0311707 9.79786e-12 0 2.42305e-11 0 3.50778e-09
148 3 0.001 0.00203559 0 0.0300417 -1.26761e-10 0 -1.69745e-10 0 9.92235e-09
149 3 0.001 0.00153163 0 0.0304223 1.06698e-10 0 1.51534e-10 0 9.5248e-09
150 3 0.001 0.0010239 0 0.030798 -5.6101e-11 0 -8.18692e-11 0 6.39652e-09
2 2 0.001 0 0 0.03154 -0.0024922 0 0.0147903 0 1.73526e-09
