ITEM: TIMESTEP
9600000
ITEM: NUMBER OF ATOMS
151
ITEM: BOX BOUNDS ff ff ff
-1.0000000000000000e-02 1.0000000000000000e-02
-6.0000000000000001e-03 6.0000000000000001e-03
-5.2499999999999998e-02 5.2499999999999998e-02
ITEM: ATOMS id type radius x y z fx fy fz c_bendingE c_stretchingE
3 3 0.001 0.000461416 0.000317182 -0.0472071 -3.13822e-11 4.11657e-11 5.5423e-12 0 6.12723e-09
1 1 0.001 0 0 -0.0475 -0.00580275 -0.00172802 -0.0165593 0 3.04727e-09
4 3 0.001 0.000922127 0.000633432 -0.046912 2.21145e-11 -3.0278e-11 -2.46173e-12 0 9.73481e-09
5 3 0.001 0.00138093 0.000947483 -0.0466132 -2.12539e-11 2.7041e-11 2.4826e-12 0 1.36802e-08
6 3 0.001 0.00183753 0.00125868 -0.0463081 4.36129e-11 -5.49209e-11 -9.22582e-12 0 1.42421e-08
7 3 0.001 0.00229114 0.00156607 -0.0459949 -5.62991e-11 6.59038e-11 1.58905e-11 0 1.46703e-08
8 3 0.001 0.0027409 0.00186862 -0.0456716 4.63563e-11 -5.32575e-11 -1.50408e-11 0 1.51872e-08
9 3 0.001 0.00318587 0.00216527 -0.0453366 -4.01815e-11 4.55288e-11 1.13977e-11 0 1.57876e-08
10 3 0.001 0.00362504 0.00245492 -0.0449881 3.18244e-11 -4.56651e-11 -3.0471e-12 0 1.64651e-08
11 3 0.001 0.00405729 0.00273643 -0.0446248 -4.32156e-11 5.75205e-11 3.7042e-12 0 1.72108e-08
12 3 0.001 0.00448144 0.00300863 -0.0442452 6.54208e-11 -8.432e-11 -1.18043e-11 0 1.80138e-08
13 3 0.001 0.0048962 0.00327028 -0.0438483 -1.03734e-10 1.22818e-10 2.68714e-11 0 1.88608e-08
14 3 0.001 0.00530022 0.00352018 -0.0434333 1.10787e-10 -1.37879e-10 -2.63024e-11 0 1.9736e-08
15 3 0.001 0.00569208 0.00375706 -0.0429995 -1.13932e-10 1.38976e-10 2.57672e-11 0 2.06212e-08
16 3 0.001 0.00607032 0.00397969 -0.0425466 9.70625e-11 -1.30512e-10 -1.83522e-11 0 2.14964e-08
17 3 0.001 0.00643342 0.00418686 -0.0420744 -6.83271e-11 9.58373e-11 1.08662e-11 0 2.23399e-08
18 3 0.001 0.0067799 0.0043774 -0.0415832 2.24642e-11 -5.6938e-11 5.31838e-12 0 2.31295e-08
19 3 0.001 0.00710827 0.00455022 -0.0410734 -1.78566e-11 4.01956e-11 -1.74547e-12 0 2.38429e-08
20 3 0.001 0.00741711 0.0047043 -0.0405457 2.63601e-12 -1.24549e-11 2.37132e-12 0 2.44588e-08
21 3 0.001 0.00770508 0.00483874 -0.0400012 -5.91107e-12 -1.83566e-11 6.73149e-12 0 2.49582e-08
22 3 0.001 0.00797095 0.00495278 -0.039441 -1.10505e-11 3.62453e-11 -8.28028e-13 0 2.5325e-08
23 3 0.001 0.00821365 0.00504581 -0.0388667 1.55854e-11 -4.82451e-11 1.84523e-12 0 2.55356e-08
24 3 0.001 0.00843225 0.00511739 -0.0382797 -5.27491e-11 7.00132e-11 1.19847e-11 0 2.55646e-08
25 3 0.001 0.00862604 0.00516721 -0.0376819 6.14833e-11 -8.82705e-11 -1.11369e-11 0 2.54373e-08
26 3 0.001 0.00879453 0.00519514 -0.037075 -7.81053e-11 8.07153e-11 1.90251e-11 0 2.52208e-08
27 3 0.001 0.00893742 0.00520109 -0.036461 4.44736e-11 -4.77539e-11 -7.37104e-12 0 2.49666e-08
28 3 0.001 0.00905464 0.00518508 -0.0358417 -2.75683e-11 1.32655e-11 7.49707e-12 0 2.46731e-08
29 3 0.001 0.00914638 0.00514717 -0.0352191 -2.3993e-11 1.8754e-11 6.54966e-12 0 2.42845e-08
30 3 0.001 0.00921298 0.00508749 -0.0345949 2.09511e-11 -2.64583e-11 -2.69481e-12 0 2.37882e-08
31 3 0.001 0.00925496 0.00500625 -0.0339711 -2.73724e-11 6.30129e-12 5.00816e-12 0 2.32391e-08
32 3 0.001 0.00927288 0.00490382 -0.0333491 5.47721e-12 4.56862e-12 4.17045e-12 0 2.27246e-08
33 3 0.001 0.00926731 0.00478067 -0.0327307 -4.63587e-11 2.40454e-11 6.51223e-12 0 2.23065e-08
34 3 0.001 0.00923885 0.00463745 -0.0321172 3.76626e-11 -4.51298e-11 -6.55843e-12 0 2.19725e-08
36 3 0.001 0.00911538 0.00429398 -0.0309102 -1.56178e-11 -4.72471e-12 -3.60048e-13 0 2.13154e-08
37 3 0.001 0.0090215 0.0040956 -0.0303189 1.11066e-11 -2.00741e-12 3.30882e-12 0 2.08494e-08
35 3 0.001 0.00918802 0.00447493 -0.03151 -3.53763e-11 3.31492e-11 7.81664e-12 0 2.1668e-08
38 3 0.001 0.00890705 0.00388087 -0.029737 -2.29407e-11 -8.235e-13 -4.53942e-12 0 2.02864e-08
39 3 0.001 0.0087728 0.00365096 -0.0291652 -1.92865e-11 2.17492e-11 4.47963e-12 0 1.96785e-08
40 3 0.001 0.00861964 0.00340708 -0.0286039 2.23776e-11 -2.14929e-11 -3.21984e-12 0 1.90447e-08
42 3 0.001 0.00826052 0.00288244 -0.0275143 -4.85411e-11 7.33283e-11 1.67086e-11 0 1.77572e-08
41 3 0.001 0.00844853 0.00315049 -0.0280536 -6.61148e-12 -1.30657e-11 -8.70059e-12 0 1.83997e-08
45 3 0.001 0.00760636 0.00202238 -0.0259609 6.51597e-11 -7.04682e-11 -1.79696e-11 0 1.59665e-08
44 3 0.001 0.00783828 0.00231713 -0.0264683 -7.91329e-11 1.0775e-10 1.98741e-11 0 1.65297e-08
43 3 0.001 0.00805672 0.00260423 -0.026986 7.49934e-11 -1.00046e-10 -2.75182e-11 0 1.713e-08
47 3 0.001 0.00710691 0.0014148 -0.0249738 6.43629e-11 -5.89391e-11 -1.5106e-11 0 1.49843e-08
48 3 0.001 0.0068418 0.00110432 -0.0244926 -4.72235e-11 9.30243e-11 1.96949e-11 0 1.45787e-08
46 3 0.001 0.00736217 0.0017212 -0.025463 -3.5002e-11 4.7045e-11 2.40748e-12 0 1.54489e-08
52 3 0.001 0.00570697 -0.000156536 -0.0226229 3.47845e-11 8.49506e-11 5.68884e-11 0 1.36247e-08
51 3 0.001 0.00599942 0.000159422 -0.0230845 2.88133e-11 -9.87796e-11 -7.06151e-11 0 1.37572e-08
50 3 0.001 0.00628684 0.000475566 -0.0235491 3.81121e-12 1.00464e-10 5.12967e-11 0 1.39619e-08
49 3 0.001 0.00656804 0.000790881 -0.024018 5.52549e-11 -9.13843e-11 -4.46621e-11 0 1.42366e-08
55 3 0.001 0.00481181 -0.0010938 -0.0212423 7.16872e-12 -1.75947e-11 -3.77853e-11 0 1.3661e-08
54 3 0.001 0.00511197 -0.000784076 -0.0217032 7.63677e-11 1.50794e-11 3.2092e-11 0 1.3577e-08
53 3 0.001 0.00541074 -0.000471339 -0.0221629 3.98309e-12 -4.01211e-11 -5.15103e-11 0 1.3565e-08
57 3 0.001 0.00421206 -0.00170015 -0.0203116 4.46311e-11 -2.257e-11 -1.98997e-11 0 1.40464e-08
58 3 0.001 0.00391496 -0.00199483 -0.0198391 5.36515e-11 3.83724e-12 1.71692e-12 0 1.43441e-08
56 3 0.001 0.00451143 -0.00139949 -0.0207789 4.99344e-11 3.64376e-11 2.3508e-11 0 1.38179e-08
61 3 0.001 0.00305018 -0.00283309 -0.0183785 6.01199e-11 6.97915e-12 9.75268e-13 0 1.56175e-08
60 3 0.001 0.00333269 -0.00256229 -0.0188736 7.35946e-11 -2.90768e-11 -8.94125e-12 0 1.51342e-08
59 3 0.001 0.0036214 -0.00228253 -0.0193601 4.2525e-11 1.64964e-11 7.20413e-13 0 1.47081e-08
62 3 0.001 0.00277522 -0.00309394 -0.017874 2.14793e-11 4.66812e-11 -8.16293e-13 0 1.61516e-08
63 3 0.001 0.00250918 -0.00334383 -0.0173592 1.16226e-10 -6.0843e-11 -5.55425e-12 0 1.67287e-08
64 3 0.001 0.00225347 -0.00358174 -0.0168338 5.99454e-11 1.01892e-11 5.66568e-13 0 1.73396e-08
66 3 0.001 0.00177861 -0.00401766 -0.0157493 1.30506e-10 -7.09496e-11 -4.41982e-12 0 1.86194e-08
67 3 0.001 0.00156224 -0.00421372 -0.0151901 4.84076e-11 2.68999e-11 -1.45134e-12 0 1.9263e-08
65 3 0.001 0.00200948 -0.00380668 -0.0162972 3.01602e-11 5.34015e-11 1.86565e-12 0 1.79739e-08
69 3 0.001 0.00117832 -0.00455745 -0.0140389 1.2577e-10 -5.72492e-11 -2.15747e-12 0 2.04874e-08
68 3 0.001 0.00136172 -0.00439394 -0.0146198 6.23564e-11 2.92629e-11 3.32951e-12 0 1.98905e-08
70 3 0.001 0.00101327 -0.00470348 -0.0134479 4.11198e-11 3.79048e-11 -1.99569e-12 0 2.10389e-08
71 3 0.001 0.000867715 -0.00483132 -0.0128477 9.94493e-11 -1.92807e-13 4.19789e-12 0 2.15306e-08
72 3 0.001 0.000742671 -0.00494036 -0.0122393 8.76799e-11 -2.17036e-11 -3.44595e-12 0 2.19492e-08
73 3 0.001 0.000639042 -0.00503012 -0.0116237 9.1765e-11 1.41947e-12 1.30604e-12 0 2.22775e-08
74 3 0.001 0.000557589 -0.00510024 -0.0110024 6.88617e-11 2.79038e-11 6.16156e-13 0 2.24883e-08
75 3 0.001 0.000498915 -0.00515048 -0.0103765 1.06038e-10 -4.36314e-11 -1.13924e-12 0 2.25874e-08
76 3 0.001 0.000463459 -0.00518073 -0.00974762 7.96199e-11 2.78851e-11 9.01687e-13 0 2.26207e-08
77 3 0.001 0.000451487 -0.0051909 -0.00911722 7.7757e-11 1.28866e-11 6.30447e-15 0 2.26275e-08
78 3 0.001 0.000463091 -0.00518098 -0.0084868 1.26666e-10 -6.26809e-11 6.44006e-13 0 2.26226e-08
79 3 0.001 0.000498182 -0.005151 -0.00785789 3.34945e-11 7.81391e-11 -8.19393e-13 0 2.25916e-08
80 3 0.001 0.000556498 -0.005101 -0.00723198 1.2805e-10 -5.46128e-11 8.23015e-14 0 2.24953e-08
81 3 0.001 0.000637602 -0.00503113 -0.00661052 7.30742e-11 8.42978e-12 1.34131e-12 0 2.22877e-08
82 3 0.001 0.000740895 -0.00494161 -0.00599488 6.42022e-11 3.66197e-11 -1.81293e-12 0 2.19624e-08
83 3 0.001 0.000865619 -0.00483281 -0.00538633 1.25961e-10 -5.6807e-11 1.52594e-12 0 2.15461e-08
84 3 0.001 0.00101087 -0.0047052 -0.00478602 5.29142e-11 2.91125e-11 1.4179e-12 0 2.10564e-08
85 3 0.001 0.00117563 -0.00455938 -0.00419493 6.80346e-11 1.85817e-11 -8.82864e-13 0 2.05067e-08
86 3 0.001 0.00135877 -0.00439606 -0.00361386 1.06186e-10 -3.04342e-11 -1.87538e-13 0 1.99111e-08
87 3 0.001 0.00155906 -0.00421603 -0.00304345 6.54327e-11 4.90333e-12 3.12536e-12 0 1.92846e-08
88 3 0.001 0.00177521 -0.00402015 -0.00248411 6.39985e-11 1.28861e-11 4.44981e-13 0 1.86416e-08
89 3 0.001 0.00200589 -0.00380933 -0.00193608 7.63704e-11 7.5101e-13 -2.00272e-12 0 1.79965e-08
90 3 0.001 0.00224971 -0.00358453 -0.00139935 6.28693e-11 -4.94486e-12 6.57399e-12 0 1.73623e-08
91 3 0.001 0.00250527 -0.00334673 -0.000873752 7.20411e-11 -3.30816e-13 -6.9473e-13 0 1.67512e-08
92 3 0.001 0.00277119 -0.00309695 -0.000358909 4.56596e-11 1.57898e-11 3.23835e-12 0 1.61737e-08
93 3 0.001 0.00304606 -0.00283619 0.000145737 7.8013e-11 -1.92508e-11 2.31116e-12 0 1.56391e-08
94 3 0.001 0.0033285 -0.00256547 0.000640911 5.17967e-11 5.47289e-12 2.40343e-12 0 1.51552e-08
95 3 0.001 0.00361716 -0.00228578 0.00112749 2.70371e-11 2.88589e-11 1.55148e-12 0 1.47283e-08
96 3 0.001 0.00391069 -0.00199812 0.00160648 5.76088e-11 -1.72105e-11 9.96709e-12 0 1.43636e-08
97 3 0.001 0.00420779 -0.00170348 0.00207902 7.12974e-11 -9.01918e-12 -5.06843e-12 0 1.40651e-08
98 3 0.001 0.00450718 -0.00140283 0.00254633 -4.35623e-12 4.64516e-11 4.93415e-12 0 1.38359e-08
99 3 0.001 0.00480759 -0.00109715 0.00300972 5.59325e-11 -4.76803e-11 2.52221e-11 0 1.36784e-08
100 3 0.001 0.0051078 -0.000787419 0.00347055 5.08296e-11 3.38577e-11 -2.77209e-11 0 1.35937e-08
101 3 0.001 0.00540665 -0.000474661 0.00393024 -6.84195e-12 1.63334e-11 1.97378e-11 0 1.35813e-08
102 3 0.001 0.00570296 -0.000159826 0.00439014 6.15809e-11 -4.6431e-11 1.6759e-11 0 1.36406e-08
103 3 0.001 0.00599552 0.000156177 0.00485163 -1.08438e-11 6.28261e-11 -1.38884e-11 0 1.37729e-08
104 3 0.001 0.00628308 0.000472377 0.00531611 3.99317e-11 -2.63995e-11 1.24019e-11 0 1.39775e-08
105 3 0.001 0.00656442 0.000787761 0.0057849 3.51572e-12 9.35941e-12 8.63975e-12 0 1.42523e-08
106 3 0.001 0.00683834 0.00110128 0.00625927 1.35283e-12 2.24627e-11 -1.90445e-12 0 1.45947e-08
107 3 0.001 0.00710363 0.00141185 0.0067404 4.99811e-11 -3.79551e-11 1.06277e-11 0 1.50009e-08
108 3 0.001 0.00735908 0.00171836 0.00722935 -4.21403e-11 5.2758e-11 -1.20579e-12 0 1.54662e-08
109 3 0.001 0.00760347 0.00201965 0.00772708 2.87175e-11 -2.93532e-11 1.08594e-11 0 1.59847e-08
110 3 0.001 0.00783561 0.00231453 0.00823436 -1.55836e-11 3.79065e-11 -8.13073e-12 0 1.65492e-08
111 3 0.001 0.0080543 0.00260178 0.00875186 2.8195e-11 -4.75749e-11 1.89295e-11 0 1.71509e-08
112 3 0.001 0.00825834 0.00288013 0.00928002 -4.59597e-11 6.16662e-11 -1.17995e-11 0 1.77798e-08
113 3 0.001 0.00844661 0.00314834 0.00981914 3.77008e-12 -8.56038e-12 3.93956e-12 0 1.84242e-08
114 3 0.001 0.00861798 0.0034051 0.0103693 4.78103e-11 -6.34739e-11 1.55532e-11 0 1.90714e-08
115 3 0.001 0.00877142 0.00364916 0.0109304 -8.52286e-11 9.63339e-11 -1.8685e-11 0 1.97075e-08
116 3 0.001 0.00890595 0.00387926 0.011502 1.74087e-11 -3.60355e-11 9.19209e-12 0 2.03179e-08
117 3 0.001 0.00902069 0.00409417 0.0120838 1.9195e-11 -2.05322e-11 2.84047e-12 0 2.08837e-08
118 3 0.001 0.00911485 0.00429275 0.012675 -6.14599e-11 5.29303e-11 -1.03871e-11 0 2.13526e-08
119 3 0.001 0.00918779 0.00447389 0.0132747 4.19222e-11 -5.52817e-11 9.40183e-12 0 2.17074e-08
120 3 0.001 0.0092389 0.00463662 0.0138818 -4.8702e-11 4.17129e-11 -1.0043e-11 0 2.20132e-08
121 3 0.001 0.00926766 0.00478003 0.0144952 -3.69856e-12 -3.75509e-12 -1.19738e-12 0 2.23481e-08
122 3 0.001 0.00927351 0.00490337 0.0151136 7.59478e-12 -1.11189e-11 1.46104e-13 0 2.27673e-08
123 3 0.001 0.00925587 0.005006 0.0157356 -2.69861e-11 1.04919e-11 -5.07583e-12 0 2.32837e-08
124 3 0.001 0.00921417 0.00508742 0.0163594 1.80699e-12 -1.017e-11 -9.1488e-13 0 2.3836e-08
125 3 0.001 0.00914784 0.00514728 0.0169836 -1.48869e-11 1.46668e-11 -5.17057e-12 0 2.43369e-08
126 3 0.001 0.00905636 0.00518537 0.0176062 -2.72486e-12 -6.39e-12 -1.52153e-12 0 2.47309e-08
127 3 0.001 0.00893937 0.00520154 0.0182255 -5.69542e-12 -1.20928e-11 -2.44863e-12 0 2.50293e-08
128 3 0.001 0.00879671 0.00519574 0.0188396 -2.41557e-11 3.91658e-11 -7.17599e-12 0 2.52877e-08
130 3 0.001 0.00843479 0.00511826 0.0200444 -1.64566e-11 2.11007e-11 -4.43031e-12 0 2.56408e-08
131 3 0.001 0.00821632 0.0050468 0.0206315 1.7899e-12 -6.56347e-12 -2.61371e-13 0 2.56163e-08
129 3 0.001 0.00862842 0.00516795 0.0194465 1.70635e-11 -4.46737e-11 9.78958e-13 0 2.55087e-08
132 3 0.001 0.00797373 0.00495387 0.0212059 -2.47922e-11 1.77627e-11 -7.82996e-12 0 2.54093e-08
133 3 0.001 0.00770793 0.0048399 0.0217661 9.68616e-12 -9.4442e-12 2.71966e-12 0 2.50446e-08
136 3 0.001 0.00678275 0.00437869 0.0233481 -1.33299e-11 2.42331e-11 1.21913e-13 0 2.32165e-08
134 3 0.001 0.00742 0.00470552 0.0223106 8.69784e-12 -2.16457e-11 -1.27224e-12 0 2.45464e-08
135 3 0.001 0.00711116 0.00455149 0.0228383 -2.08736e-11 1.91076e-11 -7.16379e-12 0 2.39306e-08
137 3 0.001 0.00643621 0.00418815 0.0238392 2.71049e-11 -4.91108e-11 8.85153e-13 0 2.24253e-08
138 3 0.001 0.00607302 0.00398097 0.0243113 -3.10276e-11 3.90946e-11 -6.41523e-12 0 2.15794e-08
139 3 0.001 0.00569467 0.0037583 0.0247641 1.80123e-11 -1.91563e-11 7.79227e-12 0 2.07014e-08
143 3 0.001 0.00405922 0.00273741 0.0263885 3.23134e-12 -7.0242e-12 -3.10897e-13 0 1.72771e-08
140 3 0.001 0.00530267 0.00352137 0.0251978 -1.4658e-11 1.5262e-12 -1.23698e-11 0 1.9813e-08
141 3 0.001 0.00489849 0.00327142 0.0256126 5.07422e-12 4.83434e-12 9.05302e-12 0 1.89343e-08
142 3 0.001 0.00448355 0.00300969 0.0260092 -1.33406e-11 8.83358e-12 -7.14382e-12 0 1.80837e-08
148 3 0.001 0.00183842 0.00125915 0.02807 -6.80233e-12 4.70328e-12 -4.61673e-12 0 1.42942e-08
147 3 0.001 0.00229225 0.00156664 0.0277572 2.69608e-11 -4.20682e-11 -5.14251e-13 0 1.47245e-08
144 3 0.001 0.00362677 0.00245581 0.0267516 7.26612e-12 -6.70965e-12 4.89157e-12 0 1.65279e-08
145 3 0.001 0.00318741 0.00216606 0.0270997 8.75839e-12 -1.99699e-11 -4.91359e-12 0 1.58472e-08
146 3 0.001 0.00274222 0.0018693 0.0274344 -3.76116e-11 5.76697e-11 1.61927e-12 0 1.52439e-08
151 3 0.001 0.000461639 0.000317299 0.0289676 3.38791e-11 -4.21626e-11 8.163e-12 0 6.16015e-09
2 2 0.001 0 0 0.02926 -0.00582265 -0.00173973 0.0165879 0 3.06368e-09
149 3 0.001 0.0013816 0.000947832 0.0283746 3.75029e-12 8.49446e-13 8.38105e-12 0 1.37303e-08
150 3 0.001 0.000922572 0.000633666 0.028673 -2.5101e-11 2.86527e-11 -9.77653e-12 0 9.77584e-09
