ITEM: TIMESTEP
3500000
ITEM: NUMBER OF ATOMS
151
ITEM: BOX BOUNDS ff ff ff
-1.0000000000000000e-02 1.0000000000000000e-02
-6.0000000000000001e-03 6.0000000000000001e-03
-5.2499999999999998e-02 5.2499999999999998e-02
ITEM: ATOMS id type radius x y z fx fy fz c_bendingE c_stretchingE
3 3 0.001 0.000386915 0.000215623 -0.0470497 -4.15872e-11 1.03131e-10 -1.88878e-11 0 8.5372e-09
1 1 0.001 0 0 -0.0475 -0.00513576 -0.00286169 -0.0143589 0 4.26408e-09
4 3 0.001 0.000773107 0.000430843 -0.0465985 1.68075e-11 -1.51001e-10 4.44085e-11 0 1.25589e-08
5 3 0.001 0.00115745 0.000645033 -0.0461463 6.12699e-12 6.57418e-11 -5.70024e-11 0 1.68634e-08
6 3 0.001 0.0015396 0.000857999 -0.0456916 -8.34732e-11 4.53732e-11 1.97058e-11 0 1.72043e-08
7 3 0.001 0.00191885 0.00106935 -0.0452338 -4.04571e-11 -1.92884e-11 8.38794e-12 0 1.73131e-08
8 3 0.001 0.00229448 0.00127868 -0.0447721 -1.5916e-11 2.37464e-11 -3.60812e-11 0 1.74425e-08
9 3 0.001 0.00266575 0.00148559 -0.0443058 -1.15002e-10 5.0309e-11 2.71912e-11 0 1.75902e-08
10 3 0.001 0.00303194 0.00168966 -0.0438343 7.17282e-11 -1.69364e-10 -2.75135e-11 0 1.77539e-08
11 3 0.001 0.00339233 0.00189049 -0.043357 -2.35094e-10 2.68296e-10 1.56359e-11 0 1.79306e-08
12 3 0.001 0.00374618 0.00208769 -0.0428733 4.10652e-11 -1.61406e-10 -1.78719e-11 0 1.81173e-08
13 3 0.001 0.00409279 0.00228085 -0.0423828 -1.07863e-10 5.05422e-11 2.26852e-12 0 1.83105e-08
14 3 0.001 0.00443145 0.00246957 -0.0418852 -1.20319e-10 6.86917e-11 7.09653e-13 0 1.85068e-08
15 3 0.001 0.00476147 0.00265348 -0.0413799 -4.86358e-11 -4.02955e-11 -4.12938e-12 0 1.87023e-08
16 3 0.001 0.00508217 0.0028322 -0.0408669 -1.40088e-10 7.67731e-11 1.09237e-11 0 1.88933e-08
17 3 0.001 0.00539292 0.00300536 -0.040346 -4.49394e-11 -1.3748e-10 1.90554e-11 0 1.90761e-08
18 3 0.001 0.00569308 0.00317263 -0.039817 -2.34071e-10 3.1345e-10 -1.66244e-11 0 1.92468e-08
19 3 0.001 0.00598208 0.00333368 -0.0392799 4.66974e-11 -3.11471e-10 2.09252e-11 0 1.9402e-08
20 3 0.001 0.00625938 0.0034882 -0.0387348 -2.70755e-10 2.31366e-10 2.93275e-11 0 1.95384e-08
21 3 0.001 0.00652448 0.00363593 -0.0381818 -4.8338e-11 -3.61887e-11 -4.21676e-12 0 1.96531e-08
22 3 0.001 0.00677695 0.00377661 -0.0376211 -9.20613e-11 -1.12006e-10 3.30261e-11 0 1.97436e-08
23 3 0.001 0.0070164 0.00391004 -0.037053 -2.71809e-10 2.67568e-10 1.7328e-11 0 1.9808e-08
24 3 0.001 0.00724252 0.00403604 -0.0364778 -1.19018e-11 -2.62239e-10 2.94848e-11 0 1.98448e-08
25 3 0.001 0.00745507 0.00415447 -0.0358958 -2.32369e-10 1.90549e-10 2.11088e-11 0 1.98532e-08
26 3 0.001 0.00765387 0.00426525 -0.0353076 -7.94955e-11 -1.08985e-10 2.91008e-11 0 1.98331e-08
27 3 0.001 0.00783883 0.0043683 -0.0347134 -2.26337e-10 1.43929e-10 2.87119e-11 0 1.97849e-08
28 3 0.001 0.00800994 0.00446364 -0.0341138 -8.61478e-11 -1.88057e-10 3.74107e-11 0 1.97096e-08
29 3 0.001 0.00816725 0.00455128 -0.0335092 -1.73635e-10 8.50029e-11 1.96798e-11 0 1.9609e-08
30 3 0.001 0.00831091 0.00463132 -0.0329003 -2.11094e-10 3.97925e-11 3.60939e-11 0 1.94852e-08
31 3 0.001 0.00844115 0.00470388 -0.0322873 -1.19059e-10 -3.78429e-11 2.62305e-11 0 1.93408e-08
32 3 0.001 0.00855829 0.00476913 -0.0316709 -1.11687e-10 -9.11667e-11 2.9459e-11 0 1.91791e-08
33 3 0.001 0.00866269 0.00482729 -0.0310515 -2.37617e-10 3.86602e-11 3.26224e-11 0 1.90032e-08
34 3 0.001 0.00875482 0.00487861 -0.0304296 -1.37439e-10 3.99762e-11 1.90987e-11 0 1.88169e-08
35 3 0.001 0.00883521 0.00492338 -0.0298055 -1.19419e-10 -1.06335e-10 2.71961e-11 0 1.86239e-08
36 3 0.001 0.00890445 0.00496194 -0.0291796 -1.53913e-10 -8.18626e-12 2.24098e-11 0 1.8428e-08
37 3 0.001 0.0089632 0.00499465 -0.0285523 -1.81749e-10 5.50444e-11 1.9528e-11 0 1.8233e-08
38 3 0.001 0.00901219 0.00502192 -0.0279239 -7.53742e-11 -1.56432e-10 1.78101e-11 0 1.80408e-08
39 3 0.001 0.00905218 0.00504417 -0.0272947 -1.59077e-10 8.1659e-11 1.50893e-11 0 1.78496e-08
40 3 0.001 0.00908397 0.00506186 -0.0266648 -1.09794e-10 -6.37039e-11 1.78849e-11 0 1.76623e-08
41 3 0.001 0.00910843 0.00507544 -0.0260345 -8.36561e-11 -8.20214e-11 1.37426e-11 0 1.74888e-08
42 3 0.001 0.00912637 0.00508537 -0.0254039 -1.57607e-10 1.50476e-10 9.9812e-12 0 1.73372e-08
43 3 0.001 0.00913864 0.00509211 -0.0247731 -7.51088e-12 -2.36207e-10 1.12633e-11 0 1.72122e-08
44 3 0.001 0.00914601 0.00509607 -0.0241422 -1.28259e-10 1.09506e-10 1.06531e-11 0 1.71149e-08
45 3 0.001 0.00914922 0.00509767 -0.0235113 -5.93716e-11 -2.26947e-11 1.16239e-11 0 1.70437e-08
46 3 0.001 0.00914897 0.00509728 -0.0228803 -1.97839e-11 -9.65568e-11 9.21404e-12 0 1.69955e-08
47 3 0.001 0.00914585 0.00509523 -0.0222494 -4.89684e-11 -3.40642e-11 8.57631e-12 0 1.69661e-08
48 3 0.001 0.00914042 0.00509182 -0.0216184 -1.61597e-10 2.0396e-10 8.69899e-12 0 1.69513e-08
49 3 0.001 0.00913316 0.00508734 -0.0209875 1.69639e-10 -3.81375e-10 1.03354e-11 0 1.69472e-08
50 3 0.001 0.00912447 0.005082 -0.0203566 -2.38135e-10 2.97822e-10 9.95638e-12 0 1.69503e-08
51 3 0.001 0.00911473 0.00507601 -0.0197258 1.01775e-10 -2.14313e-10 8.39227e-12 0 1.69577e-08
52 3 0.001 0.00910421 0.00506954 -0.0190949 -4.98341e-11 3.67278e-11 7.70921e-12 0 1.69674e-08
53 3 0.001 0.00909316 0.00506275 -0.0184641 -8.51545e-11 1.03163e-11 8.5522e-12 0 1.69777e-08
54 3 0.001 0.00908179 0.00505573 -0.0178333 3.87703e-11 -8.31526e-11 1.07792e-11 0 1.69875e-08
55 3 0.001 0.00907026 0.00504861 -0.0172024 -2.90126e-11 -1.00221e-10 9.98285e-12 0 1.69963e-08
56 3 0.001 0.0090587 0.00504146 -0.0165716 -4.04649e-11 1.02287e-10 8.73912e-12 0 1.70036e-08
57 3 0.001 0.0090472 0.00503434 -0.0159408 -1.02776e-10 -8.34303e-11 5.74858e-12 0 1.70094e-08
58 3 0.001 0.00903585 0.00502731 -0.01531 8.89902e-11 -1.23155e-10 9.10392e-12 0 1.70138e-08
59 3 0.001 0.00902472 0.00502041 -0.0146792 -9.06724e-11 2.50814e-11 1.02849e-11 0 1.70169e-08
60 3 0.001 0.00901387 0.00501368 -0.0140483 -5.64625e-11 -8.21201e-11 9.24238e-12 0 1.7019e-08
61 3 0.001 0.00900335 0.00500715 -0.0134175 -1.58787e-11 -5.73776e-11 8.45523e-12 0 1.70203e-08
62 3 0.001 0.00899321 0.00500086 -0.0127866 -1.92295e-11 -1.20023e-10 7.17082e-12 0 1.70213e-08
63 3 0.001 0.00898349 0.00499483 -0.0121558 -1.47824e-10 3.9511e-11 6.85901e-12 0 1.70223e-08
64 3 0.001 0.00897423 0.00498909 -0.0115249 5.11325e-11 -1.41255e-10 9.36536e-12 0 1.70232e-08
65 3 0.001 0.00896548 0.00498366 -0.010894 -8.05143e-11 -1.14079e-10 9.01117e-12 0 1.70242e-08
66 3 0.001 0.00895727 0.00497857 -0.0102631 -1.06536e-10 2.55098e-11 8.80051e-12 0 1.70252e-08
67 3 0.001 0.00894965 0.00497384 -0.00963223 2.33059e-11 -1.93453e-10 7.61438e-12 0 1.70262e-08
68 3 0.001 0.00894265 0.00496949 -0.00900132 -1.44106e-10 -4.84119e-11 6.82576e-12 0 1.70272e-08
69 3 0.001 0.00893629 0.00496555 -0.0083704 -1.90274e-12 -1.03542e-10 8.57867e-12 0 1.70281e-08
70 3 0.001 0.00893061 0.00496203 -0.00773947 -1.0205e-10 -7.75102e-11 8.05495e-12 0 1.7029e-08
71 3 0.001 0.00892563 0.00495894 -0.00710853 -8.4444e-11 -7.44974e-11 8.2136e-12 0 1.70299e-08
72 3 0.001 0.00892138 0.0049563 -0.00647759 1.773e-11 -2.03739e-10 8.3399e-12 0 1.70307e-08
73 3 0.001 0.00891787 0.00495412 -0.00584664 -2.1311e-10 5.18216e-11 8.44396e-12 0 1.70315e-08
74 3 0.001 0.00891512 0.00495242 -0.00521569 4.51527e-11 -2.05097e-10 8.05656e-12 0 1.70322e-08
75 3 0.001 0.00891314 0.00495119 -0.00458473 -7.55675e-11 -1.95969e-10 7.94942e-12 0 1.70328e-08
76 3 0.001 0.00891195 0.00495045 -0.00395377 -1.80339e-10 1.55547e-10 8.13855e-12 0 1.70333e-08
77 3 0.001 0.00891153 0.00495019 -0.0033228 4.00639e-11 -3.41582e-10 8.10976e-12 0 1.70338e-08
78 3 0.001 0.00891191 0.00495043 -0.00269184 -1.35727e-10 -3.59839e-11 9.22036e-12 0 1.70343e-08
79 3 0.001 0.00891307 0.00495115 -0.00206088 -6.6708e-11 -2.78974e-11 8.49755e-12 0 1.70346e-08
80 3 0.001 0.00891502 0.00495235 -0.00142992 -3.16972e-11 -2.53996e-10 8.22322e-12 0 1.70349e-08
81 3 0.001 0.00891773 0.00495404 -0.000798966 -1.64343e-10 4.41385e-11 8.01046e-12 0 1.70351e-08
82 3 0.001 0.00892121 0.00495619 -0.000168016 -1.15975e-11 -1.4225e-10 8.54524e-12 0 1.70352e-08
83 3 0.001 0.00892543 0.00495881 0.000462927 -1.05316e-11 -2.26625e-10 8.72119e-12 0 1.70353e-08
84 3 0.001 0.00893038 0.00496188 0.00109386 -1.56134e-10 1.19744e-11 9.89755e-12 0 1.70354e-08
85 3 0.001 0.00893603 0.00496539 0.00172479 -1.15335e-10 4.57746e-12 8.00009e-12 0 1.70353e-08
86 3 0.001 0.00894236 0.00496932 0.00235571 5.48954e-11 -3.01362e-10 7.79113e-12 0 1.70353e-08
87 3 0.001 0.00894935 0.00497365 0.00298662 -1.08828e-10 -9.74612e-13 8.29532e-12 0 1.70352e-08
88 3 0.001 0.00895695 0.00497836 0.00361752 -7.93466e-11 -3.44484e-11 9.02732e-12 0 1.70352e-08
89 3 0.001 0.00896513 0.00498344 0.00424841 -6.54056e-11 -1.99884e-10 1.07731e-11 0 1.70351e-08
90 3 0.001 0.00897387 0.00498886 0.00487929 -4.33333e-11 1.0175e-10 6.32266e-12 0 1.7035e-08
91 3 0.001 0.00898311 0.00499459 0.00551016 -2.40149e-11 -2.91473e-10 9.66178e-12 0 1.70349e-08
92 3 0.001 0.00899282 0.00500062 0.00614102 -8.80622e-11 7.4297e-11 6.21475e-12 0 1.70349e-08
93 3 0.001 0.00900296 0.00500691 0.00677187 -3.92035e-11 -1.20338e-10 9.30552e-12 0 1.70348e-08
94 3 0.001 0.00901347 0.00501343 0.00740271 -3.00504e-11 -1.93861e-11 8.60582e-12 0 1.70343e-08
95 3 0.001 0.00902432 0.00502016 0.00803354 -6.17439e-11 -1.09954e-10 9.32388e-12 0 1.70332e-08
96 3 0.001 0.00903545 0.00502706 0.00866437 -1.25115e-11 -9.70026e-12 6.60659e-12 0 1.7031e-08
97 3 0.001 0.00904681 0.0050341 0.00929519 -6.81962e-11 -7.24779e-11 7.74625e-12 0 1.70276e-08
98 3 0.001 0.00905832 0.00504123 0.00992601 6.74254e-11 -1.71183e-11 5.86605e-12 0 1.70227e-08
99 3 0.001 0.00906989 0.00504839 0.0105568 -1.66564e-10 -9.75985e-11 1.22238e-11 0 1.70163e-08
100 3 0.001 0.00908146 0.00505553 0.0111876 5.64288e-11 9.27316e-11 5.29509e-12 0 1.70084e-08
101 3 0.001 0.00909286 0.00506257 0.0118185 -4.84368e-11 -1.77676e-10 8.16325e-12 0 1.69995e-08
102 3 0.001 0.00910394 0.00506939 0.0124493 -1.10606e-11 5.75785e-11 6.21693e-12 0 1.699e-08
103 3 0.001 0.00911451 0.00507589 0.0130801 -5.97493e-11 -4.34697e-11 8.56978e-12 0 1.69812e-08
104 3 0.001 0.00912432 0.00508192 0.013711 -6.1005e-11 1.8685e-11 8.16801e-12 0 1.69744e-08
105 3 0.001 0.00913307 0.0050873 0.0143419 8.9516e-11 -1.59683e-10 7.19991e-12 0 1.6972e-08
106 3 0.001 0.00914042 0.00509184 0.0149728 -1.64577e-10 1.27899e-10 6.1782e-12 0 1.69766e-08
107 3 0.001 0.00914595 0.00509531 0.0156037 -2.38374e-11 -7.07157e-11 7.28084e-12 0 1.69918e-08
108 3 0.001 0.00914919 0.00509743 0.0162347 -2.91646e-11 -2.22735e-12 7.01257e-12 0 1.70216e-08
109 3 0.001 0.00914958 0.0050979 0.0168656 -2.73917e-11 -1.79516e-10 8.11394e-12 0 1.70701e-08
110 3 0.001 0.00914652 0.0050964 0.0174966 -1.61862e-10 2.77642e-10 6.78955e-12 0 1.71416e-08
111 3 0.001 0.00913933 0.00509253 0.0181275 -2.31687e-11 -2.28011e-10 3.16222e-12 0 1.72392e-08
112 3 0.001 0.00912726 0.00508591 0.0187583 -5.9408e-11 -5.626e-11 3.03975e-12 0 1.73648e-08
113 3 0.001 0.00910953 0.00507611 0.0193889 -1.26832e-10 9.08635e-11 5.1522e-12 0 1.75171e-08
114 3 0.001 0.00908532 0.00506266 0.0200192 -1.21465e-10 -4.40591e-11 2.4722e-12 0 1.76919e-08
115 3 0.001 0.00905377 0.00504512 0.0206491 -1.19241e-10 -2.57904e-11 -5.10977e-13 0 1.78809e-08
116 3 0.001 0.00901405 0.00502302 0.0212783 -7.67708e-11 -4.44862e-11 6.48079e-13 0 1.80743e-08
117 3 0.001 0.00896534 0.00499591 0.0219068 -1.11814e-10 -4.45994e-11 -4.2135e-12 0 1.82686e-08
119 3 0.001 0.00883791 0.00492496 0.02316 -1.42185e-10 6.52503e-11 -2.3626e-12 0 1.86639e-08
118 3 0.001 0.00890687 0.00496336 0.0225341 -1.86222e-10 2.56371e-12 -8.8489e-12 0 1.84657e-08
120 3 0.001 0.00875781 0.00488035 0.0237841 -7.83319e-11 -1.13272e-10 -7.23545e-12 0 1.88593e-08
122 3 0.001 0.00856182 0.00477119 0.0250256 -4.95819e-11 -1.39611e-10 -8.37597e-12 0 1.92264e-08
121 3 0.001 0.00866596 0.00482919 0.0244061 -1.89228e-10 3.47025e-11 -1.33975e-11 0 1.9048e-08
125 3 0.001 0.0081715 0.00455374 0.0268641 -1.70444e-10 3.2114e-11 -1.78457e-11 0 1.96639e-08
123 3 0.001 0.00844495 0.00470608 0.0256421 -2.65747e-10 2.33969e-10 -9.62812e-12 0 1.93907e-08
124 3 0.001 0.00831494 0.00463366 0.026255 -6.14597e-11 -1.605e-10 -1.52519e-11 0 1.95376e-08
126 3 0.001 0.00801438 0.0044662 0.0274687 -4.39219e-11 -5.05661e-11 4.50941e-12 0 1.97669e-08
127 3 0.001 0.00784345 0.00437096 0.0280683 -2.40291e-10 9.52634e-11 -2.62222e-11 0 1.98444e-08
128 3 0.001 0.00765863 0.00426799 0.0286626 -1.09739e-10 -1.39991e-11 -8.201e-12 0 1.98946e-08
129 3 0.001 0.00745994 0.00415728 0.0292509 -5.85726e-11 -2.84915e-11 7.30968e-12 0 1.99166e-08
130 3 0.001 0.00724748 0.00403889 0.0298329 -1.65769e-10 2.98933e-11 -2.17199e-11 0 1.99098e-08
131 3 0.001 0.0070214 0.00391291 0.0304081 -9.59224e-11 2.97952e-11 4.93284e-12 0 1.98743e-08
132 3 0.001 0.00678197 0.00377949 0.0309762 -1.04136e-10 -1.99616e-11 -7.70481e-12 0 1.9811e-08
134 3 0.001 0.00626433 0.00349104 0.0320899 -1.19469e-11 -9.96561e-11 1.62323e-11 0 1.96071e-08
133 3 0.001 0.00652948 0.0036388 0.0315369 -1.7857e-10 1.2315e-10 -4.6402e-12 0 1.97213e-08
135 3 0.001 0.00598695 0.00333647 0.0326349 -1.13754e-10 3.87107e-11 1.93913e-12 0 1.9471e-08
137 3 0.001 0.00539753 0.00300801 0.0337008 -4.22097e-11 -1.26484e-11 2.33435e-11 0 1.9145e-08
138 3 0.001 0.00508661 0.00283474 0.0342216 -1.47717e-10 7.07711e-11 -1.15118e-11 0 1.89619e-08
136 3 0.001 0.00569784 0.00317536 0.0331719 -1.22726e-10 6.33822e-11 1.31563e-12 0 1.93159e-08
140 3 0.001 0.00443546 0.00247187 0.0352395 -7.24266e-11 4.16255e-11 2.40171e-11 0 1.85741e-08
139 3 0.001 0.00476571 0.00265591 0.0347344 -1.8901e-11 -3.44228e-11 3.29767e-11 0 1.87703e-08
141 3 0.001 0.00409655 0.002283 0.0357369 -1.30439e-10 4.12768e-11 -2.17406e-11 0 1.83772e-08
142 3 0.001 0.00374967 0.00208968 0.0362271 1.57713e-11 -3.66476e-11 4.59645e-11 0 1.81831e-08
143 3 0.001 0.00339552 0.00189232 0.0367105 -5.92421e-11 -3.81756e-12 4.55722e-12 0 1.79957e-08
144 3 0.001 0.00303483 0.00169131 0.0371875 -1.3643e-10 1.73839e-10 1.86456e-11 0 1.78182e-08
146 3 0.001 0.0022967 0.00127995 0.0381246 -5.16875e-11 4.84771e-11 1.78683e-11 0 1.75056e-08
147 3 0.001 0.00192072 0.00107042 0.0385859 -4.75666e-11 5.90588e-11 2.04307e-11 0 1.73758e-08
145 3 0.001 0.00266831 0.00148705 0.0376587 4.17824e-11 -1.55395e-10 7.99486e-12 0 1.76539e-08
150 3 0.001 0.000773868 0.000431278 0.0399494 -1.58967e-10 2.52662e-10 -7.05938e-13 0 1.26115e-08
148 3 0.001 0.00154111 0.000858861 0.0390433 -6.58305e-11 9.51948e-12 -2.31419e-11 0 1.72666e-08
149 3 0.001 0.00115859 0.000645682 0.0394976 1.05035e-10 -1.43539e-10 4.2043e-11 0 1.69251e-08
151 3 0.001 0.000387297 0.000215841 0.0404001 7.81082e-11 -1.81352e-10 -1.30206e-11 0 8.58135e-09
2 2 0.001 0 0 0.04085 -0.00515082 -0.0028701 0.0143876 0 4.28623e-09
