ITEM: TIMESTEP
0
ITEM: NUMBER OF ATOMS
1095
ITEM: BOX BOUNDS ff ff ff
-6.0000000000000005e-02 6.0000000000000005e-02
-6.0000000000000001e-03 6.0000000000000001e-03
-5.5000000000000000e-02 5.5000000000000000e-02
ITEM: ATOMS id type radius x y z fx fy fz c_bendingE c_stretchingE
210 11 0.001 -0.0503733 -0.00168734 -0.0490099 -0.00305511 0.00141695 2.35249e-06 0 4.12601e-08
411 12 0.001 -0.0303733 -0.00168734 -0.0490099 -0.00305511 0.00141695 2.35249e-06 0 4.12601e-08
632 14 0.001 -0.0103733 -0.00168734 -0.0490099 -0.00305511 0.00141695 2.35249e-06 0 4.12601e-08
853 16 0.001 0.00962669 -0.00168734 -0.0490099 -0.00305511 0.00141695 2.35249e-06 0 4.12601e-08
1074 18 0.001 0.0296267 -0.00168734 -0.0490099 -0.00305511 0.00141695 2.35249e-06 0 4.12601e-08
2 2 0.001 -0.05 -6.85802e-18 -0.05 -0.0016834 -0.0154059 0.0088264 0 2.063e-08
211 11 0.001 -0.0500944 -0.000864071 -0.049505 -0.00328906 0.000727677 -2.05251e-08 0 4.12601e-08
412 12 0.001 -0.0300944 -0.000864071 -0.049505 -0.00328906 0.000727677 -2.05251e-08 0 4.12601e-08
4 4 0.001 -0.03 -6.85802e-18 -0.05 -0.0016834 -0.0154059 0.0088264 0 2.063e-08
6 6 0.001 -0.01 -6.85802e-18 -0.05 -0.0016834 -0.0154059 0.0088264 0 2.063e-08
633 14 0.001 -0.0100944 -0.000864071 -0.049505 -0.00328906 0.000727677 -2.05251e-08 0 4.12601e-08
8 8 0.001 0.01 -6.85802e-18 -0.05 -0.0016834 -0.0154059 0.0088264 0 2.063e-08
854 16 0.001 0.00990556 -0.000864071 -0.049505 -0.00328906 0.000727677 -2.05251e-08 0 4.12601e-08
10 10 0.001 0.03 -6.85802e-18 -0.05 -0.0016834 -0.0154059 0.0088264 0 2.063e-08
1075 18 0.001 0.0299056 -0.000864071 -0.049505 -0.00328906 0.000727677 -2.05251e-08 0 4.12601e-08
207 11 0.001 -0.0521453 -0.00354405 -0.0475248 -0.0015619 0.00298462 -2.05251e-08 0 4.12601e-08
208 11 0.001 -0.0514236 -0.00305973 -0.0480198 -0.00216975 0.00257675 -2.0525e-08 0 4.12601e-08
408 12 0.001 -0.0321453 -0.00354405 -0.0475248 -0.0015619 0.00298462 -2.05251e-08 0 4.12601e-08
409 12 0.001 -0.0314236 -0.00305973 -0.0480198 -0.00216975 0.00257675 -2.0525e-08 0 4.12601e-08
629 14 0.001 -0.0121453 -0.00354405 -0.0475248 -0.0015619 0.00298462 -2.05251e-08 0 4.12601e-08
630 14 0.001 -0.0114236 -0.00305973 -0.0480198 -0.00216975 0.00257675 -2.0525e-08 0 4.12601e-08
850 16 0.001 0.00785465 -0.00354405 -0.0475248 -0.0015619 0.00298462 -2.05251e-08 0 4.12601e-08
851 16 0.001 0.00857644 -0.00305973 -0.0480198 -0.00216975 0.00257675 -2.0525e-08 0 4.12601e-08
1071 18 0.001 0.0278547 -0.00354405 -0.0475248 -0.0015619 0.00298462 -2.05251e-08 0 4.12601e-08
1072 18 0.001 0.0285764 -0.00305973 -0.0480198 -0.00216975 0.00257675 -2.0525e-08 0 4.12601e-08
209 11 0.001 -0.0508234 -0.00243093 -0.0485149 -0.00267515 0.00204721 -2.05251e-08 0 4.12601e-08
410 12 0.001 -0.0308234 -0.00243093 -0.0485149 -0.00267515 0.00204721 -2.05251e-08 0 4.12601e-08
631 14 0.001 -0.0108234 -0.00243093 -0.0485149 -0.00267515 0.00204721 -2.05251e-08 0 4.12601e-08
852 16 0.001 0.00917657 -0.00243093 -0.0485149 -0.00267515 0.00204721 -2.05251e-08 0 4.12601e-08
1073 18 0.001 0.0291766 -0.00243093 -0.0485149 -0.00267515 0.00204721 -2.05251e-08 0 4.12601e-08
204 11 0.001 -0.054681 -0.00394161 -0.0460396 0.000573482 0.00331942 -2.05251e-08 0 4.12601e-08
205 11 0.001 -0.0538134 -0.00399565 -0.0465347 -0.000157113 0.00336493 -2.05251e-08 0 4.12601e-08
206 11 0.001 -0.0529547 -0.00386101 -0.0470297 -0.000880289 0.00325155 -2.05251e-08 0 4.12601e-08
405 12 0.001 -0.034681 -0.00394161 -0.0460396 0.000573482 0.00331942 -2.05251e-08 0 4.12601e-08
406 12 0.001 -0.0338134 -0.00399565 -0.0465347 -0.000157113 0.00336493 -2.05251e-08 0 4.12601e-08
407 12 0.001 -0.0329547 -0.00386101 -0.0470297 -0.000880289 0.00325155 -2.05251e-08 0 4.12601e-08
626 14 0.001 -0.014681 -0.00394161 -0.0460396 0.000573482 0.00331942 -2.05251e-08 0 4.12601e-08
627 14 0.001 -0.0138134 -0.00399565 -0.0465347 -0.000157113 0.00336493 -2.05251e-08 0 4.12601e-08
628 14 0.001 -0.0129547 -0.00386101 -0.0470297 -0.000880289 0.00325155 -2.05251e-08 0 4.12601e-08
847 16 0.001 0.00531903 -0.00394161 -0.0460396 0.000573482 0.00331942 -2.05251e-08 0 4.12601e-08
848 16 0.001 0.00618656 -0.00399565 -0.0465347 -0.000157113 0.00336493 -2.05251e-08 0 4.12601e-08
849 16 0.001 0.00704529 -0.00386101 -0.0470297 -0.000880289 0.00325155 -2.05251e-08 0 4.12601e-08
1068 18 0.001 0.025319 -0.00394161 -0.0460396 0.000573482 0.00331942 -2.05251e-08 0 4.12601e-08
1069 18 0.001 0.0261866 -0.00399565 -0.0465347 -0.000157113 0.00336493 -2.05251e-08 0 4.12601e-08
1070 18 0.001 0.0270453 -0.00386101 -0.0470297 -0.000880289 0.00325155 -2.05251e-08 0 4.12601e-08
202 11 0.001 -0.0562801 -0.00328649 -0.0450495 0.00192021 0.00276772 -2.05251e-08 0 4.12601e-08
203 11 0.001 -0.0555164 -0.00370144 -0.0455446 0.001277 0.00311717 -2.05251e-08 0 4.12601e-08
403 12 0.001 -0.0362801 -0.00328649 -0.0450495 0.00192021 0.00276772 -2.05251e-08 0 4.12601e-08
404 12 0.001 -0.0355164 -0.00370144 -0.0455446 0.001277 0.00311717 -2.05251e-08 0 4.12601e-08
624 14 0.001 -0.0162801 -0.00328649 -0.0450495 0.00192021 0.00276772 -2.05251e-08 0 4.12601e-08
625 14 0.001 -0.0155164 -0.00370144 -0.0455446 0.001277 0.00311717 -2.05251e-08 0 4.12601e-08
845 16 0.001 0.00371987 -0.00328649 -0.0450495 0.00192021 0.00276772 -2.05251e-08 0 4.12601e-08
846 16 0.001 0.00448365 -0.00370144 -0.0455446 0.001277 0.00311717 -2.05251e-08 0 4.12601e-08
1066 18 0.001 0.0237199 -0.00328649 -0.0450495 0.00192021 0.00276772 -2.05251e-08 0 4.12601e-08
1067 18 0.001 0.0244836 -0.00370144 -0.0455446 0.001277 0.00311717 -2.05251e-08 0 4.12601e-08
201 11 0.001 -0.0569362 -0.00271634 -0.0445545 0.00247275 0.00228757 -2.05251e-08 0 4.12601e-08
402 12 0.001 -0.0369362 -0.00271634 -0.0445545 0.00247275 0.00228757 -2.05251e-08 0 4.12601e-08
623 14 0.001 -0.0169362 -0.00271634 -0.0445545 0.00247275 0.00228757 -2.05251e-08 0 4.12601e-08
844 16 0.001 0.00306377 -0.00271634 -0.0445545 0.00247275 0.00228757 -2.05251e-08 0 4.12601e-08
1065 18 0.001 0.0230638 -0.00271634 -0.0445545 0.00247275 0.00228757 -2.05251e-08 0 4.12601e-08
200 11 0.001 -0.0574537 -0.00201793 -0.0440594 0.00290852 0.0016994 -2.05251e-08 0 4.12601e-08
401 12 0.001 -0.0374537 -0.00201793 -0.0440594 0.00290852 0.0016994 -2.05251e-08 0 4.12601e-08
622 14 0.001 -0.0174537 -0.00201793 -0.0440594 0.00290852 0.0016994 -2.05251e-08 0 4.12601e-08
843 16 0.001 0.00254631 -0.00201793 -0.0440594 0.00290852 0.0016994 -2.05251e-08 0 4.12601e-08
1064 18 0.001 0.0225463 -0.00201793 -0.0440594 0.00290852 0.0016994 -2.05251e-08 0 4.12601e-08
198 11 0.001 -0.0579826 -0.000372717 -0.0430693 0.00335394 0.000313884 -2.05251e-08 0 4.12601e-08
199 11 0.001 -0.0578081 -0.00122423 -0.0435644 0.00320695 0.00103098 -2.05251e-08 0 4.12601e-08
399 12 0.001 -0.0379826 -0.000372717 -0.0430693 0.00335394 0.000313884 -2.05251e-08 0 4.12601e-08
400 12 0.001 -0.0378081 -0.00122423 -0.0435644 0.00320695 0.00103098 -2.05251e-08 0 4.12601e-08
620 14 0.001 -0.0179826 -0.000372717 -0.0430693 0.00335394 0.000313884 -2.05251e-08 0 4.12601e-08
621 14 0.001 -0.0178081 -0.00122423 -0.0435644 0.00320695 0.00103098 -2.05251e-08 0 4.12601e-08
841 16 0.001 0.0020174 -0.000372717 -0.0430693 0.00335394 0.000313884 -2.05251e-08 0 4.12601e-08
842 16 0.001 0.00219195 -0.00122423 -0.0435644 0.00320695 0.00103098 -2.05251e-08 0 4.12601e-08
1062 18 0.001 0.0220174 -0.000372717 -0.0430693 0.00335394 0.000313884 -2.05251e-08 0 4.12601e-08
1063 18 0.001 0.0221919 -0.00122423 -0.0435644 0.00320695 0.00103098 -2.05251e-08 0 4.12601e-08
196 11 0.001 -0.0577681 0.00134207 -0.0420792 0.00317334 -0.00113022 -2.05251e-08 0 4.12601e-08
197 11 0.001 -0.0579691 0.000496395 -0.0425743 0.00334256 -0.000418039 -2.05251e-08 0 4.12601e-08
397 12 0.001 -0.0377681 0.00134207 -0.0420792 0.00317334 -0.00113022 -2.05251e-08 0 4.12601e-08
398 12 0.001 -0.0379691 0.000496395 -0.0425743 0.00334256 -0.000418039 -2.05251e-08 0 4.12601e-08
618 14 0.001 -0.0177681 0.00134207 -0.0420792 0.00317334 -0.00113022 -2.05251e-08 0 4.12601e-08
619 14 0.001 -0.0179691 0.000496395 -0.0425743 0.00334256 -0.000418039 -2.05251e-08 0 4.12601e-08
839 16 0.001 0.00223186 0.00134207 -0.0420792 0.00317334 -0.00113022 -2.05251e-08 0 4.12601e-08
840 16 0.001 0.00203092 0.000496395 -0.0425743 0.00334256 -0.000418039 -2.05251e-08 0 4.12601e-08
1060 18 0.001 0.0222319 0.00134207 -0.0420792 0.00317334 -0.00113022 -2.05251e-08 0 4.12601e-08
1061 18 0.001 0.0220309 0.000496395 -0.0425743 0.00334256 -0.000418039 -2.05251e-08 0 4.12601e-08
195 11 0.001 -0.0573893 0.00212436 -0.0415842 0.00285426 -0.00178903 -2.05251e-08 0 4.12601e-08
396 12 0.001 -0.0373893 0.00212436 -0.0415842 0.00285426 -0.00178903 -2.05251e-08 0 4.12601e-08
617 14 0.001 -0.0173893 0.00212436 -0.0415842 0.00285426 -0.00178903 -2.05251e-08 0 4.12601e-08
838 16 0.001 0.00261074 0.00212436 -0.0415842 0.00285426 -0.00178903 -2.05251e-08 0 4.12601e-08
1059 18 0.001 0.0226107 0.00212436 -0.0415842 0.00285426 -0.00178903 -2.05251e-08 0 4.12601e-08
194 11 0.001 -0.0568503 0.00280635 -0.0410891 0.00240041 -0.00236336 -2.0525e-08 0 4.12601e-08
395 12 0.001 -0.0368503 0.00280635 -0.0410891 0.00240041 -0.00236336 -2.0525e-08 0 4.12601e-08
616 14 0.001 -0.0168503 0.00280635 -0.0410891 0.00240041 -0.00236336 -2.0525e-08 0 4.12601e-08
837 16 0.001 0.00314966 0.00280635 -0.0410891 0.00240041 -0.00236336 -2.0525e-08 0 4.12601e-08
1058 18 0.001 0.0231497 0.00280635 -0.0410891 0.00240041 -0.00236336 -2.0525e-08 0 4.12601e-08
193 11 0.001 -0.0561768 0.00335581 -0.0405941 0.00183321 -0.0028261 -2.05251e-08 0 4.12601e-08
192 11 0.001 -0.0554005 0.00374681 -0.040099 0.00117944 -0.00315538 -2.05251e-08 0 4.12601e-08
394 12 0.001 -0.0361768 0.00335581 -0.0405941 0.00183321 -0.0028261 -2.05251e-08 0 4.12601e-08
393 12 0.001 -0.0354005 0.00374681 -0.040099 0.00117944 -0.00315538 -2.05251e-08 0 4.12601e-08
614 14 0.001 -0.0154005 0.00374681 -0.040099 0.00117944 -0.00315538 -2.05251e-08 0 4.12601e-08
615 14 0.001 -0.0161768 0.00335581 -0.0405941 0.00183321 -0.0028261 -2.05251e-08 0 4.12601e-08
836 16 0.001 0.00382318 0.00335581 -0.0405941 0.00183321 -0.0028261 -2.05251e-08 0 4.12601e-08
835 16 0.001 0.00459949 0.00374681 -0.040099 0.00117944 -0.00315538 -2.05251e-08 0 4.12601e-08
1057 18 0.001 0.0238232 0.00335581 -0.0405941 0.00183321 -0.0028261 -2.05251e-08 0 4.12601e-08
1056 18 0.001 0.0245995 0.00374681 -0.040099 0.00117944 -0.00315538 -2.05251e-08 0 4.12601e-08
191 11 0.001 -0.0545581 0.00396088 -0.039604 0.000469971 -0.00333565 -2.05251e-08 0 4.12601e-08
189 11 0.001 -0.0528351 0.00382663 -0.0386139 -0.000980986 -0.0032226 -2.05251e-08 0 4.12601e-08
190 11 0.001 -0.0536893 0.00398791 -0.0391089 -0.000261686 -0.00335842 -2.05251e-08 0 4.12601e-08
392 12 0.001 -0.0345581 0.00396088 -0.039604 0.000469971 -0.00333565 -2.05251e-08 0 4.12601e-08
391 12 0.001 -0.0336893 0.00398791 -0.0391089 -0.000261686 -0.00335842 -2.05251e-08 0 4.12601e-08
390 12 0.001 -0.0328351 0.00382663 -0.0386139 -0.000980986 -0.0032226 -2.05251e-08 0 4.12601e-08
612 14 0.001 -0.0136893 0.00398791 -0.0391089 -0.000261686 -0.00335842 -2.05251e-08 0 4.12601e-08
613 14 0.001 -0.0145581 0.00396088 -0.039604 0.000469971 -0.00333565 -2.05251e-08 0 4.12601e-08
611 14 0.001 -0.0128351 0.00382663 -0.0386139 -0.000980986 -0.0032226 -2.05251e-08 0 4.12601e-08
834 16 0.001 0.00544194 0.00396088 -0.039604 0.000469971 -0.00333565 -2.05251e-08 0 4.12601e-08
832 16 0.001 0.00716486 0.00382663 -0.0386139 -0.000980986 -0.0032226 -2.05251e-08 0 4.12601e-08
833 16 0.001 0.00631074 0.00398791 -0.0391089 -0.000261686 -0.00335842 -2.05251e-08 0 4.12601e-08
1055 18 0.001 0.0254419 0.00396088 -0.039604 0.000469971 -0.00333565 -2.05251e-08 0 4.12601e-08
1054 18 0.001 0.0263107 0.00398791 -0.0391089 -0.000261686 -0.00335842 -2.05251e-08 0 4.12601e-08
1053 18 0.001 0.0271649 0.00382663 -0.0386139 -0.000980986 -0.0032226 -2.05251e-08 0 4.12601e-08
187 11 0.001 -0.0513296 0.00297812 -0.0376238 -0.00224884 -0.00250803 -2.05251e-08 0 4.12601e-08
186 11 0.001 -0.0507494 0.00233096 -0.0371287 -0.00273752 -0.00196302 -2.0525e-08 0 4.12601e-08
387 12 0.001 -0.0307494 0.00233096 -0.0371287 -0.00273752 -0.00196302 -2.0525e-08 0 4.12601e-08
388 12 0.001 -0.0313296 0.00297812 -0.0376238 -0.00224884 -0.00250803 -2.05251e-08 0 4.12601e-08
608 14 0.001 -0.0107494 0.00233096 -0.0371287 -0.00273752 -0.00196302 -2.0525e-08 0 4.12601e-08
609 14 0.001 -0.0113296 0.00297812 -0.0376238 -0.00224884 -0.00250803 -2.05251e-08 0 4.12601e-08
830 16 0.001 0.00867035 0.00297812 -0.0376238 -0.00224884 -0.00250803 -2.05251e-08 0 4.12601e-08
829 16 0.001 0.00925063 0.00233096 -0.0371287 -0.00273752 -0.00196302 -2.0525e-08 0 4.12601e-08
1050 18 0.001 0.0292506 0.00233096 -0.0371287 -0.00273752 -0.00196302 -2.0525e-08 0 4.12601e-08
1051 18 0.001 0.0286704 0.00297812 -0.0376238 -0.00224884 -0.00250803 -2.05251e-08 0 4.12601e-08
188 11 0.001 -0.052036 0.00348465 -0.0381188 -0.00165396 -0.0029346 -2.05251e-08 0 4.12601e-08
389 12 0.001 -0.032036 0.00348465 -0.0381188 -0.00165396 -0.0029346 -2.05251e-08 0 4.12601e-08
610 14 0.001 -0.012036 0.00348465 -0.0381188 -0.00165396 -0.0029346 -2.05251e-08 0 4.12601e-08
831 16 0.001 0.00796398 0.00348465 -0.0381188 -0.00165396 -0.0029346 -2.05251e-08 0 4.12601e-08
1052 18 0.001 0.027964 0.00348465 -0.0381188 -0.00165396 -0.0029346 -2.05251e-08 0 4.12601e-08
183 11 0.001 -0.0500019 -0.000124399 -0.0356436 -0.00336697 0.000104763 -2.05251e-08 0 4.12601e-08
384 12 0.001 -0.0300019 -0.000124399 -0.0356436 -0.00336697 0.000104763 -2.05251e-08 0 4.12601e-08
605 14 0.001 -0.0100019 -0.000124399 -0.0356436 -0.00336697 0.000104763 -2.05251e-08 0 4.12601e-08
826 16 0.001 0.00999807 -0.000124399 -0.0356436 -0.00336697 0.000104763 -2.05251e-08 0 4.12601e-08
1047 18 0.001 0.0299981 -0.000124399 -0.0356436 -0.00336697 0.000104763 -2.05251e-08 0 4.12601e-08
184 11 0.001 -0.0500695 0.000742191 -0.0361386 -0.0033101 -0.000625036 -2.05251e-08 0 4.12601e-08
385 12 0.001 -0.0300695 0.000742191 -0.0361386 -0.0033101 -0.000625036 -2.05251e-08 0 4.12601e-08
606 14 0.001 -0.0100695 0.000742191 -0.0361386 -0.0033101 -0.000625036 -2.05251e-08 0 4.12601e-08
827 16 0.001 0.00993054 0.000742191 -0.0361386 -0.0033101 -0.000625036 -2.05251e-08 0 4.12601e-08
1048 18 0.001 0.0299305 0.000742191 -0.0361386 -0.0033101 -0.000625036 -2.05251e-08 0 4.12601e-08
185 11 0.001 -0.0503226 0.00157373 -0.0366337 -0.00309693 -0.00132532 -2.05251e-08 0 4.12601e-08
386 12 0.001 -0.0303226 0.00157373 -0.0366337 -0.00309693 -0.00132532 -2.05251e-08 0 4.12601e-08
607 14 0.001 -0.0103226 0.00157373 -0.0366337 -0.00309693 -0.00132532 -2.05251e-08 0 4.12601e-08
828 16 0.001 0.00967741 0.00157373 -0.0366337 -0.00309693 -0.00132532 -2.05251e-08 0 4.12601e-08
1049 18 0.001 0.0296774 0.00157373 -0.0366337 -0.00309693 -0.00132532 -2.05251e-08 0 4.12601e-08
180 11 0.001 -0.0509006 -0.00252855 -0.0341584 -0.00261018 0.00212941 -2.05251e-08 0 4.12601e-08
181 11 0.001 -0.0504275 -0.00179931 -0.0346535 -0.00300855 0.00151529 -2.05251e-08 0 4.12601e-08
381 12 0.001 -0.0309006 -0.00252855 -0.0341584 -0.00261018 0.00212941 -2.05251e-08 0 4.12601e-08
382 12 0.001 -0.0304275 -0.00179931 -0.0346535 -0.00300855 0.00151529 -2.05251e-08 0 4.12601e-08
602 14 0.001 -0.0109006 -0.00252855 -0.0341584 -0.00261018 0.00212941 -2.05251e-08 0 4.12601e-08
603 14 0.001 -0.0104275 -0.00179931 -0.0346535 -0.00300855 0.00151529 -2.05251e-08 0 4.12601e-08
823 16 0.001 0.00909943 -0.00252855 -0.0341584 -0.00261018 0.00212941 -2.05251e-08 0 4.12601e-08
824 16 0.001 0.00957246 -0.00179931 -0.0346535 -0.00300855 0.00151529 -2.05251e-08 0 4.12601e-08
1044 18 0.001 0.0290994 -0.00252855 -0.0341584 -0.00261018 0.00212941 -2.05251e-08 0 4.12601e-08
1045 18 0.001 0.0295725 -0.00179931 -0.0346535 -0.00300855 0.00151529 -2.05251e-08 0 4.12601e-08
182 11 0.001 -0.0501232 -0.000985116 -0.0351485 -0.00326484 0.000829615 -2.05251e-08 0 4.12601e-08
383 12 0.001 -0.0301232 -0.000985116 -0.0351485 -0.00326484 0.000829615 -2.05251e-08 0 4.12601e-08
604 14 0.001 -0.0101232 -0.000985116 -0.0351485 -0.00326484 0.000829615 -2.05251e-08 0 4.12601e-08
825 16 0.001 0.0098768 -0.000985116 -0.0351485 -0.00326484 0.000829615 -2.05251e-08 0 4.12601e-08
1046 18 0.001 0.0298768 -0.000985116 -0.0351485 -0.00326484 0.000829615 -2.05251e-08 0 4.12601e-08
177 11 0.001 -0.0530753 -0.00389165 -0.0326733 -0.00077874 0.00327735 -2.05252e-08 0 4.12601e-08
178 11 0.001 -0.0522565 -0.00360001 -0.0331683 -0.00146832 0.00303175 -2.0525e-08 0 4.12601e-08
179 11 0.001 -0.05152 -0.00313838 -0.0336634 -0.00208856 0.00264298 -2.05251e-08 0 4.12601e-08
378 12 0.001 -0.0330753 -0.00389165 -0.0326733 -0.00077874 0.00327735 -2.05252e-08 0 4.12601e-08
379 12 0.001 -0.0322565 -0.00360001 -0.0331683 -0.00146832 0.00303175 -2.0525e-08 0 4.12601e-08
380 12 0.001 -0.03152 -0.00313838 -0.0336634 -0.00208856 0.00264298 -2.05251e-08 0 4.12601e-08
599 14 0.001 -0.0130753 -0.00389165 -0.0326733 -0.00077874 0.00327735 -2.05252e-08 0 4.12601e-08
600 14 0.001 -0.0122565 -0.00360001 -0.0331683 -0.00146832 0.00303175 -2.0525e-08 0 4.12601e-08
601 14 0.001 -0.01152 -0.00313838 -0.0336634 -0.00208856 0.00264298 -2.05251e-08 0 4.12601e-08
820 16 0.001 0.00692471 -0.00389165 -0.0326733 -0.00077874 0.00327735 -2.05252e-08 0 4.12601e-08
821 16 0.001 0.00774354 -0.00360001 -0.0331683 -0.00146832 0.00303175 -2.0525e-08 0 4.12601e-08
822 16 0.001 0.00848004 -0.00313838 -0.0336634 -0.00208856 0.00264298 -2.05251e-08 0 4.12601e-08
1041 18 0.001 0.0269247 -0.00389165 -0.0326733 -0.00077874 0.00327735 -2.05252e-08 0 4.12601e-08
1042 18 0.001 0.0277435 -0.00360001 -0.0331683 -0.00146832 0.00303175 -2.0525e-08 0 4.12601e-08
1043 18 0.001 0.02848 -0.00313838 -0.0336634 -0.00208856 0.00264298 -2.05251e-08 0 4.12601e-08
174 11 0.001 -0.0556307 -0.00365249 -0.0311881 0.00137332 0.00307595 -2.05251e-08 0 4.12601e-08
175 11 0.001 -0.0548032 -0.00391852 -0.0316832 0.000676439 0.00329998 -2.05251e-08 0 4.12601e-08
176 11 0.001 -0.0539378 -0.00399952 -0.0321782 -5.23878e-05 0.00336819 -2.0525e-08 0 4.12601e-08
375 12 0.001 -0.0356307 -0.00365249 -0.0311881 0.00137332 0.00307595 -2.05251e-08 0 4.12601e-08
376 12 0.001 -0.0348032 -0.00391852 -0.0316832 0.000676439 0.00329998 -2.05251e-08 0 4.12601e-08
377 12 0.001 -0.0339378 -0.00399952 -0.0321782 -5.23878e-05 0.00336819 -2.0525e-08 0 4.12601e-08
596 14 0.001 -0.0156307 -0.00365249 -0.0311881 0.00137332 0.00307595 -2.05251e-08 0 4.12601e-08
597 14 0.001 -0.0148032 -0.00391852 -0.0316832 0.000676439 0.00329998 -2.05251e-08 0 4.12601e-08
598 14 0.001 -0.0139378 -0.00399952 -0.0321782 -5.23878e-05 0.00336819 -2.0525e-08 0 4.12601e-08
817 16 0.001 0.00436927 -0.00365249 -0.0311881 0.00137332 0.00307595 -2.05251e-08 0 4.12601e-08
818 16 0.001 0.00519677 -0.00391852 -0.0316832 0.000676439 0.00329998 -2.05251e-08 0 4.12601e-08
819 16 0.001 0.00606221 -0.00399952 -0.0321782 -5.23878e-05 0.00336819 -2.0525e-08 0 4.12601e-08
1038 18 0.001 0.0243693 -0.00365249 -0.0311881 0.00137332 0.00307595 -2.05251e-08 0 4.12601e-08
1039 18 0.001 0.0251968 -0.00391852 -0.0316832 0.000676439 0.00329998 -2.05251e-08 0 4.12601e-08
1040 18 0.001 0.0260622 -0.00399952 -0.0321782 -5.23878e-05 0.00336819 -2.0525e-08 0 4.12601e-08
173 11 0.001 -0.0563812 -0.00321399 -0.0306931 0.00200536 0.00270666 -2.05251e-08 0 4.12601e-08
374 12 0.001 -0.0363812 -0.00321399 -0.0306931 0.00200536 0.00270666 -2.05251e-08 0 4.12601e-08
595 14 0.001 -0.0163812 -0.00321399 -0.0306931 0.00200536 0.00270666 -2.05251e-08 0 4.12601e-08
816 16 0.001 0.00361876 -0.00321399 -0.0306931 0.00200536 0.00270666 -2.05251e-08 0 4.12601e-08
1037 18 0.001 0.0236188 -0.00321399 -0.0306931 0.00200536 0.00270666 -2.05251e-08 0 4.12601e-08
171 11 0.001 -0.0575148 -0.00190955 -0.029703 0.00295997 0.00160812 -2.05251e-08 0 4.12601e-08
172 11 0.001 -0.0570193 -0.00262371 -0.030198 0.0025427 0.00220956 -2.0525e-08 0 4.12601e-08
372 12 0.001 -0.0375148 -0.00190955 -0.029703 0.00295997 0.00160812 -2.05251e-08 0 4.12601e-08
373 12 0.001 -0.0370193 -0.00262371 -0.030198 0.0025427 0.00220956 -2.0525e-08 0 4.12601e-08
593 14 0.001 -0.0175148 -0.00190955 -0.029703 0.00295997 0.00160812 -2.05251e-08 0 4.12601e-08
594 14 0.001 -0.0170193 -0.00262371 -0.030198 0.0025427 0.00220956 -2.0525e-08 0 4.12601e-08
814 16 0.001 0.00248523 -0.00190955 -0.029703 0.00295997 0.00160812 -2.05251e-08 0 4.12601e-08
815 16 0.001 0.00298071 -0.00262371 -0.030198 0.0025427 0.00220956 -2.0525e-08 0 4.12601e-08
1035 18 0.001 0.0224852 -0.00190955 -0.029703 0.00295997 0.00160812 -2.05251e-08 0 4.12601e-08
1036 18 0.001 0.0229807 -0.00262371 -0.030198 0.0025427 0.00220956 -2.0525e-08 0 4.12601e-08
169 11 0.001 -0.0579923 -0.000248679 -0.0287129 0.00336208 0.000209425 -2.05251e-08 0 4.12601e-08
170 11 0.001 -0.0578443 -0.00110521 -0.0292079 0.00323746 0.00093075 -2.05251e-08 0 4.12601e-08
370 12 0.001 -0.0379923 -0.000248679 -0.0287129 0.00336208 0.000209425 -2.05251e-08 0 4.12601e-08
371 12 0.001 -0.0378443 -0.00110521 -0.0292079 0.00323746 0.00093075 -2.05251e-08 0 4.12601e-08
591 14 0.001 -0.0179923 -0.000248679 -0.0287129 0.00336208 0.000209425 -2.05251e-08 0 4.12601e-08
592 14 0.001 -0.0178443 -0.00110521 -0.0292079 0.00323746 0.00093075 -2.05251e-08 0 4.12601e-08
812 16 0.001 0.00200774 -0.000248679 -0.0287129 0.00336208 0.000209425 -2.05251e-08 0 4.12601e-08
813 16 0.001 0.00215572 -0.00110521 -0.0292079 0.00323746 0.00093075 -2.05251e-08 0 4.12601e-08
1033 18 0.001 0.0220077 -0.000248679 -0.0287129 0.00336208 0.000209425 -2.05251e-08 0 4.12601e-08
1034 18 0.001 0.0221557 -0.00110521 -0.0292079 0.00323746 0.00093075 -2.05251e-08 0 4.12601e-08
168 11 0.001 -0.0579517 0.000619593 -0.0282178 0.00332794 -0.00052179 -2.05251e-08 0 4.12601e-08
369 12 0.001 -0.0379517 0.000619593 -0.0282178 0.00332794 -0.00052179 -2.05251e-08 0 4.12601e-08
590 14 0.001 -0.0179517 0.000619593 -0.0282178 0.00332794 -0.00052179 -2.05251e-08 0 4.12601e-08
811 16 0.001 0.00204828 0.000619593 -0.0282178 0.00332794 -0.00052179 -2.05251e-08 0 4.12601e-08
1032 18 0.001 0.0220483 0.000619593 -0.0282178 0.00332794 -0.00052179 -2.05251e-08 0 4.12601e-08
167 11 0.001 -0.0577246 0.00145861 -0.0277228 0.00313665 -0.00122836 -2.05251e-08 0 4.12601e-08
368 12 0.001 -0.0377246 0.00145861 -0.0277228 0.00313665 -0.00122836 -2.05251e-08 0 4.12601e-08
589 14 0.001 -0.0177246 0.00145861 -0.0277228 0.00313665 -0.00122836 -2.05251e-08 0 4.12601e-08
810 16 0.001 0.00227542 0.00145861 -0.0277228 0.00313665 -0.00122836 -2.05251e-08 0 4.12601e-08
1031 18 0.001 0.0222754 0.00145861 -0.0277228 0.00313665 -0.00122836 -2.05251e-08 0 4.12601e-08
166 11 0.001 -0.0573216 0.00222874 -0.0272277 0.00279724 -0.00187694 -2.05251e-08 0 4.12601e-08
165 11 0.001 -0.0567617 0.00289363 -0.0267327 0.00232575 -0.00243687 -2.05251e-08 0 4.12601e-08
366 12 0.001 -0.0367617 0.00289363 -0.0267327 0.00232575 -0.00243687 -2.05251e-08 0 4.12601e-08
367 12 0.001 -0.0373216 0.00222874 -0.0272277 0.00279724 -0.00187694 -2.05251e-08 0 4.12601e-08
587 14 0.001 -0.0167617 0.00289363 -0.0267327 0.00232575 -0.00243687 -2.05251e-08 0 4.12601e-08
588 14 0.001 -0.0173216 0.00222874 -0.0272277 0.00279724 -0.00187694 -2.05251e-08 0 4.12601e-08
809 16 0.001 0.00267845 0.00222874 -0.0272277 0.00279724 -0.00187694 -2.05251e-08 0 4.12601e-08
808 16 0.001 0.00323832 0.00289363 -0.0267327 0.00232575 -0.00243687 -2.05251e-08 0 4.12601e-08
1029 18 0.001 0.0232383 0.00289363 -0.0267327 0.00232575 -0.00243687 -2.05251e-08 0 4.12601e-08
1030 18 0.001 0.0226784 0.00222874 -0.0272277 0.00279724 -0.00187694 -2.05251e-08 0 4.12601e-08
164 11 0.001 -0.0560714 0.00342189 -0.0262376 0.00174443 -0.00288174 -2.0525e-08 0 4.12601e-08
162 11 0.001 -0.0544346 0.00397632 -0.0252475 0.000366006 -0.00334866 -2.05251e-08 0 4.12601e-08
163 11 0.001 -0.0552833 0.00378855 -0.0257426 0.00108073 -0.00319053 -2.05251e-08 0 4.12601e-08
365 12 0.001 -0.0360714 0.00342189 -0.0262376 0.00174443 -0.00288174 -2.0525e-08 0 4.12601e-08
364 12 0.001 -0.0352833 0.00378855 -0.0257426 0.00108073 -0.00319053 -2.05251e-08 0 4.12601e-08
363 12 0.001 -0.0344346 0.00397632 -0.0252475 0.000366006 -0.00334866 -2.05251e-08 0 4.12601e-08
585 14 0.001 -0.0152833 0.00378855 -0.0257426 0.00108073 -0.00319053 -2.05251e-08 0 4.12601e-08
586 14 0.001 -0.0160714 0.00342189 -0.0262376 0.00174443 -0.00288174 -2.0525e-08 0 4.12601e-08
584 14 0.001 -0.0144346 0.00397632 -0.0252475 0.000366006 -0.00334866 -2.05251e-08 0 4.12601e-08
807 16 0.001 0.0039286 0.00342189 -0.0262376 0.00174443 -0.00288174 -2.0525e-08 0 4.12601e-08
805 16 0.001 0.00556539 0.00397632 -0.0252475 0.000366006 -0.00334866 -2.05251e-08 0 4.12601e-08
806 16 0.001 0.0047167 0.00378855 -0.0257426 0.00108073 -0.00319053 -2.05251e-08 0 4.12601e-08
1028 18 0.001 0.0239286 0.00342189 -0.0262376 0.00174443 -0.00288174 -2.0525e-08 0 4.12601e-08
1027 18 0.001 0.0247167 0.00378855 -0.0257426 0.00108073 -0.00319053 -2.05251e-08 0 4.12601e-08
1026 18 0.001 0.0255654 0.00397632 -0.0252475 0.000366006 -0.00334866 -2.05251e-08 0 4.12601e-08
160 11 0.001 -0.0527167 0.00378855 -0.0242574 -0.00108073 -0.00319053 -2.05251e-08 0 4.12601e-08
161 11 0.001 -0.0535654 0.00397632 -0.0247525 -0.000366006 -0.00334866 -2.05251e-08 0 4.12601e-08
159 11 0.001 -0.0519286 0.00342189 -0.0237624 -0.00174443 -0.00288174 -2.05251e-08 0 4.12601e-08
362 12 0.001 -0.0335654 0.00397632 -0.0247525 -0.000366006 -0.00334866 -2.05251e-08 0 4.12601e-08
360 12 0.001 -0.0319286 0.00342189 -0.0237624 -0.00174443 -0.00288174 -2.05251e-08 0 4.12601e-08
361 12 0.001 -0.0327167 0.00378855 -0.0242574 -0.00108073 -0.00319053 -2.05251e-08 0 4.12601e-08
583 14 0.001 -0.0135654 0.00397632 -0.0247525 -0.000366006 -0.00334866 -2.05251e-08 0 4.12601e-08
582 14 0.001 -0.0127167 0.00378855 -0.0242574 -0.00108073 -0.00319053 -2.05251e-08 0 4.12601e-08
581 14 0.001 -0.0119286 0.00342189 -0.0237624 -0.00174443 -0.00288174 -2.05251e-08 0 4.12601e-08
803 16 0.001 0.0072833 0.00378855 -0.0242574 -0.00108073 -0.00319053 -2.05251e-08 0 4.12601e-08
804 16 0.001 0.00643461 0.00397632 -0.0247525 -0.000366006 -0.00334866 -2.05251e-08 0 4.12601e-08
802 16 0.001 0.0080714 0.00342189 -0.0237624 -0.00174443 -0.00288174 -2.05251e-08 0 4.12601e-08
1025 18 0.001 0.0264346 0.00397632 -0.0247525 -0.000366006 -0.00334866 -2.05251e-08 0 4.12601e-08
1023 18 0.001 0.0280714 0.00342189 -0.0237624 -0.00174443 -0.00288174 -2.05251e-08 0 4.12601e-08
1024 18 0.001 0.0272833 0.00378855 -0.0242574 -0.00108073 -0.00319053 -2.05251e-08 0 4.12601e-08
156 11 0.001 -0.0502754 0.00145861 -0.0222772 -0.00313665 -0.00122836 -2.05251e-08 0 4.12601e-08
357 12 0.001 -0.0302754 0.00145861 -0.0222772 -0.00313665 -0.00122836 -2.05251e-08 0 4.12601e-08
578 14 0.001 -0.0102754 0.00145861 -0.0222772 -0.00313665 -0.00122836 -2.05251e-08 0 4.12601e-08
799 16 0.001 0.00972458 0.00145861 -0.0222772 -0.00313665 -0.00122836 -2.05251e-08 0 4.12601e-08
1020 18 0.001 0.0297246 0.00145861 -0.0222772 -0.00313665 -0.00122836 -2.05251e-08 0 4.12601e-08
158 11 0.001 -0.0512383 0.00289363 -0.0232673 -0.00232575 -0.00243687 -2.05251e-08 0 4.12601e-08
157 11 0.001 -0.0506784 0.00222874 -0.0227723 -0.00279724 -0.00187694 -2.0525e-08 0 4.12601e-08
358 12 0.001 -0.0306784 0.00222874 -0.0227723 -0.00279724 -0.00187694 -2.05251e-08 0 4.12601e-08
359 12 0.001 -0.0312383 0.00289363 -0.0232673 -0.00232575 -0.00243687 -2.05251e-08 0 4.12601e-08
579 14 0.001 -0.0106784 0.00222874 -0.0227723 -0.00279724 -0.00187694 -2.05251e-08 0 4.12601e-08
580 14 0.001 -0.0112383 0.00289363 -0.0232673 -0.00232575 -0.00243687 -2.05251e-08 0 4.12601e-08
801 16 0.001 0.00876168 0.00289363 -0.0232673 -0.00232575 -0.00243687 -2.05251e-08 0 4.12601e-08
800 16 0.001 0.00932155 0.00222874 -0.0227723 -0.00279724 -0.00187694 -2.05251e-08 0 4.12601e-08
1021 18 0.001 0.0293216 0.00222874 -0.0227723 -0.00279724 -0.00187694 -2.05251e-08 0 4.12601e-08
1022 18 0.001 0.0287617 0.00289363 -0.0232673 -0.00232575 -0.00243687 -2.05251e-08 0 4.12601e-08
153 11 0.001 -0.0501557 -0.00110521 -0.0207921 -0.00323746 0.00093075 -2.05251e-08 0 4.12601e-08
154 11 0.001 -0.0500077 -0.000248679 -0.0212871 -0.00336208 0.000209425 -2.05251e-08 0 4.12601e-08
354 12 0.001 -0.0301557 -0.00110521 -0.0207921 -0.00323746 0.00093075 -2.05251e-08 0 4.12601e-08
355 12 0.001 -0.0300077 -0.000248679 -0.0212871 -0.00336208 0.000209425 -2.0525e-08 0 4.12601e-08
575 14 0.001 -0.0101557 -0.00110521 -0.0207921 -0.00323746 0.00093075 -2.05251e-08 0 4.12601e-08
576 14 0.001 -0.0100077 -0.000248679 -0.0212871 -0.00336208 0.000209425 -2.05251e-08 0 4.12601e-08
796 16 0.001 0.00984428 -0.00110521 -0.0207921 -0.00323746 0.00093075 -2.05251e-08 0 4.12601e-08
797 16 0.001 0.00999226 -0.000248679 -0.0212871 -0.00336208 0.000209425 -2.05251e-08 0 4.12601e-08
1017 18 0.001 0.0298443 -0.00110521 -0.0207921 -0.00323746 0.00093075 -2.05251e-08 0 4.12601e-08
1018 18 0.001 0.0299923 -0.000248679 -0.0212871 -0.00336208 0.000209425 -2.0525e-08 0 4.12601e-08
155 11 0.001 -0.0500483 0.000619593 -0.0217822 -0.00332794 -0.00052179 -2.05251e-08 0 4.12601e-08
356 12 0.001 -0.0300483 0.000619593 -0.0217822 -0.00332794 -0.00052179 -2.05251e-08 0 4.12601e-08
577 14 0.001 -0.0100483 0.000619593 -0.0217822 -0.00332794 -0.00052179 -2.05251e-08 0 4.12601e-08
798 16 0.001 0.00995172 0.000619593 -0.0217822 -0.00332794 -0.00052179 -2.05251e-08 0 4.12601e-08
1019 18 0.001 0.0299517 0.000619593 -0.0217822 -0.00332794 -0.00052179 -2.05251e-08 0 4.12601e-08
150 11 0.001 -0.0516188 -0.00321399 -0.0193069 -0.00200536 0.00270666 -2.0525e-08 0 4.12601e-08
351 12 0.001 -0.0316188 -0.00321399 -0.0193069 -0.00200536 0.00270666 -2.0525e-08 0 4.12601e-08
572 14 0.001 -0.0116188 -0.00321399 -0.0193069 -0.00200536 0.00270666 -2.0525e-08 0 4.12601e-08
793 16 0.001 0.00838124 -0.00321399 -0.0193069 -0.00200536 0.00270666 -2.0525e-08 0 4.12601e-08
1014 18 0.001 0.0283812 -0.00321399 -0.0193069 -0.00200536 0.00270666 -2.0525e-08 0 4.12601e-08
151 11 0.001 -0.0509807 -0.00262371 -0.019802 -0.0025427 0.00220956 -2.05251e-08 0 4.12601e-08
152 11 0.001 -0.0504852 -0.00190955 -0.020297 -0.00295997 0.00160812 -2.05251e-08 0 4.12601e-08
352 12 0.001 -0.0309807 -0.00262371 -0.019802 -0.0025427 0.00220956 -2.05251e-08 0 4.12601e-08