ITEM: TIMESTEP
200000
ITEM: NUMBER OF ATOMS
1620
ITEM: BOX BOUNDS ff ff ff
-6.0000000000000005e-02 6.0000000000000005e-02
-6.0000000000000001e-03 6.0000000000000001e-03
-5.5000000000000000e-02 5.5000000000000000e-02
ITEM: ATOMS id type radius x y z fx fy fz c_bendingE c_stretchingE
299 11 0.001 -0.0502255 -0.00183342 -0.0490526 0.0338856 -0.00850459 -0.00411147 0 5.66817e-08
589 12 0.001 -0.029957 -0.00187034 -0.049143 0.0395565 -0.0407543 0.0119565 0 1.53691e-07
2 2 0.001 -0.05 -3.23381e-17 -0.0497493 0.0215925 -0.0360488 0.016283 -0.000426666 1.08695e-07
300 11 0.001 -0.0499619 -0.00095703 -0.0494378 -0.0183134 0.0527364 -0.0139895 -0.000426666 1.16576e-07
4 4 0.001 -0.03 -3.23381e-17 -0.0497493 0.06258 -0.0312003 0.0441334 -0.00042664 5.8654e-07
590 12 0.001 -0.0298264 -0.000960458 -0.0494967 -0.0499889 0.0790737 -0.0276725 -0.00042664 2.60838e-07
6 6 0.001 -0.01 -3.23381e-17 -0.0497493 0.0422837 -0.032334 0.0118944 -0.00042666 1.66997e-07
920 15 0.001 -0.00988193 -0.000815665 -0.0491712 -0.0196155 0.00928286 -0.0253635 -0.00042666 1.00564e-07
8 8 0.001 0.01 -3.23381e-17 -0.0497493 -0.0381212 0.0389499 -0.0207386 0 8.4002e-08
1250 18 0.001 0.0100192 -0.00081503 -0.04918 0.00758169 -0.0334893 0.0163248 0 3.699e-08
10 10 0.001 0.03 -3.23381e-17 -0.0497493 -0.030852 -0.0171545 -0.00956727 -0.000426658 8.23102e-08
1580 21 0.001 0.0299332 -0.000907416 -0.0493334 -0.0118974 0.0114545 0.0244289 -0.000426658 2.94779e-08
591 13 0.001 -0.0490456 3.78632e-05 -0.0497541 -0.037656 -0.0157352 -0.013603 -0.000426666 5.9953e-08
592 13 0.001 -0.0481013 7.50951e-05 -0.0497689 0.037691 0.0434367 -0.00698425 0 5.90434e-08
593 13 0.001 -0.0471475 0.000120005 -0.0497855 -0.00992265 -0.039512 0.0171617 0 6.94871e-09
594 13 0.001 -0.0461962 0.000156303 -0.0497961 -0.0262971 0.0262093 0.0177974 0 4.50216e-08
595 13 0.001 -0.0452512 0.000190848 -0.049805 0.0204454 -0.0391789 -0.0408385 0 4.79251e-08
596 13 0.001 -0.0443011 0.000213896 -0.0498258 0.015832 0.050154 0.00505197 0 9.19253e-09
598 13 0.001 -0.0423982 0.000250152 -0.0498591 0.00867555 -0.0235006 -0.0399102 0 1.58773e-08
597 13 0.001 -0.0433467 0.000238203 -0.0498466 -0.02365 -0.0290151 0.0355876 0 2.0019e-08
599 13 0.001 -0.0414474 0.000253022 -0.0498763 0.0119992 0.0390809 0.00719521 0 4.48548e-09
600 13 0.001 -0.0404936 0.000262403 -0.0498883 -0.0238574 -0.0175177 0.0159136 0 2.22225e-08
601 13 0.001 -0.0395457 0.000272339 -0.0498881 0.0262254 0.0264612 0.0084279 0 2.45894e-08
603 13 0.001 -0.0376383 0.000288527 -0.0498727 0.0206158 0.046252 -0.0396538 0 3.38394e-08
602 13 0.001 -0.0385912 0.000285023 -0.0498799 -0.00596223 -0.0406743 -0.00135074 0 5.22061e-09
604 13 0.001 -0.0366801 0.000293193 -0.0498732 -0.0441151 -0.0135711 0.0522283 0 6.07983e-08
606 13 0.001 -0.0347781 0.000249842 -0.049869 -0.00745642 0.0511008 0.000750637 0 1.0332e-08
605 13 0.001 -0.035733 0.000283321 -0.0498671 0.0322698 -0.0485621 -0.0321929 0 3.70232e-08
607 13 0.001 -0.0338256 0.000215382 -0.0498736 0.0449274 -0.0288179 0.00980463 0 1.51096e-07
609 13 0.001 -0.0319032 0.00012316 -0.0498845 -0.0260624 0.028917 0.054168 0 6.00548e-08
608 13 0.001 -0.0328621 0.000170208 -0.0498784 -0.0183487 0.00479419 -0.0294765 0 2.09649e-07
610 13 0.001 -0.0309511 7.64355e-05 -0.0498764 0.0371535 -0.0160862 -0.037793 0 1.05421e-07
921 16 0.001 -0.0290468 0.000174046 -0.0496816 -0.0735736 -0.00675217 -0.0437047 -0.00042664 3.6056e-07
923 16 0.001 -0.0271432 0.00033008 -0.0497782 -0.0493475 0.0239301 -0.0547235 0 7.22832e-08
922 16 0.001 -0.0280996 0.000260096 -0.049729 0.0347433 -0.0176551 0.0267482 0 6.16479e-08
924 16 0.001 -0.0261975 0.00039392 -0.0498271 0.056396 -0.00767366 0.0923759 0 1.06369e-07
926 16 0.001 -0.0242837 0.000491409 -0.0498697 0.00133132 -0.00190728 0.0285782 0 1.13903e-08
925 16 0.001 -0.0252371 0.000446662 -0.0498481 -0.0317718 0.00568047 -0.062773 0 1.01029e-07
927 16 0.001 -0.0233295 0.000524539 -0.0498845 0.0170119 -0.0168675 -0.029513 0 5.12104e-08
929 16 0.001 -0.0214101 0.000563433 -0.0499046 -0.0230215 0.00893461 0.014008 0 8.15235e-08
928 16 0.001 -0.0223708 0.00054555 -0.0498992 0.00736225 0.0194489 0.0308321 0 1.18543e-07
930 16 0.001 -0.0204549 0.000576795 -0.0499095 -0.0371085 -0.0343183 -0.0856174 0 4.51471e-08
931 16 0.001 -0.0195089 0.00057606 -0.0499301 0.0482762 0.0528669 0.110956 0 6.75996e-08
932 16 0.001 -0.018551 0.000572745 -0.0499344 0.00258624 -0.0772233 -0.0883294 0 7.54315e-08
933 16 0.001 -0.0175924 0.000547985 -0.0499514 -0.0347536 0.0692634 0.0360975 0 5.12645e-08
934 16 0.001 -0.0166428 0.000527583 -0.0499617 0.00161521 0.00851873 0.0157287 0 1.14808e-08
935 16 0.001 -0.0156931 0.000498453 -0.0499649 0.0378452 -0.077995 -0.0515662 0 7.15714e-08
937 16 0.001 -0.013785 0.000375758 -0.0499566 0.0328899 -0.0307641 -0.052969 0 6.10389e-08
936 16 0.001 -0.0147345 0.000438874 -0.0499694 -0.03122 0.0762539 0.0756793 0 6.69973e-08
938 16 0.001 -0.0128287 0.000290316 -0.0499485 -0.0223883 -0.0335922 -0.0173498 0 7.01945e-08
940 16 0.001 -0.0109383 7.29405e-05 -0.0499068 0.0215803 -0.0149676 -0.0171291 0 2.25454e-08
939 16 0.001 -0.0118795 0.000181926 -0.0499378 -0.026057 0.0485298 0.0519986 0 2.89797e-08
1251 19 0.001 -0.00905733 0.000173915 -0.0496834 -0.059943 0.00356122 0.0423033 -0.00042666 1.14728e-07
1252 19 0.001 -0.00811536 0.000258783 -0.0496969 0.0365915 0.0268242 -0.0620465 0 5.37986e-08
1254 19 0.001 -0.00620148 0.000403575 -0.0497341 -0.0616644 0.0107435 -0.031786 0 1.48511e-07
1253 19 0.001 -0.00716329 0.000339272 -0.0497187 0.0372944 -0.0345809 0.0413155 0 1.49103e-07
1255 19 0.001 -0.00525427 0.000461564 -0.0497509 0.0407573 0.0170512 0.0224392 0 5.99566e-08
1257 19 0.001 -0.00334376 0.000555601 -0.0497637 0.012934 -0.024933 -0.0218316 0 1.91419e-08
1256 19 0.001 -0.00429644 0.000515218 -0.0497597 -0.0233738 0.00119648 0.0119298 0 5.06929e-08
1258 19 0.001 -0.00238737 0.000572479 -0.0497733 0.000803099 -0.0325903 0.00841894 0 3.73378e-08
1260 19 0.001 -0.000478599 0.000582316 -0.0498037 0.0352059 -0.0315822 -0.0197502 0 7.55787e-08
1259 19 0.001 -0.00143067 0.000573378 -0.049786 -0.0185702 0.0774749 -0.00184412 0 1.9577e-08
1262 19 0.001 0.00144422 0.000562131 -0.049846 -0.0290112 0.0240373 0.0245952 0 1.08627e-07
1261 19 0.001 0.000482145 0.000579642 -0.0498274 0.00535281 -0.0269587 0.00672679 0 1.77084e-07
1263 19 0.001 0.00239906 0.000543653 -0.0498528 -0.0297945 0.0211378 -0.00411347 0 3.06045e-08
1264 19 0.001 0.0033464 0.000524046 -0.049857 0.0229549 -0.0263551 -0.0243277 0 2.4606e-08
1265 19 0.001 0.00429916 0.000488834 -0.0498633 -0.0146191 0.00808649 0.0239425 0 8.36512e-09
1266 19 0.001 0.00524763 0.000440663 -0.049863 0.0623214 -0.00986332 0.00839689 0 1.74908e-07
1268 19 0.001 0.00715783 0.000299762 -0.0498682 0.0124014 -0.0266149 0.0234206 0 6.97822e-09
1267 19 0.001 0.00621078 0.000376563 -0.0498612 -0.0604414 0.00918313 -0.0385747 0 1.7249e-07
1269 19 0.001 0.00810722 0.000207743 -0.0498713 -0.00735581 0.0446258 0.0060578 0 4.07522e-09
1270 19 0.001 0.00905374 0.000115539 -0.0498721 0.035016 -0.041231 -0.00702331 0 7.96102e-08
1582 22 0.001 0.0118771 0.000224218 -0.04966 0.069723 -0.0483037 -0.0158116 0 1.36301e-07
1581 22 0.001 0.0109361 0.000153574 -0.0496628 -0.0353469 0.00605037 0.0398224 0 7.73996e-08
1583 22 0.001 0.0128354 0.000281091 -0.0496662 -0.0462951 0.0724486 -0.0318581 0 6.55883e-08
1585 22 0.001 0.0147321 0.000390677 -0.0497028 0.0300557 -0.0396423 -0.0207557 0 3.19601e-08
1584 22 0.001 0.013783 0.000343273 -0.0496848 0.00459899 -0.0184988 0.0269142 0 1.04029e-08
1586 22 0.001 0.0156894 0.00041012 -0.0497217 0.00324552 0.0124129 0.0199747 0 6.57407e-08
1588 22 0.001 0.0176009 0.000415577 -0.0497354 -0.00806115 0.0273025 -0.0130099 0 2.17314e-09
1587 22 0.001 0.0166478 0.000416134 -0.049732 -0.0218707 -0.00444386 0.00317281 0 3.80289e-08
1589 22 0.001 0.018552 0.000416434 -0.0497368 0.0340856 0.00413369 0.0314038 0 5.3314e-08
1590 22 0.001 0.0195115 0.00041118 -0.0497332 -0.000342054 -0.0379479 -0.0395872 0 1.04157e-07
1591 22 0.001 0.0204708 0.00038768 -0.0497396 -0.00735712 0.0226747 0.0206298 0 7.9962e-08
1592 22 0.001 0.0214279 0.000359705 -0.0497473 -0.00292185 -0.0276013 -0.0224909 0 5.05964e-08
1593 22 0.001 0.0223844 0.000326026 -0.0497596 -0.0302334 0.0626344 0.0279452 0 3.37815e-08
1594 22 0.001 0.0233332 0.000300462 -0.0497672 -0.0139769 -0.0679391 -0.0229399 0 4.81456e-08
1595 22 0.001 0.0242787 0.000262172 -0.0497763 0.0110007 0.0430476 0.0411851 0 5.2575e-08
1596 22 0.001 0.0252265 0.000228232 -0.0497819 0.0257248 0.0104108 -0.0708723 0 2.20692e-08
1597 22 0.001 0.0261807 0.000192329 -0.0497994 -0.0222654 -0.0556355 0.0307468 0 1.28282e-08
1599 22 0.001 0.0280878 9.45617e-05 -0.0497904 -0.021256 0.00450811 -0.0402427 0 5.76255e-08
1598 22 0.001 0.0271293 0.000141492 -0.0498047 0.04072 0.0351699 0.0410326 0 5.98284e-08
1600 22 0.001 0.0290409 4.91287e-05 -0.0497756 0.0236077 -0.00365282 0.0152922 -0.000426658 7.43447e-08
297 11 0.001 -0.0514751 -0.00304613 -0.0481477 -0.0141375 0.000710622 0.00530355 0 2.59547e-08
296 11 0.001 -0.0523491 -0.00326543 -0.0477093 0.0290016 -0.000698598 -0.0140443 0 3.02766e-08
586 12 0.001 -0.0316114 -0.00355651 -0.0474633 0.00619282 -0.00626369 -0.0141541 0 2.18822e-08
587 12 0.001 -0.0308845 -0.00323243 -0.0480629 0.0242298 -0.0108727 -0.0139585 0 1.91101e-08
298 11 0.001 -0.0507403 -0.00255318 -0.0486079 -0.0360905 0.00282182 0.0124696 0 4.12039e-08
588 12 0.001 -0.0303133 -0.00265353 -0.0486471 -0.0392744 -0.0031576 0.0201053 0 3.31173e-08
917 15 0.001 -0.0111991 -0.00275046 -0.0474533 0.0269264 0.0125425 -0.0329812 0 8.57855e-08
919 15 0.001 -0.0100713 -0.00162631 -0.0486172 0.0110386 0.00292651 0.00376589 0 1.21009e-08
918 15 0.001 -0.0105302 -0.00230209 -0.0480425 -0.00746958 0.0202377 0.00650348 0 3.94298e-09
1248 18 0.001 0.00922731 -0.00216958 -0.0479823 0.00783264 -0.0313484 0.0187378 0 1.71781e-08
1249 18 0.001 0.00975032 -0.00157682 -0.0485862 -0.0105943 0.0354977 -0.017726 0 3.52216e-08
1578 21 0.001 0.0289981 -0.0022918 -0.0482774 -0.038187 0.060934 0.0366639 0 4.85397e-08
1579 21 0.001 0.0295857 -0.00169173 -0.0488171 0.0171444 -0.0237398 -0.0334735 0 1.98111e-08
295 11 0.001 -0.0532437 -0.00319196 -0.0472804 0.000166486 -0.0401805 0.00828821 0 1.89102e-08
584 12 0.001 -0.0332149 -0.00330642 -0.0463689 -0.0526455 -0.0478768 0.0310681 0 4.65345e-08
585 12 0.001 -0.0324227 -0.00358782 -0.0468931 0.0156777 0.0415936 -0.00221431 0 5.9457e-08
916 15 0.001 -0.0120032 -0.00293383 -0.04691 -0.00625962 -0.0290064 0.011914 0 1.14507e-07
294 11 0.001 -0.0540477 -0.00285296 -0.0468061 -0.0168985 0.038107 -0.0015445 0 2.33683e-08
293 11 0.001 -0.0546944 -0.00225491 -0.0463328 0.00961091 -0.0206572 -0.00583324 0 1.7974e-08
583 12 0.001 -0.0339245 -0.00275729 -0.0459276 0.0421728 0.0622889 -0.0180921 0 3.74832e-08
915 15 0.001 -0.01284 -0.00283364 -0.0463879 -0.00464734 -0.00243381 0.0125143 0 3.98013e-08
1245 18 0.001 0.00687626 -0.00240364 -0.0463038 -0.00517593 -0.0218307 -0.0189862 0 1.18672e-08
1247 18 0.001 0.00852585 -0.00253038 -0.0473667 0.0164576 0.024351 -0.0233429 0 3.81421e-08
1246 18 0.001 0.00771882 -0.00260986 -0.0467957 -0.0143905 -0.00834304 0.0157692 0 2.55588e-08
1575 21 0.001 0.0266477 -0.00240223 -0.0465951 -0.0292397 0.0043328 -0.000571987 0 1.97632e-08
1577 21 0.001 0.0282476 -0.00261596 -0.0476947 0.0755843 -0.0560362 -0.0578209 0 2.35327e-07
1576 21 0.001 0.0274397 -0.00265993 -0.0471366 -0.0269518 0.0225539 0.0324078 0 2.00667e-07
292 11 0.001 -0.0550961 -0.00147844 -0.04586 0.0195511 0.0129079 0.00783629 0 9.06265e-09
582 12 0.001 -0.0344565 -0.00197092 -0.045606 -0.0220584 -0.0648115 0.00362962 0 5.81844e-08
913 15 0.001 -0.0141932 -0.00182566 -0.0453733 0.0382294 -0.000796402 -0.013336 0 3.69838e-08
914 15 0.001 -0.0135935 -0.00245426 -0.0458628 -0.0237678 -0.000316158 -3.10544e-05 0 1.03574e-08
1244 18 0.001 0.00610291 -0.00192259 -0.045907 0.0173964 0.0180149 0.0171047 0 1.80342e-08
1574 21 0.001 0.0259481 -0.00186622 -0.046123 0.0171389 -0.00373766 0.00539262 0 7.80859e-09
291 11 0.001 -0.055207 -0.000603773 -0.0453947 -0.0233327 0.00901519 -0.00321327 0 3.96355e-09
581 12 0.001 -0.0347749 -0.00104979 -0.0454242 -0.00828854 0.0569795 -0.000329645 0 9.97771e-08
580 12 0.001 -0.0348179 -5.01278e-05 -0.045325 0.0105973 -0.0499322 0.00319043 0 8.89582e-08
912 15 0.001 -0.0145507 -0.0010161 -0.0449278 -0.0413535 -0.00325207 0.0107301 0 4.60565e-08
911 15 0.001 -0.0146348 -0.000116801 -0.0445132 0.0126757 -0.00263534 -0.00752784 0 3.16019e-08
1243 18 0.001 0.00552887 -0.00120157 -0.0455336 0.00443097 0.0227367 -0.00727085 0 1.17896e-08
1242 18 0.001 0.00521524 -0.000317001 -0.0451903 -0.0553316 0.00548504 0.0231813 0 6.39408e-08
1573 21 0.001 0.0254454 -0.00110877 -0.0457136 -0.00371056 -0.00308308 0.000182226 0 2.32436e-11
1572 21 0.001 0.0251814 -0.00019916 -0.0454026 -0.00694966 0.0128126 0.000819062 0 9.47192e-09
290 11 0.001 -0.0550266 0.000277024 -0.0449593 -0.0135687 0.00950453 0.0142845 0 1.47796e-08
579 12 0.001 -0.0345576 0.000903575 -0.0452365 0.0237844 0.0391925 0.00388963 0 7.93257e-08
1241 18 0.001 0.00518792 0.000626778 -0.0448467 0.0667561 -0.0198103 -0.022308 0 6.66449e-08
1571 21 0.001 0.0251819 0.00078343 -0.0452164 0.0371244 -0.0241256 -0.0109076 0 1.03656e-08
578 12 0.001 -0.0340138 0.00174533 -0.0451619 -0.0503996 -0.0254987 -0.0062305 0 9.88768e-08
577 12 0.001 -0.0332553 0.00238176 -0.0451315 0.0197781 -0.0331357 -0.00557713 0 6.97146e-08
576 12 0.001 -0.0323366 0.00275385 -0.0451225 0.0104873 0.0512706 0.00975469 0 3.22663e-08
575 12 0.001 -0.031345 0.00285112 -0.0450689 0.0137519 -0.00747565 -0.00593965 0 1.23735e-08
574 12 0.001 -0.0303694 0.00265266 -0.0449703 -0.0140552 -0.014616 0.00308661 0 1.32901e-08
573 12 0.001 -0.0295077 0.00217559 -0.044808 -0.00370319 0.00192182 0.000948254 0 2.14975e-09
1240 18 0.001 0.00547702 0.00153568 -0.0445466 -0.0484621 -0.0309959 0.00081345 0 7.69059e-08
1570 21 0.001 0.0254713 0.00173179 -0.0451227 -0.067038 -0.000130134 0.00239396 0 6.24338e-08
1569 21 0.001 0.0260088 0.00255555 -0.0450196 0.0123586 0.0178412 0.0126465 0 7.33694e-08
1568 21 0.001 0.0267605 0.0031842 -0.0448566 -7.87661e-05 -0.0326357 -0.0264682 0 9.2751e-08
1567 21 0.001 0.0276616 0.00354342 -0.0446703 -0.00886692 0.0387111 0.00634947 0 1.55062e-07
276 11 0.001 -0.0510951 -0.00460835 -0.0429829 0.00760671 -0.00212652 0.00657666 0 4.3547e-08
277 11 0.001 -0.050291 -0.00427159 -0.0434771 -0.0447686 -0.0372855 0.0118555 0 1.27684e-07
278 11 0.001 -0.049595 -0.00368704 -0.0438608 -0.000278 0.00797998 0.00518727 0 1.8896e-07
279 11 0.001 -0.0490525 -0.00289557 -0.0440941 0.031324 0.0389032 -0.00693047 0 1.01243e-07
280 11 0.001 -0.0487155 -0.00195673 -0.0441761 0.0062206 -0.0180251 -0.0122532 0 1.52468e-08
568 12 0.001 -0.0288266 -0.00188611 -0.0428192 0.00497824 0.0598441 -0.0358036 0 1.35058e-07
281 11 0.001 -0.0486516 -0.000962625 -0.0441649 -0.0170593 -0.00528366 0.0049298 0 4.07718e-09
282 11 0.001 -0.0488792 1.84526e-06 -0.0440751 0.00829746 0.00405572 0.00606505 0 5.0957e-09
569 12 0.001 -0.0284126 -0.00113224 -0.043341 0.0357454 -0.0218339 -0.000848814 0 1.2785e-07
570 12 0.001 -0.0282625 -0.000264682 -0.0438237 -0.0477403 -0.0130713 0.0222837 0 5.01972e-08
289 11 0.001 -0.0545658 0.00105854 -0.0445379 0.0182317 -0.0255797 -0.0199452 0 1.27118e-08
288 11 0.001 -0.0538546 0.00165623 -0.0441801 -0.0148901 -0.0146573 0.00419551 0 2.97456e-08
284 11 0.001 -0.050111 0.00152334 -0.0438143 0.0374957 0.0194067 -0.0105841 0 2.24656e-08
283 11 0.001 -0.0493766 0.000852298 -0.0439312 -0.0251383 0.00660987 -0.000380196 0 2.28927e-08
571 12 0.001 -0.0284108 0.000633374 -0.0442332 0.0161901 0.0168174 -0.0143702 0 3.27253e-08
910 15 0.001 -0.0144184 0.000769123 -0.0441225 0.0060596 0.0205005 0.015381 0 2.63228e-08
1562 21 0.001 0.0311942 0.00131442 -0.0429627 -0.0204425 -0.0352671 -0.00867433 0 3.09023e-08
287 11 0.001 -0.0529687 0.00201449 -0.0439156 0.0119586 0.0035584 -0.00870689 0 2.973e-08
286 11 0.001 -0.0519867 0.00212421 -0.0437941 0.00759332 0.0403393 0.00947824 0 2.05916e-09
285 11 0.001 -0.0510018 0.00196733 -0.0437814 -0.0203627 -0.0446664 0.00965725 0 1.27506e-09
572 12 0.001 -0.028837 0.00147802 -0.0445651 0.00564813 -0.0146642 0.00829015 0 3.19657e-08
909 15 0.001 -0.0139213 0.00154659 -0.04374 0.00120684 0.00371752 -0.00305471 0 9.98798e-09
908 15 0.001 -0.0131934 0.00213237 -0.0433851 -0.00885389 -0.00539923 -0.00303592 0 6.42058e-09
907 15 0.001 -0.0123094 0.00246052 -0.0430631 0.00440555 -0.000746669 0.000938983 0 4.15785e-10
906 15 0.001 -0.0113546 0.00249374 -0.0427772 -0.00834552 0.00799797 -0.00434621 0 7.06143e-09
1239 18 0.001 0.00602973 0.00231833 -0.0443035 0.00233668 0.0360413 -0.00187481 0 7.30506e-08
1238 18 0.001 0.00680534 0.00291797 -0.0441347 0.021796 -0.00985374 0.00374321 0 5.66707e-09
1235 18 0.001 0.0096793 0.00300694 -0.0437113 -0.0412412 0.00818482 0.00820102 0 1.07223e-07
1233 18 0.001 0.0110958 0.00170004 -0.0433523 -0.0101628 -0.0391229 0.017164 0 7.85726e-08
1234 18 0.001 0.0104858 0.00246909 -0.0435291 0.0451816 -0.0179421 -0.0113134 0 1.07408e-07
1564 21 0.001 0.0303043 0.00289601 -0.0436919 -0.0489907 0.0439736 -0.0256383 0 1.56731e-07
1563 21 0.001 0.0308786 0.0021728 -0.0433455 0.0354578 0.00711255 0.0252193 0 1.3753e-07
1237 18 0.001 0.00773676 0.00324939 -0.0439976 0.0212092 -0.0156238 0.00645727 0 4.64568e-08
1236 18 0.001 0.00873082 0.00327552 -0.0438606 -0.0216342 0.0285316 -0.0113793 0 4.51856e-08
1565 21 0.001 0.0295128 0.00340545 -0.0440413 0.0243328 -0.0290246 -0.00572761 0 4.94004e-08
1566 21 0.001 0.0286069 0.00362286 -0.0443937 0.0264645 -0.00550286 0.0211984 0 7.5016e-08
274 11 0.001 -0.0526567 -0.00443552 -0.0417818 -0.0188655 -0.0355275 0.00784516 0 8.73068e-09
275 11 0.001 -0.0519057 -0.00466639 -0.042398 0.0119092 0.0262575 -0.00950995 0 2.04704e-08
566 12 0.001 -0.0302687 -0.00272763 -0.0417961 -0.0379896 -0.0426073 0.0146471 0 6.51475e-08
567 12 0.001 -0.029468 -0.00243297 -0.0423012 0.00368144 -0.00536751 0.0115737 0 8.50471e-08
1228 18 0.001 0.00994622 -0.00253959 -0.0422216 -0.00484021 0.00565521 -0.00144686 0 2.42877e-09
1227 18 0.001 0.00908545 -0.00288228 -0.0418566 0.0011935 0.0063362 0.0077355 0 1.59674e-09
1229 18 0.001 0.010687 -0.00193479 -0.0424993 0.00950717 -0.0410267 0.00841115 0 6.629e-08
1557 21 0.001 0.028722 -0.00224459 -0.0415212 0.0230356 -0.0216668 -0.00285656 0 3.28351e-08
1558 21 0.001 0.0296276 -0.00191316 -0.0417745 0.0111797 0.0220958 -0.0135028 0 4.40069e-08
901 15 0.001 -0.00872197 -0.000992716 -0.0415541 0.0196869 0.035476 0.00781983 0 4.67523e-08
1230 18 0.001 0.0112215 -0.00113086 -0.042713 -0.0175587 0.0398571 -0.00750468 0 6.54743e-08
1231 18 0.001 0.011477 -0.000191032 -0.0429232 0.0186979 -0.0179979 -0.00397679 0 1.41974e-08
1559 21 0.001 0.0303962 -0.00131551 -0.0420186 0.0017526 -0.0410838 0.00716719 0 4.55852e-08
1560 21 0.001 0.0309436 -0.000532257 -0.0422982 -0.0230075 0.0383933 -0.00758322 0 2.81807e-08
902 15 0.001 -0.00873967 -2.91778e-05 -0.0418256 -0.00128944 -0.025658 -0.0121314 0 1.81708e-08
903 15 0.001 -0.00905195 0.000881025 -0.0420831 0.0300721 0.0337149 0.0135063 0 2.36058e-09
1232 18 0.001 0.0114354 0.000775628 -0.0431472 -0.000774933 0.0520162 -0.00597525 0 9.22777e-08
1561 21 0.001 0.0312151 0.000379211 -0.0426143 0.0250317 -0.0145043 0.0134992 0 2.8165e-08
905 15 0.001 -0.0104305 0.00222423 -0.0425282 0.0333094 -0.014106 0.00981998 0 4.61946e-08
904 15 0.001 -0.00962777 0.0016669 -0.0423008 -0.0507638 -0.022081 -0.0121458 0 4.09746e-08
273 11 0.001 -0.0532814 -0.00395217 -0.0411693 0.0189579 -0.010554 -0.0246174 0 5.43806e-08
272 11 0.001 -0.0537069 -0.00325175 -0.0406141 0.00393602 0.0172483 0.00277557 0 6.13601e-08
897 15 0.001 -0.0112275 -0.00348376 -0.040306 -0.0154988 -0.0409772 -0.00061508 0 4.51212e-08
898 15 0.001 -0.0103359 -0.00321657 -0.0406439 0.0167605 0.0299224 0.00166937 0 4.33938e-08
271 11 0.001 -0.0538746 -0.00239853 -0.0401342 0.0060012 0.00362756 0.00834079 0 1.53681e-08
564 12 0.001 -0.032008 -0.00245233 -0.0408989 0.0171764 0.0189556 -0.0126108 0 1.68391e-09
563 12 0.001 -0.0327211 -0.00187978 -0.0405034 0.00075675 -0.021615 0.00867169 0 5.25967e-09
565 12 0.001 -0.031158 -0.00274518 -0.0413325 0.0193912 0.0270738 -0.00278213 0 3.75767e-08
899 15 0.001 -0.00956283 -0.00266714 -0.0409498 0.0268745 0.00653051 -0.00457876 0 2.94612e-08
900 15 0.001 -0.0089982 -0.00189408 -0.0412473 -0.0478023 -0.0272282 -0.00354768 0 5.84791e-08
1225 18 0.001 0.00737251 -0.0027123 -0.0408836 0.0310029 -0.00584924 -0.0174217 0 4.92911e-08
1224 18 0.001 0.00671189 -0.00223709 -0.040315 0.0081741 -0.00653216 -0.00741312 0 7.31623e-08
1226 18 0.001 0.00820089 -0.00293858 -0.0414014 -0.0290842 -0.0142579 0.00142513 0 3.28319e-08
1555 21 0.001 0.0269172 -0.00202434 -0.0407849 -0.0258686 -0.0249529 0.0153966 0 1.3278e-08
1556 21 0.001 0.0277889 -0.00228699 -0.0411898 -0.0177691 0.0367409 0.00440756 0 3.31037e-08
562 12 0.001 -0.0332156 -0.00111071 -0.0401117 -0.050943 -0.00755595 0.00199408 0 5.03431e-09
1554 21 0.001 0.0262048 -0.00150111 -0.0403159 0.0465113 0.0284897 -0.0208335 0 1.4208e-08
1553 21 0.001 0.0257387 -0.000759826 -0.0398416 -0.0182399 -0.0347794 0.000463949 0 3.18846e-08
895 15 0.001 -0.0130315 -0.00314075 -0.0396005 -0.00267785 0.011629 -0.000939767 0 4.00895e-09
896 15 0.001 -0.012159 -0.00346146 -0.0399555 0.004238 0.0156249 0.0023134 0 5.5092e-09
270 11 0.001 -0.0537521 -0.0014929 -0.0397393 -0.0373641 -0.00561204 0.00200687 0 3.05419e-08
894 15 0.001 -0.0137614 -0.00255441 -0.0392561 -0.0239037 0.0210317 0.0223034 0 1.18527e-07
893 15 0.001 -0.014285 -0.00175997 -0.0389233 0.0057613 -0.0327061 -0.0216503 0 1.19059e-07
269 11 0.001 -0.0533547 -0.000631367 -0.0394515 0.0330709 0.000558963 -0.00779289 0 3.064e-08
268 11 0.001 -0.0526955 9.13104e-05 -0.0392662 0.000311052 -0.000500813 0.0147045 0 1.92618e-09
561 12 0.001 -0.0334492 -0.000226156 -0.0397149 0.069748 0.00370191 -0.0116762 0 2.49893e-09
892 15 0.001 -0.0145526 -0.000838928 -0.0386477 0.0136855 -0.0111866 0.00205545 0 7.09937e-09
1223 18 0.001 0.00629083 -0.00157265 -0.0397151 0.0200261 0.0191648 0.0100662 0 6.16389e-08
1222 18 0.001 0.00615178 -0.000791441 -0.0391154 -0.0634924 -0.0187796 0.0058824 0 3.04001e-08
267 11 0.001 -0.0518412 0.00059334 -0.0391553 -0.0278706 0.0327217 -0.0231577 0 1.72918e-08
266 11 0.001 -0.0508782 0.00082991 -0.0391078 0.00132466 -0.040343 0.0347857 0 3.51492e-08
265 11 0.001 -0.0498928 0.000758376 -0.0390125 0.0330937 0.0394454 -0.0330558 0 1.85757e-08
264 11 0.001 -0.0489692 0.000397097 -0.0389026 -0.00576064 -0.0471435 0.0335934 0 4.45195e-08
560 12 0.001 -0.033371 0.000677404 -0.0393048 -0.0470779 0.0280086 0.0250262 0 3.25628e-08
559 12 0.001 -0.0330305 0.00148666 -0.0388208 0.0241045 -0.0257941 -0.00997754 0 3.39486e-08
891 15 0.001 -0.0145267 0.000123872 -0.0384003 -0.0137545 0.012217 -0.00229035 0 6.57985e-09
1221 18 0.001 0.00628755 1.71093e-05 -0.0385572 0.0283894 0.0227604 -0.00218661 0 2.53375e-08
1552 21 0.001 0.0255577 8.97144e-05 -0.0393639 0.012363 -0.0216941 -0.0114852 0 1.49645e-07
1551 21 0.001 0.0256777 0.000952775 -0.0389029 -0.0369592 0.0598606 0.0283682 0 1.28019e-07
558 12 0.001 -0.0324409 0.00212254 -0.0383248 -0.0307581 0.0145002 -0.0197216 0 2.23659e-08
1550 21 0.001 0.0260758 0.00175739 -0.0384622 0.0200213 0.0052255 0.00179825 0 3.73949e-08
261 11 0.001 -0.0473863 -0.00185621 -0.037936 -0.0240439 0.011878 -0.0274028 0 2.43472e-08
263 11 0.001 -0.0482063 -0.000224786 -0.0387061 0.0140726 -0.00578034 -0.0275944 0 1.22117e-07
262 11 0.001 -0.0476698 -0.00102241 -0.0384096 -0.00985187 0.0317836 0.025162 0 8.71093e-08
881 15 0.001 -0.00808791 -0.000767357 -0.0372544 -0.0145364 -0.0218914 0.00678536 0 5.16723e-08
1542 21 0.001 0.0318015 -0.000190808 -0.0368975 -0.0129717 0.0345619 0.0180392 0 5.5623e-08
890 15 0.001 -0.0142086 0.00104181 -0.0381794 0.036422 -0.00981769 0.00387928 0 5.02397e-09
882 15 0.001 -0.00815267 0.000204247 -0.037431 0.0203294 0.00924945 0.0069205 0 8.98231e-08
883 15 0.001 -0.00850169 0.00112683 -0.0375222 -0.017849 0.0218846 -0.00995694 0 3.9344e-08
1220 18 0.001 0.00670936 0.000785695 -0.0380817 0.0134419 0.023273 0.0315987 0 8.97817e-08
1215 18 0.001 0.0110797 0.00136631 -0.0369106 -0.0121253 0.0330918 0.00608076 0 4.71462e-08
1543 21 0.001 0.0315865 0.000789099 -0.036948 -0.00816836 -0.0360253 -0.0108052 0 5.48591e-08
557 12 0.001 -0.0316694 0.00252888 -0.0378508 0.0058777 0.0176073 -0.00333078 0 3.6396e-08
556 12 0.001 -0.0308147 0.00264089 -0.0373585 0.00347416 -0.0584941 0.0138859 0 1.84486e-08
889 15 0.001 -0.0136171 0.00182197 -0.0379801 -0.0451281 0.0128768 -0.000107646 0 1.68771e-08
888 15 0.001 -0.0128243 0.0024007 -0.0378272 0.0170696 0.000484312 -0.00648778 0 1.27444e-08
887 15 0.001 -0.0118863 0.00272107 -0.0377275 -0.0170177 -0.00510858 0.00961806 0 2.86133e-08
886 15 0.001 -0.0108977 0.00274132 -0.0376543 0.00919788 -0.00629863 -0.0114196 0 3.48385e-08
884 15 0.001 -0.00912067 0.00190744 -0.0375783 0.00991768 -0.0196297 0.000119259 0 1.73137e-08
885 15 0.001 -0.00994481 0.00245956 -0.037618 0.00420994 0.0229486 0.00795782 0 2.32867e-08
1219 18 0.001 0.00738832 0.00141554 -0.0376874 0.012813 -0.0466467 -0.0413182 0 9.7719e-08
1218 18 0.001 0.00825853 0.0018267 -0.0374165 -0.0209422 0.0453239 0.0216026 0 1.50192e-08
1217 18 0.001 0.00922458 0.00197109 -0.037204 -0.0317658 -0.0442355 -0.00677254 0 4.12129e-08
1216 18 0.001 0.0101871 0.00180926 -0.0370325 0.0478097 -0.00110121 -0.00166381 0 8.09915e-08
1549 21 0.001 0.0267303 0.00239818 -0.0380552 0.0242302 -0.0596625 -0.0127029 0 3.18545e-08
1548 21 0.001 0.0275775 0.00279061 -0.0377001 -0.0312492 0.0603978 0.00289453 0 3.63895e-09
1547 21 0.001 0.0285219 0.00292426 -0.0374116 -0.0173363 -0.0372805 0.00239816 0 2.34127e-08
1546 21 0.001 0.0294729 0.00276103 -0.0371811 0.0537993 0.0146623 -0.00285819 0 7.00254e-08
1544 21 0.001 0.0310883 0.00165236 -0.0369798 0.04675 -0.00339828 1.01904e-05 0 6.08157e-08
1545 21 0.001 0.030369 0.00232734 -0.0370515 -0.0637978 0.00788201 0.0024625 0 1.07485e-07
258 11 0.001 -0.0482021 -0.00390318 -0.0360554 -0.0291965 -0.0223895 0.023 0 6.10384e-08
259 11 0.001 -0.0476781 -0.00336307 -0.036703 0.030524 0.0049202 -0.0160077 0 2.11536e-08
878 15 0.001 -0.00949989 -0.00311823 -0.0363126 -0.0302934 -0.0109979 0.0202473 0 4.83156e-08
1538 21 0.001 0.0301582 -0.0032615 -0.0354987 0.000699477 -0.00598587 0.00345957 0 3.54337e-08
260 11 0.001 -0.0473947 -0.00266234 -0.0373563 -0.00532287 -0.0069905 0.0206705 0 1.99594e-08
880 15 0.001 -0.00831873 -0.00170452 -0.0370075 0.00936574 -0.0103284 -0.0102 0 6.78019e-10
879 15 0.001 -0.00881375 -0.00251645 -0.0367066 0.0126347 0.00367731 -0.001985 0 8.15363e-09
1211 18 0.001 0.0124246 -0.00199631 -0.0358898 -0.0033977 0.00893444 -0.00991208 0 1.14894e-08
1210 18 0.001 0.0120801 -0.00278278 -0.0353841 -0.00110985 0.0269857 -0.00443448 0 3.22061e-08
1539 21 0.001 0.0308528 -0.00277781 -0.0360329 -0.0224914 -0.0255549 0.020292 0 5.5108e-08
1540 21 0.001 0.0313999 -0.00206051 -0.036442 0.00196123 0.00525284 -0.00539943 0 5.84502e-08
1212 18 0.001 0.0124947 -0.00108657 -0.0362999 0.000762934 0.00177886 -0.00180955 0 3.21036e-08
1213 18 0.001 0.0122809 -0.000152904 -0.0365927 0.0212931 -0.0424425 0.0165948 0 8.3497e-08
1541 21 0.001 0.0317305 -0.00117004 -0.0367298 0.0166156 0.00748094 -0.0154115 0 1.95106e-08
553 12 0.001 -0.0288604 0.00123221 -0.0357453 -0.0232527 0.0114824 -0.0155332 0 3.09034e-08
1214 18 0.001 0.0118004 0.000692284 -0.0367737 -0.0213569 0.0122639 -0.0171808 0 6.31296e-08
555 12 0.001 -0.029999 0.00242638 -0.0368285 0.0132687 0.0212473 0.0111266 0 8.8727e-09
554 12 0.001 -0.029324 0.00193828 -0.0362755 0.000327225 0.0102484 -0.00746835 0 8.36802e-09
254 11 0.001 -0.0513635 -0.00362897 -0.0340184 -0.0118292 -0.0129908 -0.00584053 0 1.69911e-08
256 11 0.001 -0.0497824 -0.00432984 -0.034951 0.00513824 -0.0142114 0.0120207 0 3.00821e-08
255 11 0.001 -0.0506193 -0.00411905 -0.0344599 -0.00556144 0.0079889 -0.00249557 0 2.07553e-08
257 11 0.001 -0.048938 -0.00424969 -0.0354674 0.0266363 0.0176073 -0.0281506 0 5.95298e-08
547 12 0.001 -0.0315157 -0.00286086 -0.033783 0.0206041 0.0122883 -0.0222796 0 7.54615e-08
875 15 0.001 -0.0119047 -0.00323324 -0.0346912 -0.0319191 -0.008138 0.0179586 0 2.80089e-08
876 15 0.001 -0.0111341 -0.0034909 -0.0352654 0.00567212 -0.0110527 -0.00658865 0 3.92432e-09
877 15 0.001 -0.010305 -0.00345585 -0.0358179 0.0189499 0.0215828 -0.0116032 0 4.03614e-08
1208 18 0.001 0.0107892 -0.00364994 -0.0341902 -0.0137906 -0.0132873 0.0163982 0 2.31275e-08
1209 18 0.001 0.0115108 -0.0033513 -0.0348052 -0.00289125 -0.00313365 0.00444213 0 4.06999e-08
1536 21 0.001 0.0286761 -0.00335458 -0.0342042 -0.00209395 -0.0486935 0.00730709 0 4.4831e-08
1537 21 0.001 0.0294033 -0.00346138 -0.0348716 0.0206358 0.0350132 -0.0274527 0 3.6498e-08
548 12 0.001 -0.0305694 -0.00262223 -0.0340251 -0.0196002 0.0072738 0.0234122 0 7.96856e-08
550 12 0.001 -0.0291232 -0.00138064 -0.0345084 0.0515615 0.00389159 -0.00378548 0 6.41469e-08
549 12 0.001 -0.0297419 -0.00210601 -0.0342462 -0.0414098 -0.0229658 0.0010247 0 7.32128e-08
874 15 0.001 -0.0125387 -0.00270974 -0.0341187 0.0430547 0.0221861 -0.018898 0 2.40848e-08
551 12 0.001 -0.0287464 -0.000525479 -0.0348545 -0.0318318 0.0366597 -0.0146948 0 5.29869e-08
552 12 0.001 -0.0286623 0.000384324 -0.0352715 0.0314697 -0.0390933 0.0281201 0 8.3607e-08
546 12 0.001 -0.0324858 -0.00280276 -0.0335505 0.0297147 -0.0473177 -0.0127091 0 8.4814e-08
1207 18 0.001 0.00999844 -0.00365584 -0.0335769 0.0245564 -0.00969981 -0.0164983 0 2.94004e-08
1206 18 0.001 0.00923383 -0.00337037 -0.0330113 -0.00186733 -0.0173517 -0.00190739 0 5.1677e-08
1535 21 0.001 0.0280752 -0.002986 -0.033507 -0.01292 0.0350455 0.0181481 0 4.02413e-08
252 11 0.001 -0.0522271 -0.00204647 -0.0332519 -0.0136445 0.0472887 0.00223287 0 8.37836e-08
253 11 0.001 -0.0519281 -0.00291003 -0.0336292 0.0194492 -0.0134901 0.00393153 0 7.73248e-08
545 12 0.001 -0.0333748 -0.00247224 -0.0332747 -0.0333605 0.0690936 0.0349151 0 1.60263e-07
544 12 0.001 -0.0341134 -0.00187787 -0.0329379 0.0151653 -0.0526594 -0.0284508 0 1.06277e-07