ITEM: TIMESTEP
300000
ITEM: NUMBER OF ATOMS
1620
ITEM: BOX BOUNDS ff ff ff
-6.0000000000000005e-02 6.0000000000000005e-02
-6.0000000000000001e-03 6.0000000000000001e-03
-5.5000000000000000e-02 5.5000000000000000e-02
ITEM: ATOMS id type radius x y z fx fy fz c_bendingE c_stretchingE
2 2 0.001 -0.05 -3.23381e-17 -0.0496252 -0.00998561 -0.00740017 0.00573019 -0.000426666 1.57445e-08
300 11 0.001 -0.0499359 -0.000886892 -0.0491671 0.0135064 0.0168479 -0.00915913 -0.000426666 1.97897e-08
4 4 0.001 -0.03 -3.23381e-17 -0.0496252 0.029665 0.00851658 -0.00241714 -0.000426661 5.14586e-08
590 12 0.001 -0.0298521 -0.000962242 -0.0494183 0.00627645 0.00846083 -0.00606019 -0.000426661 2.80976e-08
6 6 0.001 -0.01 -3.23381e-17 -0.0496252 -0.0171229 -0.0378979 0.0264512 -0.000426666 7.99559e-08
920 15 0.001 -0.00985699 -0.000924784 -0.0492613 -0.00758822 0.0140137 -0.00442702 -0.000426666 5.40609e-08
8 8 0.001 0.01 -3.23381e-17 -0.0496252 0.0100464 -0.0116068 0.0154418 0 2.84252e-08
1250 18 0.001 0.0098908 -0.000921041 -0.0492522 0.0188671 0.00861914 0.00356394 0 7.67148e-09
10 10 0.001 0.03 -3.23381e-17 -0.0496252 -0.00249109 -0.00459293 -0.00156408 -0.000426643 1.61158e-08
1580 21 0.001 0.0299575 -0.000942645 -0.0492918 0.0159587 0.0104599 -0.00792022 -0.000426643 1.60928e-08
591 13 0.001 -0.0490518 4.36751e-05 -0.0496677 0.00787232 -0.0193204 -0.00730942 -0.000426666 5.59999e-09
592 13 0.001 -0.0481018 8.08819e-05 -0.0497079 0.0237673 0.0344745 0.0094456 0 2.8297e-08
593 13 0.001 -0.0471459 0.000124595 -0.0497428 -0.0291727 -0.0128158 -0.00685387 0 3.19129e-08
594 13 0.001 -0.046197 0.000165062 -0.0497746 0.0324682 -0.00605046 0.0180854 0 3.78893e-08
595 13 0.001 -0.0452398 0.000198975 -0.0498012 -0.0270015 -0.00421779 -0.0265184 0 3.40794e-08
596 13 0.001 -0.0442891 0.000227654 -0.0498308 0.00395853 -0.00406924 0.0126859 0 5.93503e-10
598 13 0.001 -0.0423866 0.000287218 -0.0498794 0.000262503 -0.0351878 0.000857231 0 1.82617e-09
597 13 0.001 -0.0433374 0.000255279 -0.0498571 -0.00474954 0.0298998 3.06316e-06 0 7.28394e-10
599 13 0.001 -0.0414358 0.000311812 -0.049898 -0.00402667 0.0412133 0.0059313 0 4.38871e-09
600 13 0.001 -0.0404857 0.000336747 -0.0499148 0.0255387 -0.0369201 -0.0246995 0 2.31896e-08
601 13 0.001 -0.0395291 0.000346645 -0.0499329 0.00478912 0.00674599 0.0342184 0 5.08197e-08
603 13 0.001 -0.0376147 0.000345483 -0.0499507 -0.00119254 -0.0243623 0.0626928 0 3.3855e-08
602 13 0.001 -0.0385712 0.000348149 -0.0499419 -0.00579977 0.0155724 -0.0491546 0 4.87526e-08
604 13 0.001 -0.0366585 0.000329709 -0.0499395 0.000268057 0.0175594 -0.0356036 0 3.11135e-08
606 13 0.001 -0.0347451 0.0002835 -0.049911 -0.0342864 -0.00695843 0.0115128 0 3.93496e-08
605 13 0.001 -0.0357025 0.000310391 -0.0499272 0.00703674 0.00181296 -0.000659034 0 4.65248e-08
607 13 0.001 -0.0337966 0.000244496 -0.049887 0.0250596 -0.00214071 0.0013796 0 1.99107e-08
609 13 0.001 -0.0318887 0.000132784 -0.0498294 0.00876031 0.00407667 0.000133385 0 5.11525e-08
608 13 0.001 -0.0328425 0.000193665 -0.0498585 0.00211676 0.00101598 -0.0138762 0 2.69839e-08
610 13 0.001 -0.0309333 6.6825e-05 -0.0497938 -0.0335824 0.00220425 0.00998958 0 3.90183e-08
921 16 0.001 -0.0290569 0.000164834 -0.0495673 -0.0376197 -0.00705894 -0.00921921 -0.000426661 5.65906e-08
923 16 0.001 -0.0271652 0.000330239 -0.0496583 -0.00294705 0.045571 -0.0417752 0 2.51512e-10
922 16 0.001 -0.0281128 0.000251096 -0.0496135 0.0138778 -0.00950238 0.029873 0 1.07981e-08
924 16 0.001 -0.0262169 0.000406541 -0.0497074 0.0168202 -0.0447798 0.0180499 0 1.17308e-08
926 16 0.001 -0.0243103 0.000495847 -0.0497895 0.00317072 -0.000684445 0.00101676 0 1.5723e-08
925 16 0.001 -0.0252635 0.000459011 -0.049751 -0.00463111 0.00726739 0.000495476 0 1.73109e-08
927 16 0.001 -0.0233557 0.00052063 -0.0498235 -0.0105663 0.0060026 -0.0118983 0 1.05219e-08
929 16 0.001 -0.0214427 0.000545498 -0.0498757 -0.010109 -0.0308883 -0.00443966 0 1.06449e-07
928 16 0.001 -0.0224033 0.000537411 -0.0498542 0.0314421 0.00770095 0.0116937 0 7.15387e-08
930 16 0.001 -0.0204845 0.000540215 -0.0498885 -0.0221055 0.0401166 0.0110664 0 3.55074e-08
931 16 0.001 -0.0195318 0.000534903 -0.0498921 0.0153668 -0.0322656 -0.00731473 0 1.85164e-08
932 16 0.001 -0.0185753 0.000519758 -0.0498908 -0.0253905 0.0293219 0.00129442 0 2.30135e-08
933 16 0.001 -0.0176252 0.000503421 -0.0498865 0.0325394 -0.005878 -0.00165334 0 4.00051e-08
934 16 0.001 -0.0166673 0.000476755 -0.0498797 0.00625437 -0.0241007 -0.00860922 0 9.48363e-08
935 16 0.001 -0.0157082 0.000433527 -0.0498703 -0.00324147 0.0198977 0.0213961 0 1.04977e-07
937 16 0.001 -0.0137949 0.00032139 -0.0498381 -0.000741515 -0.00234023 -0.0105305 0 5.78534e-08
936 16 0.001 -0.0147506 0.000382855 -0.049854 -0.00514907 -0.00427128 -0.0113874 0 7.54311e-08
938 16 0.001 -0.0128402 0.000247868 -0.0498238 -0.00100751 0.00513298 -0.00304588 0 5.19287e-08
940 16 0.001 -0.0109438 6.96618e-05 -0.0497734 0.0416851 0.00467024 -0.0424076 0 4.84221e-08
939 16 0.001 -0.0118869 0.000162978 -0.0498051 -0.0382261 -0.00268977 0.0375921 0 4.16037e-08
1251 19 0.001 -0.00906255 0.000165043 -0.0495776 0.0107752 0.00508932 0.00913032 -0.000426666 9.46739e-09
1252 19 0.001 -0.00811179 0.000246156 -0.0496247 -0.0330004 0.0158411 -0.015262 0 3.11879e-08
1254 19 0.001 -0.00620993 0.000387248 -0.0497183 -0.0179048 -0.00502978 -0.000860186 0 1.12286e-07
1253 19 0.001 -0.00716844 0.000322756 -0.0496731 0.0576984 -0.00957487 0.000508955 0 1.10526e-07
1255 19 0.001 -0.00525492 0.000440033 -0.0497571 0.0132398 -0.00553564 0.00475657 0 8.92701e-08
1257 19 0.001 -0.00333803 0.000531074 -0.0498094 -0.024164 -0.0139489 -0.0127615 0 4.97836e-08
1256 19 0.001 -0.00429605 0.000485705 -0.0497872 -0.00557952 0.0313694 0.0113714 0 1.14336e-07
1258 19 0.001 -0.00238557 0.00056432 -0.0498301 0.00222097 -0.0208923 -0.00883937 0 2.60555e-09
1260 19 0.001 -0.000473937 0.000589865 -0.0498577 -0.00431343 -0.0211778 0.0343974 0 5.92649e-08
1259 19 0.001 -0.00143216 0.00058094 -0.0498482 0.0183203 0.0220352 0.00657693 0 3.72813e-08
1262 19 0.001 0.00143515 0.000578533 -0.049859 0.0278401 -0.0309686 0.0263451 0 4.30012e-08
1261 19 0.001 0.000483296 0.000586252 -0.0498556 -0.0214081 0.029586 -0.0537985 0 2.40561e-08
1263 19 0.001 0.00239378 0.000556159 -0.0498553 -0.0084858 0.0169776 -0.00328694 0 6.14224e-08
1264 19 0.001 0.00335001 0.000528333 -0.0498461 0.0164749 0.00986035 0.0156426 0 8.89176e-08
1265 19 0.001 0.00430998 0.000492976 -0.0498313 -0.0463988 -0.0186473 -0.0206977 0 7.94743e-08
1266 19 0.001 0.00525788 0.000441796 -0.0498198 0.0417284 0.000383167 -0.00188859 0 6.30978e-08
1268 19 0.001 0.00716911 0.00030619 -0.0497919 -0.00107341 -0.0102247 -0.0182017 0 3.43856e-08
1267 19 0.001 0.00621541 0.000378418 -0.0498081 -0.012234 0.00950159 0.0205522 0 7.16131e-08
1269 19 0.001 0.00812174 0.00022192 -0.0497783 -0.0113236 0.0143081 0.00440523 0 1.76805e-08
1270 19 0.001 0.00907086 0.000133282 -0.0497618 -0.0215569 -0.00227035 -0.00324586 0 1.59936e-08
1582 22 0.001 0.0118868 0.000212338 -0.049511 0.0221111 -0.027688 0.0570111 0 1.91179e-08
1581 22 0.001 0.010939 0.000123668 -0.0495041 -0.0103877 0.0145405 -0.0333366 0 6.29504e-09
1583 22 0.001 0.0128407 0.000284956 -0.0495151 0.00546252 0.0100988 -0.0474648 0 5.48953e-08
1585 22 0.001 0.0147478 0.000398779 -0.0495371 0.00709992 -0.00864254 0.000880398 0 2.31353e-09
1584 22 0.001 0.0137971 0.000345713 -0.0495267 -0.0251129 0.00965915 0.0114537 0 3.59826e-08
1586 22 0.001 0.0157007 0.0004411 -0.0495434 0.00131058 0.0200982 0.0217818 0 6.35953e-09
1588 22 0.001 0.0176073 0.000489966 -0.0495526 -0.00671651 0.00418141 0.00588332 0 1.47293e-09
1587 22 0.001 0.0166545 0.000475095 -0.0495449 -0.00509809 -0.0245938 -0.0273226 0 4.418e-09
1589 22 0.001 0.0185586 0.000491348 -0.0495615 0.017472 0.00532103 0.00901469 0 1.18104e-08
1590 22 0.001 0.0195142 0.000481903 -0.0495702 -0.00705872 -0.0021529 -0.00672084 0 1.30484e-08
1591 22 0.001 0.0204678 0.00046061 -0.0495826 0.00719001 -0.0140117 -0.01134 0 1.45559e-08
1592 22 0.001 0.0214229 0.00042798 -0.0495985 -0.0162087 0.0147301 0.02093 0 1.27542e-08
1593 22 0.001 0.0223739 0.00039357 -0.0496115 0.0103808 0.0116032 -0.0135673 0 3.71062e-09
1594 22 0.001 0.0233272 0.000357487 -0.0496261 -0.00768664 -0.0248212 -0.0139521 0 3.18617e-09
1595 22 0.001 0.0242786 0.000312792 -0.0496397 0.0273585 0.0197679 0.0328225 0 4.46099e-08
1596 22 0.001 0.0252366 0.000266578 -0.0496414 -0.0165377 -0.0137723 -0.0108716 0 5.21176e-08
1597 22 0.001 0.0261903 0.000215451 -0.04964 -0.0116137 0.00733133 -0.00323331 0 7.59677e-09
1599 22 0.001 0.0280942 0.000110278 -0.0496368 0.00204651 -0.00505835 0.00378042 0 1.37198e-08
1598 22 0.001 0.027141 0.000163432 -0.0496383 0.0102369 0.00108167 -0.00414981 0 5.29227e-09
1600 22 0.001 0.0290479 5.51051e-05 -0.0496331 -0.00850392 -0.00336177 0.00553111 -0.000426643 1.03734e-08
296 11 0.001 -0.0522649 -0.00320887 -0.0473425 0.0156455 0.0191545 -0.00733766 0 3.03257e-08
587 12 0.001 -0.0309657 -0.0033071 -0.0481434 -0.00848517 0.0236665 -0.00553774 0 1.1196e-08
917 15 0.001 -0.0111013 -0.00319211 -0.0479475 -0.0112442 -0.0111818 0.00436634 0 1.18107e-08
916 15 0.001 -0.0119092 -0.0035218 -0.0474647 -0.00672385 0.0134789 0.0006653 0 1.735e-09
1576 21 0.001 0.0274394 -0.0031098 -0.0475282 -0.0131994 -0.00510938 0.0047418 0 1.2807e-08
297 11 0.001 -0.0514015 -0.0029634 -0.047775 0.000310284 -0.00284218 -0.0101 0 1.58693e-09
299 11 0.001 -0.0501668 -0.00173356 -0.0487005 -0.0314389 0.00107606 0.000580295 0 8.90571e-09
298 11 0.001 -0.0506795 -0.00245286 -0.0482379 0.0202798 -0.0158263 0.0106915 0 1.31418e-09
588 12 0.001 -0.0303711 -0.00269784 -0.0486684 -0.00471085 -0.030991 0.0134602 0 3.21275e-08
589 12 0.001 -0.0299859 -0.00189235 -0.0491011 0.00159023 -0.000395429 0.00250636 0 4.75853e-08
918 15 0.001 -0.0104522 -0.00260962 -0.0484232 0.0209267 0.00412097 -0.00250862 0 1.19443e-08
919 15 0.001 -0.0100164 -0.001826 -0.0488601 -0.00495917 0.00943241 -0.00519969 0 5.57696e-09
1246 18 0.001 0.00728456 -0.00290529 -0.0473889 -0.00612218 -0.000798985 -0.0126037 0 5.79996e-10
1247 18 0.001 0.00814421 -0.00279248 -0.0478824 -0.00378491 0.00470446 0.00307418 0 4.92388e-10
1248 18 0.001 0.00891857 -0.00238808 -0.048363 0.00277106 0.000544694 0.00703391 0 1.38183e-10
1249 18 0.001 0.00952572 -0.00173802 -0.048814 -0.00419023 -0.0105425 -0.011878 0 4.41123e-10
1577 21 0.001 0.0283056 -0.00293986 -0.0479838 0.0249289 0.00694363 -0.00701959 0 2.36796e-08
1579 21 0.001 0.0296448 -0.00179613 -0.0488857 -0.0323764 -0.00276384 0.0159914 0 2.19767e-08
1578 21 0.001 0.0290734 -0.00248375 -0.0484344 0.00443253 -0.00305613 -0.0106454 0 3.10653e-08
295 11 0.001 -0.0531705 -0.00315005 -0.0469433 -0.0232574 -0.00287457 0.0153264 0 3.33341e-08
584 12 0.001 -0.0332884 -0.00346265 -0.0464019 0.0020982 0.0200221 0.00712731 0 4.89456e-09
585 12 0.001 -0.0325171 -0.00370184 -0.046987 0.000658885 -0.0241091 -0.00604537 0 5.34966e-09
586 12 0.001 -0.0317114 -0.00365045 -0.0475759 0.00192189 -0.00266446 0.00443364 0 6.46158e-09
914 15 0.001 -0.013657 -0.0033006 -0.0465716 0.0238897 0.0165229 -0.013873 0 1.21385e-08
915 15 0.001 -0.0127935 -0.0035586 -0.047003 -0.00567161 -0.0202559 0.00346054 0 6.38754e-09
1575 21 0.001 0.0265657 -0.0029756 -0.0470679 0.010225 -0.00211824 -0.00716646 0 1.44344e-08
293 11 0.001 -0.0547513 -0.0021832 -0.0462777 0.000417463 0.0171142 0.0033224 0 1.79125e-08
294 11 0.001 -0.0540309 -0.00279528 -0.0465808 0.0108697 -0.0211187 -0.0111612 0 2.06973e-08
913 15 0.001 -0.0143921 -0.00276465 -0.0461708 -0.0114139 -0.0158076 0.00910783 0 1.28996e-08
1243 18 0.001 0.00515615 -0.00153026 -0.0459849 -0.00483215 -0.00267677 0.00224618 0 2.40204e-09
1244 18 0.001 0.0057005 -0.00223947 -0.0464233 -0.00229461 -0.00303645 -0.0169447 0 1.85827e-09
1245 18 0.001 0.00643184 -0.0027136 -0.0469086 0.0115781 0.00479127 0.018296 0 5.20504e-10
1573 21 0.001 0.025219 -0.00188719 -0.0461437 -0.00569083 0.0047606 0.0157221 0 1.10866e-08
1574 21 0.001 0.0257943 -0.00255063 -0.0466091 0.00371316 0.00903957 -0.00270932 0 2.38303e-08
292 11 0.001 -0.0552545 -0.00136371 -0.0460177 -0.0158657 -0.0210528 0.00526107 0 1.6051e-08
583 12 0.001 -0.0339391 -0.00294385 -0.0458489 0.0130834 -0.019621 -0.0121071 0 2.7209e-08
582 12 0.001 -0.0344097 -0.00219813 -0.0453943 -0.00982896 0.0548567 0.00981925 0 1.11994e-07
912 15 0.001 -0.0149194 -0.00201538 -0.0457839 -0.00879464 0.0115906 0.000594714 0 5.8986e-09
291 11 0.001 -0.0554874 -0.000424982 -0.0457931 0.00412825 0.00537119 -0.00446672 0 2.8266e-08
581 12 0.001 -0.0346688 -0.00127678 -0.0450825 -0.000890841 -0.0468984 -0.0062272 0 9.41714e-08
580 12 0.001 -0.0346732 -0.000295471 -0.0449195 -0.0030081 0.0150501 -0.00122905 0 6.14017e-09
911 15 0.001 -0.0151853 -0.00111839 -0.0454375 0.0145227 0.0111239 0.00339804 0 1.04872e-08
910 15 0.001 -0.0151542 -0.000160639 -0.045151 -0.0137644 -0.0261856 -0.0114143 0 2.91472e-08
1242 18 0.001 0.00487111 -0.000670023 -0.0455718 -0.000247044 0.0181436 0.0133446 0 2.07637e-08
1572 21 0.001 0.0249059 -0.00107779 -0.0456504 -0.0199014 -0.0348207 -0.0142431 0 5.66296e-08
1571 21 0.001 0.0248803 -0.000212568 -0.0451712 0.0162401 0.0296993 0.010043 0 5.5462e-08
290 11 0.001 -0.0554201 0.000551116 -0.0456218 0.00552768 0.0183459 -0.00311031 0 1.38756e-08
579 12 0.001 -0.0343961 0.000661674 -0.0448596 0.0139025 -0.00178262 0.00827397 0 6.99994e-09
909 15 0.001 -0.0148331 0.000755082 -0.0449427 0.0026758 0.0190064 0.0103214 0 1.92643e-08
1241 18 0.001 0.00488655 0.000239033 -0.0451519 0.0147429 -0.0164299 -0.00729186 0 2.06314e-08
1240 18 0.001 0.00520332 0.00108978 -0.0447376 -0.0135958 0.000321379 -0.00028453 0 8.66285e-10
1570 21 0.001 0.0251511 0.00065254 -0.0447547 -0.00635618 0.0111872 -0.0015152 0 4.94956e-09
1569 21 0.001 0.0256951 0.00142129 -0.044421 -0.0115362 -0.0271536 -0.00448878 0 3.07593e-08
289 11 0.001 -0.0550505 0.00146855 -0.0454886 0.00530884 -0.00638248 0.00436958 0 1.6571e-09
288 11 0.001 -0.0544162 0.00222366 -0.0453376 -0.00621897 -0.00614313 0.00369568 0 1.1607e-09
287 11 0.001 -0.0535928 0.00274436 -0.0451296 -0.0137357 0.00142814 -0.00624068 0 1.49591e-08
578 12 0.001 -0.0338428 0.00149357 -0.0448412 -0.0128395 -0.00971473 -0.00846945 0 7.80891e-09
577 12 0.001 -0.0330689 0.00211956 -0.0448502 0.00288104 0.00096101 0.00362997 0 2.75537e-09
576 12 0.001 -0.0321426 0.00248633 -0.0448384 0.00399087 0.000300133 -0.000618648 0 8.19715e-10
575 12 0.001 -0.0311507 0.00256671 -0.0447692 -0.00419632 0.0179906 -0.000367952 0 1.61032e-09
574 12 0.001 -0.0301873 0.00236287 -0.0446204 0.00269448 -0.0231804 0.00226418 0 3.37263e-09
908 15 0.001 -0.0142423 0.00154348 -0.0447875 -0.00386429 -0.0135589 -0.00964175 0 9.87422e-09
907 15 0.001 -0.0134372 0.0021154 -0.0446766 -0.00677065 0.00201501 0.00917072 0 2.53875e-08
906 15 0.001 -0.0124959 0.00241532 -0.0445767 0.0139831 0.00108213 -0.00444828 0 1.57141e-08
905 15 0.001 -0.0115027 0.0024171 -0.0444927 -0.012445 0.0176469 0.000846968 0 1.59602e-08
286 11 0.001 -0.0526692 0.00298911 -0.044859 0.00866392 0.0122871 -0.000243511 0 1.65612e-08
899 15 0.001 -0.00902131 -0.00199702 -0.0432781 0.019136 0.00945143 -0.00268955 0 3.94908e-08
570 12 0.001 -0.0281908 -0.000464865 -0.0431543 -0.00653587 0.00391435 0.00616225 0 4.11711e-08
900 15 0.001 -0.00876555 -0.00108938 -0.0435954 -0.0164768 0.00990214 -0.00769134 0 4.32925e-09
901 15 0.001 -0.00880861 -0.000131938 -0.0438725 0.0167846 0.0132105 0.00653361 0 7.82733e-09
282 11 0.001 -0.0497691 0.00128414 -0.0431927 -0.017499 -0.00602714 0.015236 0 2.48273e-09
572 12 0.001 -0.0286867 0.00119176 -0.0440905 -0.00594789 0.00390652 0.00487016 0 1.49065e-08
571 12 0.001 -0.0282921 0.000375993 -0.0436705 -0.0133238 0.0184108 -0.0153521 0 2.81484e-08
902 15 0.001 -0.00914202 0.000784308 -0.0440933 -0.0211862 0.000158887 -0.0158612 0 4.15868e-08
1564 21 0.001 0.0300351 0.0014323 -0.0430934 -0.00229928 -0.0088121 -0.000223917 0 2.01397e-09
285 11 0.001 -0.0517343 0.00294405 -0.04452 -0.00281632 -0.00468712 0.00211512 0 5.77152e-09
284 11 0.001 -0.0508859 0.00261599 -0.0441167 0.00887118 0.00461194 0.000136143 0 4.1392e-09
283 11 0.001 -0.0502062 0.00204206 -0.0436685 0.00264238 -0.00333485 -0.00619364 0 1.51944e-09
573 12 0.001 -0.0293396 0.00188426 -0.0443988 0.0120877 0.00149421 -0.00352028 0 1.37987e-08
904 15 0.001 -0.0105581 0.00212464 -0.0444029 0.00601264 -0.00789188 -0.0060856 0 2.05545e-08
903 15 0.001 -0.00974702 0.00156156 -0.0442821 0.0220405 -0.018241 0.0197585 0 3.88465e-08
1239 18 0.001 0.00578122 0.00180092 -0.0443454 -0.000411919 0.00470743 -0.00196423 0 5.48239e-11
1238 18 0.001 0.00656636 0.00230245 -0.0439902 -0.0156123 -0.00301961 -0.00303478 0 1.80417e-08
1237 18 0.001 0.00747643 0.00253399 -0.0436686 0.0109478 -0.0150807 0.00324523 0 1.96434e-08
1236 18 0.001 0.00842699 0.00246704 -0.04338 0.0104403 0.0271368 -0.00338983 0 1.79485e-09
1235 18 0.001 0.00932071 0.00211447 -0.0431154 -0.0172261 -0.00190384 0.00320924 0 1.74796e-08
1568 21 0.001 0.0264602 0.00198452 -0.0441366 0.00613827 0.0150652 0.0031335 0 2.93932e-08
1567 21 0.001 0.0273732 0.00228527 -0.0438793 0.00899339 -0.0101043 0.00356892 0 3.46553e-09
1566 21 0.001 0.0283393 0.00228556 -0.0436309 0.00914587 0.0128034 -0.00113889 0 6.105e-09
1565 21 0.001 0.0292598 0.00199116 -0.0433762 -0.0145351 -0.0043076 0.0025293 0 5.85516e-09
896 15 0.001 -0.0111122 -0.0035967 -0.0420739 -0.013059 0.010654 -0.000875552 0 8.30864e-09
895 15 0.001 -0.0120073 -0.00357058 -0.0416293 0.0242283 0.00578843 -0.00364023 0 1.18106e-08
897 15 0.001 -0.010261 -0.00331735 -0.0425121 0.00383696 0.00390621 0.00418032 0 2.03949e-09
568 12 0.001 -0.0287967 -0.00184095 -0.0418766 -0.00132865 -0.00228296 -0.007541 0 3.93295e-08
898 15 0.001 -0.00953585 -0.00276214 -0.0429153 -0.0154231 -0.0260387 0.00596048 0 3.76093e-08
1560 21 0.001 0.0306192 -0.00199324 -0.0416243 -0.0351556 -9.16336e-05 -0.00902614 0 7.91383e-09
279 11 0.001 -0.0502271 -0.00120868 -0.0417878 -0.00224572 0.010738 0.0146121 0 3.57127e-09
280 11 0.001 -0.0497818 -0.000426247 -0.0422189 -0.0114246 -0.0217659 0.00058659 0 1.98544e-08
569 12 0.001 -0.0283727 -0.0012304 -0.0425488 0.0103099 -0.0344613 0.0206243 0 4.30782e-08
1231 18 0.001 0.010695 -0.00113591 -0.0418325 0.00249959 0.0088401 -0.0105118 0 6.67692e-09
1232 18 0.001 0.0107752 -0.000209095 -0.0421941 0.00808063 0.00968589 -0.00262383 0 1.23993e-08
1561 21 0.001 0.0308993 -0.00113288 -0.0420431 0.0179214 -0.018423 0.00854976 0 1.50765e-08
1562 21 0.001 0.0308921 -0.000221068 -0.0424363 -0.00610432 0.0173991 -0.0044622 0 1.60285e-08
281 11 0.001 -0.0496266 0.000432856 -0.0426912 0.0212558 0.0180857 -0.0138936 0 1.99269e-08
1234 18 0.001 0.0100533 0.00150692 -0.0428331 0.00735112 0.00704454 -0.00922971 0 4.3855e-08
1233 18 0.001 0.0105552 0.000706247 -0.0425323 0.000649653 -0.0311655 0.0158443 0 3.77298e-08
1563 21 0.001 0.0305951 0.000665884 -0.0427842 0.0106208 0.00779419 -0.0020998 0 2.89849e-09
894 15 0.001 -0.012838 -0.00324783 -0.0411866 -0.0151315 -0.0196378 0.00127096 0 4.05064e-09
1226 18 0.001 0.00701354 -0.00314882 -0.0401146 0.0161495 -0.0134293 -0.00576933 0 5.32009e-08
1227 18 0.001 0.00795429 -0.00328098 -0.0404112 -0.00209264 0.00438014 0.00189646 0 6.90886e-09
1228 18 0.001 0.00887714 -0.00311138 -0.040742 0.00767227 -0.00765636 0.000201641 0 4.42865e-09
1557 21 0.001 0.0284748 -0.00341957 -0.0402793 -0.00726409 -0.0337599 0.0172293 0 7.91099e-09
1558 21 0.001 0.0293266 -0.0032072 -0.0407472 0.00570839 0.0238391 -0.0230541 0 1.91646e-08
274 11 0.001 -0.054416 -0.00144099 -0.0400486 -0.0138467 -0.00314065 -0.000740934 0 5.98907e-09
276 11 0.001 -0.0526997 -0.00220521 -0.0406281 0.0354472 -0.00250696 -0.0132594 0 4.17396e-08
275 11 0.001 -0.0536109 -0.00195867 -0.0403193 -0.0114279 -0.0160676 0.00378158 0 1.81709e-08
277 11 0.001 -0.0517635 -0.00215327 -0.0409826 -0.0168943 0.0266937 0.00781338 0 3.35894e-08
278 11 0.001 -0.0509101 -0.00180258 -0.0413663 0.0029923 -0.0212045 -0.00834983 0 7.18087e-09
566 12 0.001 -0.030148 -0.00231407 -0.0405173 0.00995021 0.00187173 -0.00302387 0 2.25226e-09
565 12 0.001 -0.0309106 -0.00210705 -0.0399114 -0.0132934 -0.00968832 -0.00873598 0 1.67297e-09
567 12 0.001 -0.0294145 -0.0022215 -0.0411877 0.000243898 0.0204784 -0.00467821 0 1.35677e-08
892 15 0.001 -0.0139916 -0.00189949 -0.0403169 0.0137358 -0.0148156 0.0023934 0 2.58151e-08
893 15 0.001 -0.0135256 -0.0026723 -0.0407526 -0.0123965 0.0211018 0.00534363 0 2.58089e-08
1230 18 0.001 0.0103225 -0.00198292 -0.0414679 -0.0143548 -0.00337801 0.0120803 0 7.85853e-09
1229 18 0.001 0.00969386 -0.00266358 -0.0410956 0.00983308 -0.000297639 -0.00749703 0 2.80872e-09
1559 21 0.001 0.0300662 -0.00271426 -0.0412073 0.0147134 -0.00764568 0.0188592 0 2.26115e-08
891 15 0.001 -0.014174 -0.00102501 -0.0398727 0.000712455 0.00602106 -0.0082415 0 1.73134e-09
1556 21 0.001 0.027608 -0.00334003 -0.0397893 0.0169647 0.022352 -0.0200778 0 1.62884e-08
564 12 0.001 -0.0316155 -0.0016191 -0.0394039 -0.00242155 0.00939651 0.0186834 0 9.95686e-09
1224 18 0.001 0.00544277 -0.00205056 -0.0396994 -0.00375264 -0.0369295 -0.0065448 0 7.76484e-08
1225 18 0.001 0.00615008 -0.00272815 -0.0398759 -0.0106509 0.0186781 0.00513244 0 5.29953e-08
1555 21 0.001 0.0268175 -0.00296145 -0.039322 -0.0181104 0.00155524 0.0189524 0 1.84291e-08
1554 21 0.001 0.0261859 -0.00232452 -0.0388814 0.00224116 -0.00487028 -0.013437 0 5.91356e-09
273 11 0.001 -0.0550268 -0.000697319 -0.0397924 0.0220808 0.010348 -0.00373886 0 5.1104e-09
563 12 0.001 -0.032136 -0.000892477 -0.0389552 0.0102939 0.0149287 -0.00722618 0 2.9867e-08
562 12 0.001 -0.032398 -3.26277e-06 -0.0385761 0.00367055 -0.0433032 -0.00691237 0 5.78239e-08
1223 18 0.001 0.00496837 -0.00119321 -0.0395718 0.00183666 0.0248431 0.00563304 0 8.21622e-08
1222 18 0.001 0.00477789 -0.000228491 -0.0394252 -0.011127 -0.00512562 0.00321535 0 1.82176e-08
1553 21 0.001 0.0257872 -0.00149542 -0.0384988 0.00974668 -0.0064878 0.00810134 0 4.32076e-09
272 11 0.001 -0.0553669 0.000196538 -0.0395182 -0.0156623 0.000297292 0.0093116 0 4.06243e-09
271 11 0.001 -0.0554125 0.00113778 -0.0391933 0.0149429 0.0105671 0.00140799 0 1.02011e-08
890 15 0.001 -0.0140581 -0.00012189 -0.0394639 0.0058195 0.0111699 0.00497196 0 2.12562e-08
889 15 0.001 -0.0136497 0.000713581 -0.0390921 -0.00687451 -0.0247271 -0.00359977 0 2.2437e-08
888 15 0.001 -0.0129918 0.00137976 -0.0387544 0.00237537 0.0178522 0.00126672 0 4.63624e-09
1221 18 0.001 0.00487683 0.000734941 -0.0392035 0.00345726 0.0352538 -0.000344713 0 3.73835e-08
270 11 0.001 -0.055157 0.00203702 -0.0388376 -0.0172427 -0.0145371 -0.00957482 0 1.55515e-08
269 11 0.001 -0.0546373 0.00279882 -0.0384651 -0.00472065 -0.00513062 -0.000435188 0 2.10353e-08
887 15 0.001 -0.0121436 0.00181995 -0.0384651 -0.000145719 -0.00724049 -0.0044982 0 2.26032e-09
1220 18 0.001 0.00524531 0.00161109 -0.0388858 -0.00355397 -0.0222003 -0.00198652 0 2.64875e-08
880 15 0.001 -0.00825517 -0.00206319 -0.0367641 0.0198462 -0.00690834 -0.0107219 0 2.23494e-10
881 15 0.001 -0.00809271 -0.0011185 -0.0370395 -0.0122858 0.00106411 0.00568826 0 1.86366e-10
882 15 0.001 -0.0082389 -0.000166279 -0.0372952 -0.0120238 0.00697045 -0.00521109 0 9.47036e-09
1552 21 0.001 0.0256759 -0.000563866 -0.0381676 -0.000998345 0.0206591 -0.00611073 0 1.23449e-08
561 12 0.001 -0.0323675 0.000938514 -0.0382701 -0.009304 0.0234158 0.000270377 0 3.80339e-08
884 15 0.001 -0.00936741 0.00138672 -0.0377496 -0.00843259 -0.00365281 -0.0109662 0 1.67185e-09
883 15 0.001 -0.0086811 0.000699 -0.0375316 0.0189911 -0.00490704 0.00997335 0 1.08146e-08
1551 21 0.001 0.0258628 0.000384199 -0.0379107 0.00876941 -0.00329049 0.00761011 0 2.22267e-08
1550 21 0.001 0.0263374 0.00123941 -0.037699 -0.0158587 -0.0163315 -0.00398042 0 1.70505e-08
560 12 0.001 -0.0320484 0.00185553 -0.0380472 0.00952623 -0.006532 0.00580343 0 8.36487e-10
559 12 0.001 -0.03146 0.0026417 -0.0378785 -0.0213953 -0.00214327 -0.00642512 0 2.35886e-08
554 12 0.001 -0.027004 0.00273908 -0.0369923 0.0103027 0.0212674 -0.00618063 0 1.48303e-08
886 15 0.001 -0.0111906 0.00197619 -0.0382167 0.00264816 -0.00614115 0.00248026 0 1.24002e-09
885 15 0.001 -0.0102322 0.00182615 -0.0379819 -0.00156381 0.00629365 0.00472544 0 1.47608e-09
1219 18 0.001 0.00582516 0.00229773 -0.0384551 -0.00620883 -0.0128197 0.00246507 0 7.07447e-09
1218 18 0.001 0.00655239 0.00273313 -0.0379354 0.0139892 0.015933 -0.000192448 0 9.86372e-09
1217 18 0.001 0.00737317 0.00288724 -0.0373877 -0.00688885 0.00193739 -0.0024556 0 3.03385e-09
1549 21 0.001 0.0270482 0.0019142 -0.0375265 -0.0028236 0.0217422 0.00271377 0 3.37488e-09
1548 21 0.001 0.0279336 0.00235156 -0.0373865 -0.0105469 -0.0173656 -0.0114836 0 1.9519e-08
1547 21 0.001 0.0289078 0.00249473 -0.0372621 -0.000618275 0.000731977 0.00912737 0 3.53886e-08
1546 21 0.001 0.029875 0.00233296 -0.0371071 0.00608912 0.00461326 0.00343654 0 2.19794e-08
268 11 0.001 -0.053909 0.0033486 -0.0380737 -0.0169736 0.00630468 -0.00664974 0 7.25574e-08
267 11 0.001 -0.0530494 0.00363412 -0.037676 0.0262542 -0.00216493 0.0122535 0 5.6906e-08
266 11 0.001 -0.0521342 0.00362603 -0.037281 -0.00610927 0.0206025 -0.00205746 0 7.46684e-09
265 11 0.001 -0.0512631 0.00332779 -0.036906 -0.00372331 -0.0148929 -0.00403458 0 1.28419e-08
558 12 0.001 -0.0306637 0.00321838 -0.0377465 0.0240497 0.012098 0.00884734 0 2.84576e-08
556 12 0.001 -0.0287369 0.00354933 -0.0374443 -0.020473 0.0319039 -0.00664689 0 2.73522e-08
557 12 0.001 -0.0297251 0.00353175 -0.0376068 0.0102129 -0.0109511 -0.000930446 0 2.693e-08
555 12 0.001 -0.0278012 0.00328092 -0.0372404 -0.0101893 -0.0307409 0.00374372 0 8.06374e-09
877 15 0.001 -0.0102063 -0.00395704 -0.0357556 -0.00207989 -0.00759607 -0.00734035 0 2.11561e-09
878 15 0.001 -0.00937978 -0.00355783 -0.0361427 0.0190461 -0.0117029 -0.00523135 0 2.48998e-09
1539 21 0.001 0.0308374 -0.00309671 -0.0354642 -0.0128338 0.00949584 0.00772152 0 4.22132e-09
879 15 0.001 -0.00870031 -0.0029076 -0.0364776 -0.0219699 0.0143606 0.0122384 0 1.91134e-09
1540 21 0.001 0.0314999 -0.00242831 -0.0357933 0.0145708 -0.00472372 -0.00599035 0 2.1169e-09
1541 21 0.001 0.0319247 -0.00157984 -0.0361039 -0.0071982 -0.0105127 0.00381123 0 8.48975e-09
550 12 0.001 -0.0263427 -0.000688562 -0.0355694 -0.0140088 -0.00551726 0.00942146 0 1.10117e-08
1542 21 0.001 0.0320623 -0.000632431 -0.0363727 -0.0164099 -0.00326035 0.0102064 0 1.89844e-08
262 11 0.001 -0.0497671 0.00109435 -0.0358001 -0.0102559 0.0157291 -0.0077519 0 4.64852e-08
551 12 0.001 -0.0260792 0.000178612 -0.0359847 0.0074894 0.00746921 -0.00872504 0 1.06561e-08
552 12 0.001 -0.0261036 0.001104 -0.0363637 0.00968642 0.00201688 -0.000425448 0 1.87133e-08
1544 21 0.001 0.0314414 0.00119224 -0.0367677 0.00297785 -0.00125718 0.00904535 0 1.67022e-09
1543 21 0.001 0.0318944 0.000323499 -0.0365842 0.0128405 0.0136961 -0.012796 0 1.26233e-08
264 11 0.001 -0.0505267 0.00276031 -0.0365527 0.029721 -0.000603246 0.00796039 0 1.52246e-08
263 11 0.001 -0.050005 0.0019882 -0.0361894 -0.0158958 -0.0204481 0.00974823 0 5.17795e-08
553 12 0.001 -0.0264193 0.00199022 -0.0367022 -0.00701477 -0.0276285 0.0125739 0 2.04332e-08
1216 18 0.001 0.00819022 0.00274221 -0.0368358 -0.00453294 0.0028125 -0.00128272 0 4.0456e-09
1214 18 0.001 0.00944373 0.0016396 -0.0357927 -0.0222935 -0.0082892 -0.00682968 0 1.64914e-09
1215 18 0.001 0.00890744 0.00231247 -0.0362966 0.0139269 -0.00142204 0.00174148 0 3.9611e-09
1545 21 0.001 0.0307455 0.00188508 -0.036932 0.00668043 -0.000202368 -0.00967235 0 7.56092e-09
874 15 0.001 -0.0126421 -0.00342255 -0.034292 -0.0268651 -0.0104528 0.00756465 0 7.6516e-09
876 15 0.001 -0.0110945 -0.00406858 -0.0353198 -0.00350177 0.00594794 0.0056858 0 1.53381e-09
875 15 0.001 -0.0119395 -0.00388192 -0.0348253 0.0148074 0.010631 -0.00294707 0 5.87798e-09
1536 21 0.001 0.0281758 -0.00349685 -0.0343756 -0.00458424 -0.00722263 0.00363072 0 8.90619e-09
1535 21 0.001 0.0273731 -0.00305584 -0.033976 0.00614661 0.0142616 -0.0117127 0 7.81188e-09
1537 21 0.001 0.0290829 -0.00365601 -0.0347625 -0.0180256 0.00324214 0.0126385 0 1.48567e-08
1538 21 0.001 0.0300007 -0.00351809 -0.0351172 0.0213852 -0.00885496 -0.0141498 0 1.53022e-08
258 11 0.001 -0.0516073 -0.00174498 -0.0341635 -0.00390894 0.00539151 -0.0100285 0 2.81857e-08
547 12 0.001 -0.0284478 -0.00211442 -0.0341623 0.0135519 0.0161241 -0.00678591 0 1.54883e-08
548 12 0.001 -0.0275914 -0.00189796 -0.0346331 -0.0105332 -0.00982971 0.00637675 0 1.54928e-08
1208 18 0.001 0.00709404 -0.00271733 -0.0341942 0.00160404 -0.0207086 -0.00220927 0 2.23074e-10
1209 18 0.001 0.00803177 -0.00239201 -0.0342823 4.34004e-05 0.0184053 -0.00254217 0 2.92339e-09
1210 18 0.001 0.00882491 -0.00180025 -0.0344164 0.00657219 -0.00721166 0.00304959 0 4.52939e-09
259 11 0.001 -0.0508114 -0.00132238 -0.0345997 -0.000426138 -0.0201564 0.0130244 0 1.75277e-08
260 11 0.001 -0.0501949 -0.000658306 -0.0350136 -0.0289472 0.00279509 0.0115496 0 2.64006e-08
549 12 0.001 -0.0268667 -0.00140673 -0.0351107 0.00575812 0.0075897 -0.00557688 0 1.1194e-08
1211 18 0.001 0.00940069 -0.00101216 -0.0346262 -0.0088887 -0.0031664 0.00305937 0 2.59248e-09
1212 18 0.001 0.00970575 -0.000114374 -0.0349313 -0.00415027 0.00681063 -0.0142244 0 5.17633e-09
261 11 0.001 -0.0498359 0.000179117 -0.0354054 0.0271443 0.0158813 -0.0170181 0 3.04134e-08
1213 18 0.001 0.00971938 0.000799187 -0.0353355 0.0177396 -0.00218611 0.0176295 0 6.02792e-09
256 11 0.001 -0.0533556 -0.00171301 -0.0332531 -0.021402 0.00635839 0.0258285 0 4.05561e-08
257 11 0.001 -0.0524968 -0.0018786 -0.0337259 0.0212948 0.00422488 -0.0103062 0 1.83802e-08
545 12 0.001 -0.0301735 -0.00163512 -0.0333378 0.0235883 -0.00364326 0.00549007 0 8.33913e-09
546 12 0.001 -0.0293398 -0.00202377 -0.0337273 -0.0116765 0.000761259 -0.00565902 0 3.97594e-09
873 15 0.001 -0.0131349 -0.00274899 -0.0337442 0.0247015 0.00393496 -0.00924138 0 4.00658e-09
872 15 0.001 -0.0133523 -0.0019352 -0.0332137 -0.018682 -0.0156706 -0.00174478 0 2.25522e-08
1205 18 0.001 0.00433112 -0.00194543 -0.0337733 -0.000290262 -0.0164639 -0.00440367 0 6.08857e-09