ITEM: TIMESTEP
100000
ITEM: NUMBER OF ATOMS
1620
ITEM: BOX BOUNDS ff ff ff
-6.0000000000000005e-02 6.0000000000000005e-02
-6.0000000000000001e-03 6.0000000000000001e-03
-5.5000000000000000e-02 5.5000000000000000e-02
ITEM: ATOMS id type radius x y z fx fy fz c_bendingE c_stretchingE
299 11 0.001 -0.050237 -0.0019108 -0.0494295 0.00574774 0.0190853 -0.0357345 0 2.47203e-08
298 11 0.001 -0.0507878 -0.00268722 -0.0491486 0.0391411 0.00686617 0.00858757 0 1.48425e-07
919 15 0.001 -0.0101452 -0.00184972 -0.049203 -0.0242462 0.0212526 0.0180639 0 3.70968e-08
300 11 0.001 -0.049961 -0.000988468 -0.049698 -0.0325687 0.0260313 0.0265456 -0.000426658 6.62734e-08
2 2 0.001 -0.05 -3.23381e-17 -0.0498744 0.0403895 -0.0303587 -0.0012652 -0.000426658 7.63084e-08
591 13 0.001 -0.049045 2.06044e-05 -0.0499213 -0.0487509 -0.0198187 -0.0205673 -0.000426658 8.7195e-08
592 13 0.001 -0.0481025 3.46621e-05 -0.0499726 -0.00924627 0.0335793 0.0215241 0 1.90079e-07
593 13 0.001 -0.0471623 5.7256e-05 -0.0500168 0.0218043 -0.0302228 -0.00263511 0 1.50787e-07
594 13 0.001 -0.0462167 8.14101e-05 -0.0500575 -0.000978574 0.00773296 -0.0190476 0 6.39691e-08
595 13 0.001 -0.0452714 0.000117403 -0.0500951 0.0857228 0.054967 0.0285487 0 2.92201e-07
596 13 0.001 -0.0443049 0.000172317 -0.0501209 -0.0487312 -0.0336191 0.00924507 0 2.72084e-07
598 13 0.001 -0.042414 0.000249042 -0.0501789 0.104834 -0.0298952 0.0484099 0 3.35143e-07
597 13 0.001 -0.0433505 0.000219444 -0.0501444 -0.0747444 -0.0166575 -0.0582516 0 2.32069e-07
599 13 0.001 -0.0414514 0.000265667 -0.0502043 -0.00940441 0.0569716 -0.0295075 0 1.93546e-07
600 13 0.001 -0.0404908 0.000289628 -0.0502267 -0.00228396 -0.022329 0.0340669 0 1.42572e-07
601 13 0.001 -0.0395307 0.000310101 -0.0502368 -0.071556 0.0199988 -0.0295261 0 1.56999e-07
602 13 0.001 -0.0385881 0.000327835 -0.0502457 0.0351121 -0.038505 0.00771914 0 9.38977e-08
603 13 0.001 -0.0376367 0.000329779 -0.0502458 0.00786541 0.0279385 0.0023669 0 1.91993e-09
607 13 0.001 -0.0338257 0.000230705 -0.0501575 0.0775039 0.119133 0.0573587 0 1.82405e-07
609 13 0.001 -0.031908 9.54932e-05 -0.0500775 -0.0309523 0.0422964 0.0657019 0 5.7528e-08
608 13 0.001 -0.0328635 0.00017866 -0.0501167 -0.0218074 -0.0960998 -0.0645112 0 2.04121e-07
610 13 0.001 -0.0309615 7.83681e-06 -0.050022 0.0866234 0.0178004 -0.0513617 0 4.19446e-07
590 12 0.001 -0.0298292 -0.000804478 -0.0493013 -0.00739177 -0.0185933 0.00912575 -0.000426637 1.16102e-07
4 4 0.001 -0.03 -3.23381e-17 -0.0498744 -0.0879422 -0.102883 0.046485 -0.000426637 4.73966e-07
920 15 0.001 -0.00991234 -0.000949373 -0.0495493 -0.0196396 0.0414166 -0.0310029 -0.000426636 1.23772e-07
6 6 0.001 -0.01 -3.23381e-17 -0.0498744 0.0568102 0.00459019 0.0473858 -0.000426636 1.55856e-07
8 8 0.001 0.01 -3.23381e-17 -0.0498744 0.00037537 0.035685 -0.0121586 0 5.95359e-08
1250 18 0.001 0.00977723 -0.000590446 -0.0491125 0.0139165 2.80318e-05 0.0190401 0 8.03459e-08
10 10 0.001 0.03 -3.23381e-17 -0.0498744 -0.0688535 0.0181218 -0.0118266 -0.000426456 2.66736e-07
1580 21 0.001 0.0298888 -0.000730483 -0.0492209 0.0235321 -0.0376541 0.022043 -0.000426456 1.07588e-07
604 13 0.001 -0.0366835 0.000327502 -0.050235 0.0100169 0.00269026 0.015254 0 1.30042e-08
605 13 0.001 -0.035728 0.00031571 -0.0502119 0.0121547 0.00591066 -0.00620415 0 5.28592e-08
606 13 0.001 -0.0347701 0.000286984 -0.0501848 -0.052739 -0.0752194 -0.0334404 0 7.65121e-08
921 16 0.001 -0.0290727 0.000192424 -0.0498533 0.0845038 0.0653934 0.0135732 -0.000426637 3.56238e-07
923 16 0.001 -0.0271492 0.000377671 -0.0499258 -0.018962 0.00602619 -0.037125 0 1.64156e-07
922 16 0.001 -0.0281073 0.000285678 -0.049887 -0.031752 0.0158011 -0.0265863 0 4.48811e-07
924 16 0.001 -0.0261955 0.000465804 -0.0499759 -0.0111155 -0.00869043 0.0467863 0 5.60347e-08
926 16 0.001 -0.0242972 0.000584916 -0.0500616 0.0195018 0.125471 0.00436945 0 2.12109e-08
925 16 0.001 -0.0252436 0.000537694 -0.0500188 -0.026138 -0.0617974 -0.0258488 0 2.50794e-08
927 16 0.001 -0.0233444 0.000633886 -0.0501001 0.051386 -0.125767 0.0315553 0 2.02898e-07
929 16 0.001 -0.0214157 0.000633092 -0.0501531 -0.0486887 0.0161527 0.0901227 0 1.18812e-07
928 16 0.001 -0.0223784 0.000638449 -0.050126 -0.0152025 0.0326274 -0.0649761 0 3.12436e-07
931 16 0.001 -0.019508 0.000620229 -0.0501652 0.0029884 0.0663528 0.152561 0 5.51198e-08
930 16 0.001 -0.020465 0.000626725 -0.0501576 0.0248632 -0.0147337 -0.111172 0 2.47839e-08
932 16 0.001 -0.0185502 0.00062085 -0.0501439 -0.0444141 -0.0596395 -0.134324 0 6.58949e-08
933 16 0.001 -0.0176038 0.000597165 -0.0501469 0.0545379 -0.0411176 0.0113474 0 1.0189e-07
934 16 0.001 -0.016644 0.000555429 -0.0501487 0.0114011 0.102342 0.0354725 0 1.72778e-07
935 16 0.001 -0.0156823 0.000522094 -0.0501279 -0.037642 -0.100273 0.017489 0 1.08155e-07
937 16 0.001 -0.0137838 0.000413983 -0.0500318 0.0307594 0.0282742 0.0943364 0 4.4743e-08
936 16 0.001 -0.0147304 0.000466056 -0.0500842 -0.0155756 0.0493914 -0.0407429 0 1.32965e-08
938 16 0.001 -0.0128294 0.000365165 -0.0499593 0.0140873 -0.0192716 -0.136835 0 9.22783e-08
940 16 0.001 -0.0109301 0.000211132 -0.0498516 0.0151416 -0.0313734 -0.0597954 0 1.50903e-08
939 16 0.001 -0.0118731 0.000299838 -0.0499091 -0.050528 -0.00555481 0.103579 0 6.83312e-08
1251 19 0.001 -0.00904471 4.47006e-05 -0.0499507 -0.0413669 -0.00865727 -0.0116307 -0.000426636 6.19498e-08
1252 19 0.001 -0.00810506 0.000175978 -0.0499628 0.0101006 -0.0167045 -0.0478764 0 1.46634e-08
1254 19 0.001 -0.00622366 0.000386298 -0.0499725 0.0373851 0.0351481 -0.0544718 0 1.00513e-07
1253 19 0.001 -0.00716127 0.000291532 -0.0499771 -0.0349515 0.00432849 0.0915384 0 1.0259e-07
1255 19 0.001 -0.00527473 0.0004668 -0.049976 0.0506407 -0.0577845 -0.0190786 0 1.36202e-07
1257 19 0.001 -0.00336082 0.000556111 -0.0499853 0.0258063 -0.0201087 -0.0104636 0 3.52121e-08
1256 19 0.001 -0.00431203 0.000516139 -0.0499852 -0.0499675 0.0396736 0.0455108 0 1.36308e-07
1258 19 0.001 -0.00240295 0.000584247 -0.0499867 0.0604424 0.0507725 -0.0244952 0 4.90308e-07
1260 19 0.001 -0.000469287 0.000607703 -0.049999 0.00773243 0.131262 -0.040002 0 1.68851e-07
1259 19 0.001 -0.00142966 0.000608878 -0.0499938 -0.0523988 -0.104143 0.0285796 0 5.19766e-07
1261 19 0.001 0.00049315 0.000618986 -0.0500088 -0.0645094 -0.128898 0.0451759 0 1.39262e-07
1262 19 0.001 0.00143958 0.000608031 -0.0500078 0.026316 0.128905 -0.0170383 0 3.51926e-08
1263 19 0.001 0.00239242 0.000609219 -0.0500066 0.00616931 -0.0984472 -0.0211273 0 4.96371e-09
1265 19 0.001 0.00431852 0.000559936 -0.0499966 -0.120365 -0.0874368 -0.0482302 0 4.8066e-07
1264 19 0.001 0.00334671 0.000586999 -0.0500062 0.0729855 0.0739468 0.0415279 0 4.01727e-07
1266 19 0.001 0.00526006 0.000503509 -0.0499882 0.0738832 0.074043 0.0858467 0 1.55114e-07
1267 19 0.001 0.0062189 0.000445129 -0.0499694 -0.0221841 -0.0359415 -0.104982 0 8.21918e-08
1268 19 0.001 0.00717154 0.000369514 -0.0499733 -0.0459318 0.0184032 0.0754678 0 8.3817e-08
1269 19 0.001 0.0081115 0.00028365 -0.0499731 0.0877691 -0.0103302 -0.0570134 0 2.55378e-07
1270 19 0.001 0.00907204 0.000182766 -0.0499768 -0.0647144 -0.0141643 0.0311428 0 1.83472e-07
1582 22 0.001 0.0118826 0.000200148 -0.0497886 0.0226918 -0.00675376 0.0310186 0 1.31911e-08
1581 22 0.001 0.0109405 8.36221e-05 -0.0497618 -0.00200646 0.00576803 -0.0509167 0 9.70148e-09
1583 22 0.001 0.0128305 0.000311081 -0.0498169 -0.019 -0.00087663 -0.0032696 0 1.11058e-08
1585 22 0.001 0.0147441 0.000477121 -0.0498622 -0.046585 0.0465437 0.0169118 0 4.31382e-07
1584 22 0.001 0.0137757 0.000403273 -0.0498416 0.087487 -0.0182317 -0.00355239 0 3.68513e-07
1586 22 0.001 0.0157022 0.000544633 -0.0498778 -0.00863586 -0.0398056 -0.0245422 0 9.95068e-08
1588 22 0.001 0.017603 0.000614904 -0.0499064 0.0191152 -0.030675 0.0184489 0 7.41701e-08
1587 22 0.001 0.016659 0.000588252 -0.0498948 -0.0550579 0.0210408 0.00513427 0 9.4474e-08
1589 22 0.001 0.0185521 0.000617013 -0.0499075 0.0330407 0.0237562 0.0167683 0 3.52498e-08
1590 22 0.001 0.0195093 0.00060784 -0.0499064 -0.018591 -0.00754616 -0.0556628 0 2.44708e-08
1591 22 0.001 0.0204617 0.000583481 -0.0499199 0.0168227 -0.0225974 0.0218175 0 2.27227e-08
1592 22 0.001 0.021418 0.000547065 -0.0499318 -0.00570067 0.0511101 0.0100876 0 3.05809e-08
1593 22 0.001 0.0223726 0.000512766 -0.0499384 0.00137189 -0.0198189 -0.00228825 0 1.91782e-08
1594 22 0.001 0.0233271 0.000465616 -0.0499416 0.0290903 -0.0460839 -0.00964883 0 1.38968e-07
1595 22 0.001 0.0242887 0.000401425 -0.0499425 -0.0255227 0.0428105 0.0220877 0 1.46124e-07
1596 22 0.001 0.0252436 0.00034414 -0.0499372 -0.00665464 0.00867641 -0.0391071 0 2.43657e-08
1597 22 0.001 0.0261969 0.000291773 -0.0499332 -0.0318176 0.0225022 0.0243005 0 3.91422e-08
1599 22 0.001 0.0280804 0.000161538 -0.0498882 0.083148 0.0293647 -0.0963452 0 1.92625e-07
1598 22 0.001 0.0271419 0.000237279 -0.0499166 -0.0251378 -0.0638121 0.0569473 0 1.42546e-07
1600 22 0.001 0.0290385 8.19741e-05 -0.0498817 0.0134138 0.0172843 0.0222551 -0.000426456 2.43824e-07
295 11 0.001 -0.0532866 -0.00352744 -0.0479308 -0.0389572 -0.0416615 -0.0273853 0 1.25361e-08
297 11 0.001 -0.0515347 -0.00323818 -0.0488178 -0.10465 -0.0272902 0.0229899 0 4.05458e-07
296 11 0.001 -0.0524259 -0.00352258 -0.0484269 0.0882037 0.0168262 -0.00392787 0 2.87599e-07
586 12 0.001 -0.031876 -0.00327677 -0.0473672 0.00182382 -0.0205219 0.023281 0 2.33175e-08
587 12 0.001 -0.0310187 -0.0029154 -0.047712 -0.0149484 0.0227362 -0.0322013 0 2.36858e-08
916 15 0.001 -0.0121296 -0.00338063 -0.0477582 -0.0326951 -0.0216192 0.0314251 0 9.36545e-08
588 12 0.001 -0.0303568 -0.00233667 -0.0481788 -0.000371359 -0.0313511 0.0244185 0 8.68233e-08
589 12 0.001 -0.0299516 -0.00161874 -0.0487225 0.0196621 0.057881 -0.0358035 0 1.71858e-07
917 15 0.001 -0.0113306 -0.00312031 -0.0482918 -0.0158571 -0.0183987 -0.0100392 0 3.03961e-08
918 15 0.001 -0.0106472 -0.00259625 -0.0487832 0.0309814 -0.01387 -0.000598811 0 4.50374e-08
1578 21 0.001 0.0288702 -0.00173353 -0.0478748 0.0643587 -0.0628286 -0.00356544 0 1.56965e-07
1249 18 0.001 0.00954089 -0.000910474 -0.0482039 -0.0164783 -0.00764251 -0.0138806 0 6.18601e-08
1579 21 0.001 0.0294899 -0.00134222 -0.0485441 -0.0182785 0.0443856 -0.00623054 0 2.01621e-08
294 11 0.001 -0.0540782 -0.00326166 -0.0473877 0.00939485 0.0418825 0.0354298 0 3.46148e-08
584 12 0.001 -0.0337382 -0.00312628 -0.0467416 -0.0534845 -0.0379248 -0.0178088 0 6.07071e-08
583 12 0.001 -0.034542 -0.0026415 -0.0463831 0.0826412 0.0249742 0.0224704 0 6.0349e-08
585 12 0.001 -0.0328201 -0.00335318 -0.0470608 -0.000276749 0.028266 0.0117222 0 3.16248e-09
915 15 0.001 -0.0129206 -0.00335846 -0.047136 0.058651 0.000233545 -0.0342456 0 1.67501e-07
293 11 0.001 -0.0546875 -0.00275183 -0.0467757 0.0238704 0.000374342 -0.0198117 0 3.45403e-08
292 11 0.001 -0.0550429 -0.00206949 -0.0461405 -0.0252219 -0.0453348 -0.0154841 0 7.51909e-08
914 15 0.001 -0.0135985 -0.00304449 -0.0464894 -0.0351367 0.0147978 0.0150176 0 7.61699e-08
1576 21 0.001 0.0273185 -0.0017316 -0.046678 0.0248747 -0.00859489 0.00147266 0 1.88158e-08
1577 21 0.001 0.0281277 -0.00187748 -0.0472438 -0.061047 0.0243883 0.00952805 0 1.39533e-07
1247 18 0.001 0.0089846 -0.000682325 -0.0463407 -0.0497433 0.019812 0.0664249 0 1.88227e-07
1248 18 0.001 0.00925993 -0.000940192 -0.0472543 0.0219601 -0.0262604 0.000821596 0 1.07705e-07
582 12 0.001 -0.0351137 -0.00197015 -0.0459201 -0.0487788 -0.056094 -0.0431736 0 1.26233e-07
581 12 0.001 -0.0354285 -0.00119013 -0.0454066 0.0381052 0.0202513 0.0113584 0 1.77495e-07
913 15 0.001 -0.0141379 -0.00244822 -0.0458995 0.0318949 0.0447711 -0.0108739 0 2.17252e-08
291 11 0.001 -0.0551146 -0.00132845 -0.0454907 0.0124277 0.0322221 0.00430693 0 7.73743e-08
290 11 0.001 -0.0548883 -0.000595663 -0.0448564 0.0122967 0.0310458 0.0540528 0 1.86709e-07
580 12 0.001 -0.0354437 -0.000360742 -0.044867 -0.0278256 0.0330986 0.0210547 0 5.83074e-08
912 15 0.001 -0.0144561 -0.00163073 -0.045416 -0.0179293 -0.0404789 0.00653015 0 2.30407e-08
911 15 0.001 -0.0145024 -0.00072122 -0.0450133 -0.0200609 0.0049074 0.0112882 0 1.39954e-09
1246 18 0.001 0.00872126 -0.000143432 -0.0455306 0.0614309 -0.00400186 -0.0933088 0 2.0954e-07
1574 21 0.001 0.0260725 -0.000634664 -0.0456417 -0.000842952 0.050101 0.0125935 0 9.4728e-08
1575 21 0.001 0.0266025 -0.00129969 -0.0461432 -0.0064427 -0.0317535 -0.00908634 0 1.08854e-07
579 12 0.001 -0.0351714 0.000435464 -0.0443277 -0.0268263 -0.00799247 -0.00114912 0 1.75705e-08
910 15 0.001 -0.0142573 0.000172956 -0.0446464 0.0402688 -0.00784665 -0.00686429 0 5.19676e-09
1245 18 0.001 0.00862374 0.000604099 -0.0448932 -0.0727719 -0.0444396 0.0613127 0 1.91043e-07
1573 21 0.001 0.0257984 0.000208166 -0.0451811 0.0131668 -0.0316978 -0.000646754 0 2.48774e-08
1572 21 0.001 0.0258236 0.00110351 -0.0447542 -0.0207556 0.0191791 0.000253688 0 2.14952e-08
567 12 0.001 -0.0304371 -0.00422506 -0.0435589 -0.00739302 0.0290219 0.0511192 0 7.44413e-08
568 12 0.001 -0.0298925 -0.003495 -0.0439753 0.0136417 -0.00546737 -0.0401391 0 9.63758e-08
569 12 0.001 -0.0294733 -0.00260472 -0.0441837 -0.0233518 -0.0259909 0.0243538 0 7.69483e-08
570 12 0.001 -0.0292437 -0.00163528 -0.0441699 0.0243583 0.00719588 -0.00390933 0 2.05391e-09
1232 18 0.001 0.0148195 -0.00154319 -0.0433389 -0.0670813 -0.0414351 0.0384274 0 2.6763e-07
1231 18 0.001 0.0142375 -0.00211302 -0.0427377 0.0618966 0.0164792 -0.0372343 0 2.38564e-07
571 12 0.001 -0.0292566 -0.000654479 -0.0439844 -0.0255353 0.0190762 0.00895011 0 4.67475e-08
1233 18 0.001 0.0152109 -0.000771251 -0.043821 0.0235803 -0.0155104 0.00646594 0 1.08398e-07
289 11 0.001 -0.0543892 1.46729e-05 -0.044224 -0.0214716 -0.0442148 -0.0559116 0 2.02416e-07
288 11 0.001 -0.0536704 0.000430744 -0.0436804 -0.00172658 -0.000778019 0.0102393 0 2.52954e-08
287 11 0.001 -0.0528028 0.000608276 -0.0432284 0.0390055 0.0239043 0.0154433 0 7.71052e-08
578 12 0.001 -0.034634 0.00111221 -0.0438376 0.0462719 0.0346176 0.0210524 0 1.15066e-07
577 12 0.001 -0.0338513 0.00161917 -0.0434567 -0.0486649 -0.0488296 -0.0487144 0 2.05269e-07
574 12 0.001 -0.0309616 0.00157348 -0.0432645 -0.0989999 -0.0838209 -0.0109786 0 2.94853e-07
572 12 0.001 -0.0295671 0.000263384 -0.0437223 0.0127497 -0.0349274 -0.00818109 0 5.47147e-08
573 12 0.001 -0.0301516 0.00102435 -0.0434638 0.00726414 0.0422003 0.0049029 0 1.25829e-08
909 15 0.001 -0.0137296 0.000951979 -0.0443099 -0.0364528 0.0608642 -0.00141122 0 4.07737e-08
1244 18 0.001 0.00876698 0.00143059 -0.0443735 0.0672913 0.0962002 -0.00177792 0 3.0313e-07
1234 18 0.001 0.0153932 0.000141195 -0.0441543 0.0193806 -0.0194231 -0.00835223 0 2.48472e-07
1235 18 0.001 0.0153103 0.00109831 -0.0443641 -0.0437165 0.0484163 0.00431113 0 1.79385e-07
576 12 0.001 -0.0329225 0.00187059 -0.0432384 0.00468479 -0.0428103 0.00730688 0 1.51642e-07
575 12 0.001 -0.0319361 0.0018363 -0.0431637 0.112978 0.106522 0.02359 0 3.41924e-07
908 15 0.001 -0.0129945 0.00153244 -0.0439511 0.0336699 -0.079326 0.0115008 0 5.48773e-08
907 15 0.001 -0.0121298 0.00181711 -0.0435338 -0.030979 0.033627 -0.0147327 0 2.46229e-08
906 15 0.001 -0.0112512 0.00180268 -0.043068 0.0207738 0.00179015 0.000120274 0 7.03559e-09
1243 18 0.001 0.00918775 0.00227674 -0.0440128 -0.0290067 -0.0638343 -0.00432966 0 2.10816e-07
1242 18 0.001 0.00984584 0.00299508 -0.0438146 -0.0504013 0.0109863 -0.00428385 0 1.43921e-07
1237 18 0.001 0.014327 0.00282065 -0.0444325 0.00895943 0.00848078 0.0443116 0 2.47326e-07
1236 18 0.001 0.0149393 0.00202014 -0.0444598 -0.00170839 0.0393748 -0.0261612 0 1.23828e-07
1571 21 0.001 0.026134 0.00195808 -0.0443459 -0.0432538 -0.00204599 -0.0178315 0 7.85296e-08
1570 21 0.001 0.0266738 0.00264578 -0.0438859 0.0540454 -0.00580951 0.0364976 0 8.87042e-08
1241 18 0.001 0.0106751 0.00352614 -0.0437909 0.0667987 -0.0219066 -0.0111209 0 1.40995e-07
1240 18 0.001 0.0116354 0.00378403 -0.0438886 -0.062996 -0.0032273 0.0173855 0 1.54646e-07
1239 18 0.001 0.012606 0.00374421 -0.0440483 0.106621 0.0586279 -0.00425321 0 2.7273e-07
1238 18 0.001 0.0135421 0.00342495 -0.044244 -0.042643 -0.0762291 -0.028588 0 2.47734e-07
1569 21 0.001 0.027402 0.00308868 -0.0433625 0.022503 0.0157203 -0.0127776 0 7.08164e-08
565 12 0.001 -0.0316286 -0.00496874 -0.0421706 0.0150381 0.052935 -0.010389 0 1.1066e-07
566 12 0.001 -0.0310305 -0.00473229 -0.0429268 0.0201369 -0.0210675 -0.0560418 0 7.2378e-08
283 11 0.001 -0.0499701 -0.00131243 -0.0416617 0.0144126 0.0128323 -0.0342209 0 2.61275e-07
1229 18 0.001 0.0129506 -0.00241313 -0.0412933 -0.00618342 0.106793 0.0452799 0 1.31253e-07
1230 18 0.001 0.0136007 -0.00241158 -0.0420353 0.00142499 -0.0321786 -0.0329312 0 1.14205e-07
284 11 0.001 -0.0503798 -0.000495656 -0.042093 -0.00474199 -0.0703 0.0599375 0 2.21378e-07
285 11 0.001 -0.0510399 0.000133212 -0.0424788 0.00846047 -0.00152848 -0.0155902 0 8.62224e-08
286 11 0.001 -0.0518766 0.00051294 -0.0428489 -0.0491455 0.0112829 -0.0174917 0 1.1032e-07
904 15 0.001 -0.00982073 0.000913605 -0.0420588 0.0429172 -0.000424971 0.00460147 0 3.58065e-08
903 15 0.001 -0.00942518 0.000147592 -0.0415544 0.00300795 0.0694103 -0.028992 0 2.99899e-07
905 15 0.001 -0.0104441 0.00148903 -0.0425713 -0.0489307 -0.0179163 -0.00372942 0 3.406e-08
1564 21 0.001 0.0307769 0.00110131 -0.0409767 -0.0302161 0.0875485 -0.0628186 0 3.99484e-07
1566 21 0.001 0.0298016 0.00265568 -0.04177 0.0691286 -0.00880902 0.049503 0 1.96306e-07
1565 21 0.001 0.0303957 0.00197436 -0.0413225 -0.00922903 -0.0269248 0.0188479 0 3.95561e-07
1568 21 0.001 0.0282406 0.003245 -0.0428313 0.00574808 -0.0212493 0.0397149 0 2.76192e-07
1567 21 0.001 0.0290677 0.00309209 -0.0422688 -0.0681927 0.00561049 -0.0684501 0 2.78866e-07
279 11 0.001 -0.0510694 -0.00453735 -0.0400412 -0.0101962 0.0187931 -0.00245588 0 2.19093e-07
563 12 0.001 -0.0325769 -0.00457335 -0.0405032 -0.0248857 -0.0528172 -0.011053 0 1.42242e-07
564 12 0.001 -0.0321676 -0.00490168 -0.0413464 -0.00642424 -0.0343324 0.025214 0 1.06642e-07
280 11 0.001 -0.0503958 -0.00392925 -0.0404264 0.0352108 0.0521152 -0.0416371 0 1.93703e-07
281 11 0.001 -0.049967 -0.00313396 -0.0408685 -0.0337296 -0.00953648 0.0176691 0 8.97829e-08
282 11 0.001 -0.0498274 -0.00223334 -0.0412817 0.0270679 0.0199257 0.000653497 0 9.94716e-08
900 15 0.001 -0.0100186 -0.00229436 -0.040143 0.0209802 0.0425505 -0.00174601 0 4.51675e-08
901 15 0.001 -0.00952324 -0.00152997 -0.040563 -0.02601 -0.0173668 -0.00144095 0 3.66004e-08
1228 18 0.001 0.0123682 -0.0020882 -0.0405454 -0.031908 -0.10843 0.0100615 0 2.64084e-08
1555 21 0.001 0.0252319 -0.00222908 -0.0415104 0.073267 -0.0110272 -0.00333305 0 1.74175e-07
1556 21 0.001 0.0260477 -0.00276888 -0.0417195 -0.0416528 -0.0561397 -0.0265177 0 1.12689e-08
1557 21 0.001 0.0269865 -0.00310275 -0.0417653 0.0178285 0.0839256 0.0347934 0 1.34644e-09
1558 21 0.001 0.0279773 -0.00315456 -0.0416581 0.00232927 -0.0431485 -0.00737768 0 5.97819e-09
1559 21 0.001 0.0289296 -0.00293978 -0.041445 6.96908e-05 -0.0332278 -0.0300028 0 1.86226e-08
1560 21 0.001 0.0297701 -0.00245928 -0.0412232 -0.0116374 0.0196134 0.0385668 0 1.80377e-08
902 15 0.001 -0.0093196 -0.000685179 -0.0410498 -0.0130519 -0.0546374 0.0351521 0 2.9721e-07
1553 21 0.001 0.0243108 -0.000696136 -0.0407433 -0.0678668 0.0487972 0.00646676 0 1.55389e-07
1554 21 0.001 0.0246422 -0.00151701 -0.0411737 -0.0184225 -0.0120771 -0.00528888 0 3.16448e-07
1561 21 0.001 0.0304112 -0.00173882 -0.0409792 -0.0184838 -0.0427965 -0.0272589 0 2.47251e-07
1562 21 0.001 0.0308025 -0.000850871 -0.0408347 0.0187319 0.0582416 0.00405821 0 2.43179e-07
1552 21 0.001 0.0242574 0.000166994 -0.0402443 0.0765686 -0.0266052 0.0142667 0 2.31721e-09
1563 21 0.001 0.0309261 0.000138859 -0.0408294 0.00382319 -0.0464357 0.0262231 0 1.37233e-07
277 11 0.001 -0.0528842 -0.00501492 -0.0394772 -0.00970808 0.0547554 -0.00274435 0 1.17588e-08
276 11 0.001 -0.0538338 -0.0048069 -0.0392611 -0.0173873 -0.0284737 0.0107076 0 2.46639e-09
278 11 0.001 -0.0519292 -0.00490805 -0.0397301 -0.0017019 -0.0802954 0.0206914 0 1.12385e-07
275 11 0.001 -0.0546842 -0.00431528 -0.039084 0.0228827 0.0116001 -0.0159038 0 6.37092e-09
274 11 0.001 -0.0553449 -0.00358083 -0.0389681 -0.0507987 0.0223091 0.00684887 0 9.21898e-08
561 12 0.001 -0.0330164 -0.00320481 -0.0391866 -0.0192139 0.00488387 0.0348613 0 5.13049e-08
562 12 0.001 -0.0328755 -0.00399868 -0.0397605 0.0322533 0.0511011 -0.0164504 0 1.7985e-07
896 15 0.001 -0.0132582 -0.00299502 -0.0383459 -0.00536949 0.132404 -0.00171938 0 1.22004e-07
897 15 0.001 -0.0124284 -0.00323579 -0.0388343 0.00803506 -0.0655652 0.0124982 0 1.90447e-08
899 15 0.001 -0.0107299 -0.00286295 -0.0397449 0.0520859 -0.0483817 -0.0115281 0 9.13193e-08
898 15 0.001 -0.0115505 -0.00319134 -0.0393041 -0.0453153 0.018704 0.00511203 0 8.21007e-08
273 11 0.001 -0.0557575 -0.00266739 -0.038877 0.0330038 0.0122407 0.0147852 0 1.76337e-07
560 12 0.001 -0.0329823 -0.00228122 -0.0388131 0.00852703 0.0195245 -0.0114272 0 2.41776e-08
559 12 0.001 -0.0327344 -0.00132609 -0.0386394 -0.0110983 -0.0535089 0.0197757 0 7.79192e-08
1227 18 0.001 0.0119106 -0.00151706 -0.0398698 0.0688482 0.0502523 -0.0692778 0 8.18379e-08
272 11 0.001 -0.055854 -0.00166939 -0.0387883 0.00571903 -0.0506471 -0.0165553 0 1.02617e-07
271 11 0.001 -0.0556287 -0.000702907 -0.0387478 0.0449775 0.0291193 -0.00341356 0 9.87101e-08
558 12 0.001 -0.0322508 -0.000464349 -0.0385892 -0.0196973 0.0429392 -0.00618953 0 5.58593e-08
551 12 0.001 -0.0263886 -0.000374367 -0.0387407 0.0771377 -0.0365534 0.00415106 0 2.35173e-07
1226 18 0.001 0.0116436 -0.00072979 -0.0393363 -0.0759507 0.023052 0.0937495 0 2.21422e-07
1225 18 0.001 0.011606 0.000178917 -0.0388993 0.0647729 -0.0266793 -0.068255 0 1.41681e-07
1214 18 0.001 0.0187912 0.000431061 -0.0384526 0.12447 -0.085317 0.019811 0 2.87591e-07
270 11 0.001 -0.0551031 0.000155187 -0.0387586 -0.0290413 -0.00874393 0.00857344 0 1.02416e-07
269 11 0.001 -0.0543539 0.000817556 -0.0388059 -0.070134 -0.00065613 -0.00536461 0 1.53936e-07
557 12 0.001 -0.031599 0.000277073 -0.0387176 -0.00878035 -0.0187375 0.0219604 0 7.00111e-08
556 12 0.001 -0.0307814 0.000795793 -0.0389167 0.0481602 0.0191821 -0.0389825 0 1.11522e-07
555 12 0.001 -0.0298418 0.00104983 -0.0391615 0.0180255 -0.00750555 0.0149211 0 1.41638e-07
554 12 0.001 -0.0288456 0.00102607 -0.0393073 -0.0410716 0.00612755 -0.00574765 0 9.90342e-08
553 12 0.001 -0.0278892 0.000748428 -0.0392975 -0.0200644 -0.0156528 0.0232529 0 9.20047e-09
552 12 0.001 -0.027047 0.000258859 -0.0390998 -0.0265205 0.0414479 -0.0315343 0 2.37062e-07
1224 18 0.001 0.011828 0.00111127 -0.0386207 -0.0651486 0.0322421 0.0735857 0 4.52801e-08
1215 18 0.001 0.0185984 0.00131444 -0.0388417 -0.0830045 0.0245999 0.0285682 0 1.61234e-07
1551 21 0.001 0.0245114 0.000949074 -0.0396815 -0.0505947 0.0045149 -0.00493087 0 1.62189e-08
268 11 0.001 -0.053461 0.00122754 -0.0388769 0.0548427 -0.00162939 0.0128458 0 1.36991e-07
1223 18 0.001 0.0122761 0.00199822 -0.0384797 0.052167 -0.00348315 -0.059636 0 1.55393e-07
1222 18 0.001 0.012923 0.00276722 -0.0385545 -0.0209917 -0.0274787 0.0171936 0 1.12662e-07
1217 18 0.001 0.0174216 0.00282453 -0.0393386 0.0404647 0.025371 0.00176647 0 5.39425e-08
1218 18 0.001 0.0165603 0.00332333 -0.0394193 -0.0272003 -0.0478324 0.0107325 0 8.10076e-09
1216 18 0.001 0.0181272 0.00214689 -0.0391119 -0.00508289 0.0265673 -0.0404637 0 5.96715e-08
1550 21 0.001 0.0250027 0.0015639 -0.0390762 0.0605417 0.0266994 0.0325825 0 2.19641e-07
1221 18 0.001 0.0137239 0.00331533 -0.0387876 -0.0136974 -0.0372772 -0.00895343 0 1.91472e-08
1220 18 0.001 0.0146258 0.003581 -0.0391061 0.0201256 0.0395056 -0.000249057 0 2.51328e-08
1219 18 0.001 0.0155963 0.00357621 -0.0393459 0.00319248 0.00528442 0.00572054 0 1.28065e-08
895 15 0.001 -0.0139819 -0.00243977 -0.0379186 -0.0124937 -0.0748115 -0.0107387 0 1.03046e-07
894 15 0.001 -0.0145136 -0.00167569 -0.0375617 -0.00147337 0.0447625 0.0239671 0 1.33297e-07
1212 18 0.001 0.0183768 -0.00124327 -0.0374597 0.0698774 -0.0168817 -0.0242379 0 9.64212e-08
1211 18 0.001 0.0177861 -0.00185552 -0.0369395 -0.0373218 0.0674531 0.0382961 0 1.00646e-08
263 11 0.001 -0.049414 -0.000600922 -0.0379168 -0.0451651 -0.0119146 -0.0181035 0 1.93523e-07
262 11 0.001 -0.0492397 -0.00137729 -0.0373362 0.0300168 0.00607558 0.000413723 0 2.71537e-07
550 12 0.001 -0.0259329 -0.00109196 -0.0382151 -0.00435029 -0.0105141 0.0174399 0 3.00943e-08
549 12 0.001 -0.0257424 -0.00181597 -0.0375492 -0.0337654 0.0274425 -0.0163944 0 3.8531e-08
893 15 0.001 -0.0147742 -0.000788262 -0.0371592 -0.00149594 0.00995128 -0.00419779 0 2.91923e-07
892 15 0.001 -0.0147401 9.57852e-05 -0.0366724 0.0382376 -0.0385424 0.0274039 0 2.55029e-07
1213 18 0.001 0.0187389 -0.00044586 -0.0379567 -0.105439 0.0212527 -0.0110729 0 2.30989e-07
265 11 0.001 -0.0506002 0.000726152 -0.0387089 -0.0434563 0.0581837 -0.0668776 0 2.55661e-07
264 11 0.001 -0.0498937 0.00011799 -0.0383983 0.0359288 -0.0015031 0.0277997 0 2.52998e-07
267 11 0.001 -0.0524711 0.00134459 -0.0389118 0.00186621 -0.0266062 -0.0202993 0 4.13524e-09
266 11 0.001 -0.0514908 0.00115348 -0.0388924 0.016674 0.00655111 0.0366317 0 6.18187e-08
1549 21 0.001 0.0256839 0.00195404 -0.0384384 -0.0688565 0.00260891 -0.0650199 0 2.98341e-07
1548 21 0.001 0.0263486 0.00206883 -0.0377177 0.0529238 -0.0204571 0.0739891 0 2.58056e-07
546 12 0.001 -0.0269194 -0.00353384 -0.0355215 -0.00151701 0.000608693 0.00690869 0 2.42976e-07
260 11 0.001 -0.0497152 -0.00263885 -0.0359178 0.0410211 -0.0581312 -0.00799136 0 5.63235e-09
261 11 0.001 -0.0493527 -0.00208829 -0.0366637 -0.0130799 -0.0119274 0.031912 0 1.35387e-07
548 12 0.001 -0.0258565 -0.00248428 -0.0368236 -0.00435635 0.00251876 0.0071976 0 1.66549e-08
547 12 0.001 -0.0262612 -0.00306326 -0.0361222 -0.0163498 -0.0358207 0.023341 0 1.13048e-07
1209 18 0.001 0.0161724 -0.00222545 -0.0358736 0.020643 0.0444171 0.0164844 0 2.56708e-08
1210 18 0.001 0.0170279 -0.00218408 -0.036376 0.0146969 -0.0301571 -0.0472368 0 2.51e-08
891 15 0.001 -0.01441 0.000874148 -0.0361255 -0.000580153 0.0303628 -0.0401445 0 2.08509e-07
890 15 0.001 -0.0138082 0.00154258 -0.035671 -0.0662415 -0.0538397 0.00877035 0 2.0234e-07
885 15 0.001 -0.0092698 0.00138552 -0.0353013 -0.0508819 -0.056222 0.00533333 0 1.0915e-09
1546 21 0.001 0.0273242 0.00148425 -0.0360886 0.00524055 -0.018534 -0.0166324 0 4.47053e-08
1545 21 0.001 0.0276314 0.000810133 -0.0354133 0.0363937 -0.00940301 0.0543116 0 3.3921e-07
889 15 0.001 -0.0130075 0.00199515 -0.0353121 0.0616168 0.0040372 -0.0251623 0 1.00784e-07
888 15 0.001 -0.0120516 0.00222736 -0.0351306 -0.001883 -0.0063105 0.0193371 0 2.88707e-08
887 15 0.001 -0.0110506 0.00220534 -0.0351196 -0.0288229 0.0146809 -0.0192037 0 2.45495e-08
886 15 0.001 -0.0101049 0.00192557 -0.0352463 0.0273522 0.0296315 0.0197109 0 7.08284e-09
1547 21 0.001 0.0269146 0.00191042 -0.0368964 -0.0380577 -0.0115858 -0.024982 0 1.79294e-07
257 11 0.001 -0.0517083 -0.00278218 -0.0338212 -0.00168592 -0.00232403 -0.00451401 0 6.91867e-08
258 11 0.001 -0.0509469 -0.00301451 -0.0344306 -0.00977197 0.00605734 0.0060343 0 3.23826e-08
544 12 0.001 -0.0286291 -0.0037396 -0.0345212 0.0214339 -0.0146117 -0.000897825 0 7.40364e-08
543 12 0.001 -0.0294486 -0.00341516 -0.0340489 0.00222903 -0.0227001 -0.0179697 0 1.82579e-08
545 12 0.001 -0.0277473 -0.00378253 -0.0350018 0.00433331 0.0338762 -0.0130993 0 1.97208e-07
1538 21 0.001 0.0241727 -0.00353612 -0.0336036 -0.0524874 -0.120171 0.0280707 0 5.65329e-08
1539 21 0.001 0.025132 -0.00356761 -0.0338716 0.020262 0.029173 -0.0186058 0 1.71496e-08
1540 21 0.001 0.0260612 -0.00329236 -0.0341228 -0.0186224 0.0227957 0.0232869 0 1.72455e-08
259 11 0.001 -0.0502633 -0.00297106 -0.0351566 -0.0301073 0.053446 0.0100099 0 4.85779e-09
882 15 0.001 -0.00804536 -0.0011618 -0.0346171 0.00200657 0.0608268 -0.0287799 0 2.94972e-07
1208 18 0.001 0.0153437 -0.00196084 -0.0353934 -0.0274699 -0.123359 0.00548369 0 1.17753e-07
1541 21 0.001 0.0268674 -0.00272774 -0.0342849 -0.0212095 -0.00602641 0.00985725 0 1.3536e-08
1542 21 0.001 0.0274561 -0.00193585 -0.0343979 0.028159 -0.0159665 -0.0176611 0 2.22597e-08
883 15 0.001 -0.0081887 -0.000231403 -0.0349951 -0.0636654 -0.10293 0.0485353 0 3.1022e-07
1207 18 0.001 0.0146266 -0.00145102 -0.0349475 0.00340619 0.12899 -0.0104233 0 1.71063e-07
1206 18 0.001 0.0141057 -0.000686662 -0.0345543 0.000427387 -0.0780281 0.0187922 0 1.01084e-07
1543 21 0.001 0.0277806 -0.00101619 -0.0345897 -0.0161574 0.0904429 -0.0258054 0 4.19512e-07
1544 21 0.001 0.0278207 -5.1901e-05 -0.0349122 -0.0224645 -0.0323615 -0.0269731 0 7.20953e-07
884 15 0.001 -0.00862916 0.000625095 -0.0352362 0.0872804 0.0655494 -0.0314861 0 1.63757e-08
1205 18 0.001 0.0138678 0.000185764 -0.0341496 0.0196086 0.056604 -0.0116184 0 7.55941e-08
879 15 0.001 -0.00915752 -0.00318486 -0.0328745 0.0238081 0.0697552 -0.049766 0 6.76183e-07
1537 21 0.001 0.0232385 -0.00323573 -0.0333887 0.086779 0.143871 -0.0516391 0 6.14085e-08
255 11 0.001 -0.0530918 -0.00159676 -0.0330251 0.078171 -0.0261773 -0.028113 0 1.76675e-07
256 11 0.001 -0.05247 -0.00230424 -0.0333763 -0.0302431 -0.0252386 0.013295 0 1.04438e-07
542 12 0.001 -0.0301334 -0.00283839 -0.0336177 0.00786426 0.0297007 0.00565501 0 1.09213e-08
541 12 0.001 -0.0305964 -0.00205605 -0.0332056 -0.0251066 0.0339961 0.0150359 0 1.48615e-07
880 15 0.001 -0.00858549 -0.00271882 -0.0335341 0.0410601 -0.0126799 -0.0304464 0 5.39458e-08
881 15 0.001 -0.0081947 -0.00202093 -0.0341319 0.000184193 0.00790453 0.0109429 0 3.54975e-09
1536 21 0.001 0.0224527 -0.00263408 -0.0332512 -0.0679678 -0.0836215 0.0432699 0 1.04362e-08
1535 21 0.001 0.0218704 -0.00183847 -0.0330882 0.0382959 0.0218063 -0.0283474 0 5.88636e-09
254 11 0.001 -0.0534426 -0.000732243 -0.0327055 -0.0457005 0.0532444 0.015545 0 1.48524e-07
253 11 0.001 -0.0535045 0.000218517 -0.0323913 0.0579032 0.0332126 0.0223217 0 3.66721e-07
540 12 0.001 -0.0307819 -0.00116284 -0.0327737 0.0228751 -0.0428482 -0.0164016 0 1.47323e-07
1534 21 0.001 0.0215601 -0.000899961 -0.0329529 -0.00992733 -0.0455394 0.00821991 0 9.6878e-08
1204 18 0.001 0.0139296 0.00111958 -0.0337881 -0.0516483 -0.0273611 0.0134777 0 4.28568e-08