ITEM: TIMESTEP
400000
ITEM: NUMBER OF ATOMS
1620
ITEM: BOX BOUNDS ff ff ff
-6.0000000000000005e-02 6.0000000000000005e-02
-6.0000000000000001e-03 6.0000000000000001e-03
-5.5000000000000000e-02 5.5000000000000000e-02
ITEM: ATOMS id type radius x y z fx fy fz c_bendingE c_stretchingE
1249 18 0.001 0.00963458 -0.00187488 -0.0490433 -0.00155166 -0.0103779 -0.000330627 0 2.02661e-08
2 2 0.001 -0.05 -3.23381e-17 -0.0495026 0.0114244 -0.00444278 -0.00528661 -0.000426666 1.1655e-08
300 11 0.001 -0.0499545 -0.000886598 -0.0490463 0.000547835 0.00374577 -0.00195814 -0.000426666 1.77511e-09
4 4 0.001 -0.03 -3.23381e-17 -0.0495026 0.00772638 -2.515e-05 -0.000287465 -0.000426664 6.43318e-08
590 12 0.001 -0.0298553 -0.000893282 -0.0490779 0.00486473 0.015472 -0.0119591 -0.000426664 1.67628e-08
6 6 0.001 -0.01 -3.23381e-17 -0.0495026 -0.0195441 0.0153111 -0.00183094 -0.000426664 2.18402e-08
920 15 0.001 -0.00985992 -0.000934709 -0.0491878 0.00587614 -0.0192891 0.00191991 -0.000426664 1.11736e-08
8 8 0.001 0.01 -3.23381e-17 -0.0495026 -0.00483792 0.00956725 -0.0148049 0 4.30355e-08
1250 18 0.001 0.00996039 -0.000970699 -0.049292 0.01038 -0.000197726 0.000193643 0 2.48108e-08
10 10 0.001 0.03 -3.23381e-17 -0.0495026 -0.00547847 0.00189052 0.00167936 -0.000426666 4.70704e-09
1580 21 0.001 0.0299555 -0.000969247 -0.0492746 -0.00347589 0.00738399 0.000337535 -0.000426666 4.95128e-09
591 13 0.001 -0.0490457 3.0897e-05 -0.0495415 -0.0107474 0.00660351 0.00347787 -0.000426666 1.01375e-08
592 13 0.001 -0.0480944 6.36969e-05 -0.0495711 0.0162788 -0.00920343 0.0129459 0 1.47831e-08
593 13 0.001 -0.047139 9.52357e-05 -0.0495941 -0.0179619 0.00627338 -0.0175472 0 1.50018e-08
594 13 0.001 -0.0461879 0.000127798 -0.0496166 0.016882 0.00467259 0.00971426 0 1.40503e-08
595 13 0.001 -0.0452325 0.000161314 -0.0496341 -0.00975806 -0.00608337 -0.000576422 0 1.53751e-08
596 13 0.001 -0.0442795 0.000192154 -0.0496479 -0.010444 -0.000636661 0.00589645 0 3.44115e-09
598 13 0.001 -0.0423798 0.000246125 -0.0496711 0.0227204 -0.0118946 0.0166526 0 1.53467e-08
597 13 0.001 -0.043329 0.000220264 -0.0496589 -0.00585295 0.0065596 -0.0184557 0 9.36509e-09
599 13 0.001 -0.0414248 0.000265606 -0.0496779 -0.0140734 0.0117557 -0.00840205 0 8.27232e-09
600 13 0.001 -0.0404732 0.000282713 -0.0496829 0.0112427 -0.00616854 0.0100425 0 4.97053e-09
601 13 0.001 -0.0395188 0.000293635 -0.049684 0.00303058 0.000729875 -0.0163644 0 1.29947e-08
603 13 0.001 -0.03761 0.000297974 -0.049682 -0.00157548 -0.00308288 -0.0219771 0 1.71935e-09
602 13 0.001 -0.0385635 0.000298884 -0.0496855 -0.00724028 -0.00109127 0.0215259 0 9.63979e-09
604 13 0.001 -0.036657 0.000291706 -0.0496806 0.00435512 0.0158123 0.015787 0 3.60884e-09
606 13 0.001 -0.0347499 0.000261878 -0.0496718 -0.00349095 -0.00190941 -0.000271834 0 7.40281e-10
605 13 0.001 -0.0357029 0.000282265 -0.0496763 -0.00362282 -0.00791326 -0.00837909 0 3.8523e-09
607 13 0.001 -0.0337981 0.000227716 -0.0496661 0.00958698 -0.0173983 0.0108457 0 6.83944e-09
609 13 0.001 -0.0318974 0.000123776 -0.0496503 0.0258168 -0.0041795 0.00345481 0 2.16795e-08
608 13 0.001 -0.0328445 0.000178183 -0.0496574 -0.0241128 0.0231293 -0.0131388 0 2.0654e-08
610 13 0.001 -0.0309441 6.47793e-05 -0.0496397 0.00234914 -0.00635701 0.000254696 0 2.25297e-08
921 16 0.001 -0.0290593 0.000180104 -0.0494564 -0.00132543 0.00615458 0.00908664 -0.000426664 7.66148e-08
923 16 0.001 -0.0271537 0.000339156 -0.0495257 -0.0137051 0.00797554 -0.00408372 0 8.88324e-09
922 16 0.001 -0.0281056 0.000265877 -0.0494911 -0.010024 -0.0154487 0.000754487 0 4.27256e-08
924 16 0.001 -0.0262043 0.000402881 -0.0495581 0.000220542 -0.00460995 0.000474961 0 1.30035e-10
926 16 0.001 -0.0243012 0.000500638 -0.0496167 -0.00291004 0.00294464 -0.00427821 0 6.13914e-09
925 16 0.001 -0.0252541 0.000456056 -0.0495884 0.00928311 0.000149341 0.000218744 0 4.27357e-09
927 16 0.001 -0.0233485 0.000538579 -0.0496437 0.011875 0.00930752 0.00492943 0 2.11885e-08
929 16 0.001 -0.0214371 0.000588297 -0.0496882 0.00332699 0.00973874 0.00369085 0 3.08706e-08
928 16 0.001 -0.0223926 0.000569823 -0.0496673 -0.00333998 -0.0153739 -0.00541688 0 3.13834e-08
930 16 0.001 -0.0204806 0.000597948 -0.0497043 -0.00882596 -0.00530665 -0.000553375 0 2.32496e-08
931 16 0.001 -0.0195262 0.000596326 -0.0497152 0.00406601 0.0088142 0.0073939 0 1.41162e-08
932 16 0.001 -0.0185708 0.000584203 -0.0497207 0.0125497 -0.0123384 -0.0141332 0 4.92668e-08
933 16 0.001 -0.0176126 0.000556592 -0.0497245 -0.0113722 -0.00555758 0.012405 0 5.21612e-08
934 16 0.001 -0.0166575 0.000516246 -0.0497221 -0.00975659 0.0241025 -0.00256021 0 1.31952e-08
935 16 0.001 -0.0157055 0.000469905 -0.0497166 0.00625826 -0.0307158 -0.00856536 0 8.59353e-09
937 16 0.001 -0.0137991 0.00034177 -0.0496961 0.00553209 -0.00828494 -0.00938963 0 3.2258e-08
936 16 0.001 -0.0147523 0.000408261 -0.049709 0.00310927 0.0254948 0.0157987 0 1.81793e-08
938 16 0.001 -0.0128453 0.000264668 -0.0496828 -0.00624272 -0.00637706 -0.00917013 0 3.25343e-08
940 16 0.001 -0.010942 8.34353e-05 -0.0496479 -0.00101639 -0.0111009 -0.0141245 0 3.75603e-08
939 16 0.001 -0.0118939 0.000176168 -0.0496689 0.00458759 0.0121088 0.0200318 0 2.84784e-08
1251 19 0.001 -0.00906365 0.000168086 -0.0494356 0.0125538 -0.00434239 0.00873287 -0.000426664 1.53277e-08
1252 19 0.001 -0.00811216 0.000256191 -0.0494665 0.00221167 0.0052137 -0.00411968 0 3.24835e-08
1254 19 0.001 -0.00620627 0.000402883 -0.0495294 -0.0135137 -0.00727632 0.00685414 0 1.25067e-08
1253 19 0.001 -0.00715936 0.000336223 -0.0494991 -0.0029977 -0.00426693 -0.00333825 0 3.13488e-08
1255 19 0.001 -0.00525571 0.000456109 -0.0495557 0.0204976 0.00269059 -0.00864433 0 2.732e-08
1257 19 0.001 -0.00334676 0.000539749 -0.0496007 0.00321349 -0.0124909 -0.0148174 0 6.39467e-09
1256 19 0.001 -0.00429949 0.000500898 -0.0495803 -0.0158382 0.0134416 0.0108102 0 2.91916e-08
1258 19 0.001 -0.00239284 0.000566906 -0.04962 0.0127744 0.0049603 0.016933 0 3.22398e-08
1260 19 0.001 -0.000479024 0.000590388 -0.049645 -0.00432605 0.00183161 0.00456654 0 2.68605e-08
1259 19 0.001 -0.00143546 0.000584106 -0.0496332 -0.00448392 -0.00606134 -0.0095621 0 4.50698e-08
1262 19 0.001 0.00143379 0.000579737 -0.0496645 -0.00787213 -0.0190613 0.0155168 0 3.68143e-08
1261 19 0.001 0.000476375 0.000588412 -0.049655 0.00824057 0.0145481 -0.0144636 0 3.59502e-08
1263 19 0.001 0.00238907 0.000555638 -0.0496665 -0.0155029 0.00311199 0.00547987 0 1.07805e-08
1264 19 0.001 0.00334017 0.000520577 -0.0496639 0.0102442 0.00690196 -0.0123586 0 3.76095e-09
1265 19 0.001 0.00429337 0.00047686 -0.0496622 0.000330005 -0.00911153 0.00210533 0 7.48752e-09
1266 19 0.001 0.0052462 0.000422012 -0.0496602 0.0117463 0.0184408 0.00140317 0 2.58796e-08
1268 19 0.001 0.00715462 0.000279823 -0.0496535 0.00143499 0.0026363 -0.00504486 0 4.18173e-08
1267 19 0.001 0.00620117 0.00035943 -0.0496572 -0.00314392 -0.0284964 0.000264025 0 4.12009e-08
1269 19 0.001 0.00810776 0.000193054 -0.0496496 -0.00316796 0.0340644 -0.00308844 0 3.26577e-08
1270 19 0.001 0.00905936 0.00010616 -0.0496431 0.000464326 -0.0199169 0.0174077 0 3.16975e-08
1582 22 0.001 0.0118926 0.000219799 -0.049425 -0.0131646 -0.00347481 0.00714159 0 7.99986e-09
1581 22 0.001 0.0109404 0.000146332 -0.0494118 -0.00311022 0.00744203 -0.000119249 0 2.1288e-08
1583 22 0.001 0.0128422 0.000282705 -0.0494389 0.00967535 -0.00895977 -0.00307452 0 3.14729e-09
1585 22 0.001 0.0147495 0.000373746 -0.0494641 -0.0104399 -0.027251 -0.00621266 0 1.12522e-08
1584 22 0.001 0.0137949 0.000331933 -0.0494514 0.00550369 0.0246251 -0.00377982 0 1.37266e-08
1586 22 0.001 0.015702 0.000397835 -0.049476 0.00183601 0.0117533 0.0121178 0 1.23842e-09
1588 22 0.001 0.0176097 0.000416389 -0.0494882 -0.0036424 -0.018163 0.00134859 0 5.80483e-09
1587 22 0.001 0.0166553 0.000411997 -0.0494832 0.00433821 0.0029613 -0.00348843 0 5.34511e-09
1589 22 0.001 0.0185633 0.00040892 -0.0494917 0.00397732 0.0265272 -0.00413656 0 6.04038e-09
1590 22 0.001 0.0195177 0.000399758 -0.0494955 -0.0156647 -0.013929 0.00278844 0 7.551e-09
1591 22 0.001 0.0204682 0.000381181 -0.0494987 0.0179543 -0.00290039 -0.00618464 0 1.06797e-08
1592 22 0.001 0.021423 0.000354856 -0.0495018 0.00376459 -0.00282614 0.00756663 0 2.16961e-08
1593 22 0.001 0.0223786 0.000324231 -0.0495021 -0.00403012 0.0156068 -0.00341854 0 2.08001e-08
1594 22 0.001 0.0233331 0.00029393 -0.0495014 -0.00987357 0.00269104 0.00590427 0 6.83764e-09
1595 22 0.001 0.024285 0.000259523 -0.049499 0.00214959 -0.0309878 -0.00369734 0 1.00531e-09
1596 22 0.001 0.0252373 0.000214342 -0.0494981 0.00577149 0.0210998 -0.00241763 0 5.74803e-09
1597 22 0.001 0.0261908 0.000170945 -0.0494993 -0.00494066 0.00237111 -0.00361504 0 5.62444e-09
1599 22 0.001 0.0280947 8.97331e-05 -0.0495041 0.00148635 -0.0140896 0.0136153 0 2.50451e-10
1598 22 0.001 0.0271433 0.000130117 -0.0495022 -0.00383841 0.00500326 0.000282948 0 8.72077e-10
1600 22 0.001 0.0290465 4.51292e-05 -0.049502 0.00492893 0.00753127 -0.0124951 -0.000426666 4.89097e-09
587 12 0.001 -0.0310915 -0.00307891 -0.0476309 -0.00871249 -0.00254428 0.00269202 0 2.01443e-09
916 15 0.001 -0.0119486 -0.00366517 -0.0476398 0.0147199 0.0081681 0.00321084 0 6.02185e-09
917 15 0.001 -0.0111191 -0.00329944 -0.0480601 -0.0173376 0.00499968 -0.00298476 0 5.13002e-09
1245 18 0.001 0.00643947 -0.00336634 -0.0477238 0.00821687 0.00822231 -0.0093164 0 3.48776e-09
1246 18 0.001 0.00736812 -0.0034118 -0.0480885 -0.000653013 0.00098663 0.0052875 0 5.27959e-09
1247 18 0.001 0.00827008 -0.00315677 -0.0484325 -0.00180667 -0.00895862 -0.00332595 0 2.32573e-09
1575 21 0.001 0.0264781 -0.00325013 -0.0474678 0.00457737 0.00615812 0.00886362 0 5.96646e-10
1576 21 0.001 0.0273748 -0.00332682 -0.047895 -0.00375711 -0.00451921 -0.00397574 0 1.73461e-09
1577 21 0.001 0.0282574 -0.00310311 -0.0482982 -0.00213014 -0.00321298 0.00217167 0 5.7014e-09
297 11 0.001 -0.0514477 -0.00287603 -0.047562 -0.010524 -0.00711061 -0.00280943 0 1.17308e-08
299 11 0.001 -0.0502065 -0.00172151 -0.0485643 0.00246916 0.000995609 -0.00605936 0 3.65428e-09
298 11 0.001 -0.0507248 -0.0024117 -0.0480691 -0.00688079 0.00207002 0.0122595 0 3.86995e-09
588 12 0.001 -0.0304413 -0.00252324 -0.0481406 0.0162859 -3.05145e-05 -0.00598207 0 5.02389e-09
589 12 0.001 -0.0300096 -0.00176564 -0.0486277 -0.0100876 -0.0117461 0.0122162 0 1.31167e-08
919 15 0.001 -0.010018 -0.00186218 -0.0488481 -0.0108831 0.00893674 0.00556972 0 1.83294e-08
918 15 0.001 -0.0104554 -0.0026767 -0.0484677 0.0181861 -0.00382814 -0.00500333 0 7.7225e-09
1248 18 0.001 0.00905156 -0.00262855 -0.0487565 -0.00859871 -0.000279865 0.00664955 0 3.53069e-09
1578 21 0.001 0.0290317 -0.00259983 -0.0486681 0.00590764 0.00877522 -0.00413349 0 5.19209e-09
1579 21 0.001 0.0296188 -0.00186297 -0.0489966 0.003026 -0.01469 0.00236504 0 5.61889e-09
296 11 0.001 -0.0522999 -0.00306847 -0.0470748 -0.00172563 0.0061605 0.00809096 0 3.39379e-08
584 12 0.001 -0.033588 -0.00306354 -0.046151 0.0079336 0.0243341 0.00798332 0 2.10929e-08
586 12 0.001 -0.031896 -0.00337316 -0.0471198 -0.00531655 0.0123797 0.000348465 0 2.33375e-09
585 12 0.001 -0.0327633 -0.00336715 -0.0466254 -0.00326352 -0.0114276 -0.000128818 0 5.02853e-09
914 15 0.001 -0.0137046 -0.00349856 -0.0467588 0.0072633 0.00144395 -0.0036765 0 3.09777e-09
913 15 0.001 -0.0144445 -0.00298758 -0.0463287 -0.0116234 0.00701046 0.0110261 0 1.48396e-08
915 15 0.001 -0.0128389 -0.0037323 -0.0471985 -0.0124399 -0.00657902 -0.000405423 0 4.00092e-09
294 11 0.001 -0.0539758 -0.00256428 -0.0461588 0.0103964 0.00563261 -0.00427094 0 7.07408e-09
295 11 0.001 -0.0531761 -0.00296054 -0.0466013 0.0140433 -0.012661 -0.0111929 0 2.32266e-08
1242 18 0.001 0.00443318 -0.00164737 -0.0465403 0.00470051 0.0094108 0.0106497 0 1.12491e-08
1244 18 0.001 0.00558089 -0.00302377 -0.0473522 -0.00912296 -0.00794339 0.00608149 0 9.45733e-10
1243 18 0.001 0.00488533 -0.00242855 -0.0469555 0.0116927 -0.00542063 -0.0101326 0 1.17982e-08
1573 21 0.001 0.0250292 -0.00226584 -0.0465649 0.000981496 0.0103557 0.00498869 0 5.04254e-09
1574 21 0.001 0.0256702 -0.00288323 -0.047014 -0.00785076 -0.00459906 -0.00625859 0 1.06134e-10
1241 18 0.001 0.0042702 -0.00076425 -0.0461077 -0.0199362 -0.00786211 -0.0062159 0 6.49049e-09
1572 21 0.001 0.0246312 -0.00146617 -0.0461171 -0.00073012 -0.0134698 -0.0027253 0 6.10342e-09
293 11 0.001 -0.0546105 -0.00191416 -0.0457548 -0.0171065 -4.8002e-05 0.00369626 0 6.52789e-09
582 12 0.001 -0.0347372 -0.00171462 -0.0452759 0.00260721 -0.00506933 -0.00057413 0 3.59421e-09
583 12 0.001 -0.0342688 -0.00248952 -0.0456931 -0.00550195 -0.0244587 -0.00922981 0 1.80994e-08
912 15 0.001 -0.0149788 -0.00225129 -0.0459114 0.0248431 -0.00802062 -0.0134168 0 1.72917e-08
292 11 0.001 -0.0550106 -0.00107775 -0.0453885 0.0247367 -0.00159256 -0.003081 0 3.95582e-09
291 11 0.001 -0.0551188 -0.000147398 -0.0450529 -0.0202824 0.0166317 0.0100933 0 1.36118e-08
581 12 0.001 -0.0349364 -0.00081483 -0.0449007 0.00630387 0.0138573 0.000515513 0 5.19386e-09
911 15 0.001 -0.0152441 -0.00136797 -0.0455372 -0.0186503 -0.00126548 0.00315429 0 3.03862e-09
910 15 0.001 -0.0152192 -0.000427782 -0.0452089 0.0150408 0.00600827 0.00193013 0 3.20737e-09
1571 21 0.001 0.0245234 -0.000583269 -0.0456691 0.00660971 0.00911499 0.00281134 0 3.21308e-09
290 11 0.001 -0.0549318 0.000785211 -0.0447439 0.00376194 -0.0173886 -0.00710324 0 1.11412e-08
580 12 0.001 -0.0348372 0.000122761 -0.0445728 -0.0125779 -0.0211768 -0.007175 0 2.78635e-08
909 15 0.001 -0.0148951 0.000469604 -0.0449141 -0.0225705 -0.0120965 -0.00302899 0 1.7153e-08
908 15 0.001 -0.0143103 0.00122493 -0.0446427 0.00201318 0.00528268 0.000554248 0 2.2638e-08
1240 18 0.001 0.00440648 0.000128111 -0.0456907 0.0178322 0.0163468 0.00551047 0 1.42708e-08
1239 18 0.001 0.0048381 0.000941358 -0.045301 -0.00939908 -0.0124398 -0.00257531 0 8.79015e-09
1570 21 0.001 0.0247197 0.000292498 -0.0452316 -0.00795754 -0.00405464 -0.00660083 0 2.85901e-09
1569 21 0.001 0.0251967 0.00105835 -0.0448096 0.012437 0.00433301 0.0112862 0 9.75718e-09
289 11 0.001 -0.0544626 0.00161956 -0.0444697 -0.00645992 0.020499 0.000137508 0 3.34106e-09
1238 18 0.001 0.0055151 0.00157608 -0.0449395 -0.00117647 0.00292659 0.00020519 0 1.57824e-09
1237 18 0.001 0.00636996 0.00196776 -0.0446106 0.00876458 0.0012936 0.000655968 0 2.69597e-09
1230 18 0.001 0.0100753 -0.00215217 -0.0430296 -0.00832821 0.00199897 0.00307824 0 1.48e-09
901 15 0.001 -0.00909203 -0.00060922 -0.042986 0.0232356 0.00875006 -0.00819291 0 1.82393e-09
1232 18 0.001 0.0101543 -0.000222024 -0.0434204 0.0104956 0.00259541 -0.000635814 0 2.98021e-11
1231 18 0.001 0.0102661 -0.00119597 -0.0432391 -0.00458987 -0.00128867 0.0013835 0 1.24972e-10
579 12 0.001 -0.0344473 0.000987473 -0.0442834 0.00553192 0.00651099 0.00488735 0 3.32334e-08
573 12 0.001 -0.0293932 0.00121548 -0.0430903 0.0155742 0.00749131 0.0108741 0 3.01808e-09
903 15 0.001 -0.00991663 0.00109622 -0.0435177 0.00086249 0.0246709 -0.00323266 0 1.2489e-08
902 15 0.001 -0.00936646 0.00030731 -0.0432684 -0.0140947 -0.0217881 0.00426528 0 1.11716e-08
1233 18 0.001 0.00975186 0.000671206 -0.043604 -0.00894812 -0.0124085 -1.08257e-05 0 2.34606e-09
1234 18 0.001 0.00909652 0.00139153 -0.0438101 0.00279615 0.0157936 -0.000866312 0 2.64597e-09
288 11 0.001 -0.0537546 0.00227723 -0.0442189 -0.00951134 -0.0298955 -0.000816478 0 2.79538e-08
287 11 0.001 -0.0528807 0.00267452 -0.04397 0.0207865 0.0178759 -0.000401024 0 2.76889e-08
286 11 0.001 -0.0519199 0.00278133 -0.0437211 -0.0159712 -0.00977672 -0.00107487 0 7.38927e-09
285 11 0.001 -0.0509844 0.00258502 -0.0434468 0.00103874 0.0149645 0.00325106 0 1.451e-08
284 11 0.001 -0.0501651 0.00211715 -0.0431341 0.00959042 -0.00209632 -0.00253132 0 1.02573e-08
578 12 0.001 -0.0337999 0.00169339 -0.0440167 0.00335009 0.0100101 0.00276009 0 6.99606e-09
577 12 0.001 -0.0329579 0.00217038 -0.0437777 -0.00564231 -0.00059452 -0.000466731 0 2.75923e-09
576 12 0.001 -0.0320038 0.00236888 -0.043576 0.00696684 0.00471045 -0.0027994 0 2.76192e-09
575 12 0.001 -0.031026 0.00226711 -0.0434114 -0.00173784 -0.00591404 0.00399666 0 4.8903e-11
574 12 0.001 -0.0301256 0.00186854 -0.0432561 -0.00620824 0.00157553 -0.00708162 0 2.92282e-09
907 15 0.001 -0.0135146 0.00176659 -0.0443945 0.0101637 -0.00470541 -0.000720962 0 9.03602e-09
906 15 0.001 -0.0125828 0.00203705 -0.0441697 -0.000782097 0.012891 0.00353731 0 1.07134e-09
905 15 0.001 -0.0116101 0.00201149 -0.0439545 0.0105936 -0.00540441 0.000188859 0 4.89256e-09
904 15 0.001 -0.0106893 0.0016872 -0.0437418 -0.00934587 -0.00834145 -7.70848e-05 0 6.37557e-09
1236 18 0.001 0.00731807 0.00207259 -0.0443158 -0.00764453 0.00314233 0.00063285 0 2.39219e-09
1235 18 0.001 0.00825729 0.00187556 -0.0440477 0.000881157 -0.00931737 -0.000372858 0 6.11652e-10
1568 21 0.001 0.0259037 0.00162448 -0.0443857 -0.002991 -6.10238e-05 -0.00764308 0 1.14457e-08
1567 21 0.001 0.0267589 0.00192571 -0.0439674 -0.00983031 -0.00932225 0.000821821 0 3.20478e-09
1566 21 0.001 0.0276593 0.00192565 -0.0435416 0.00789884 0.0113469 -0.00324086 0 8.03735e-10
1565 21 0.001 0.0285088 0.0016292 -0.0431121 -0.00472709 -0.00446404 0.00351694 0 1.29896e-10
568 12 0.001 -0.0297742 -0.00304755 -0.0416209 0.00381122 0.01332 0.000835197 0 1.92187e-08
898 15 0.001 -0.00995215 -0.00310506 -0.0417899 0.00576445 0.00242668 0.0015849 0 1.2725e-09
1226 18 0.001 0.00719943 -0.00415259 -0.0416453 0.0100438 -0.00796142 -0.00613301 0 1.01696e-08
1227 18 0.001 0.00808895 -0.00404482 -0.0420813 -0.0112549 0.0200844 0.00990445 0 5.82131e-09
1228 18 0.001 0.00891958 -0.00364412 -0.0424536 0.0170372 -0.0154302 -0.0118481 0 5.74673e-09
570 12 0.001 -0.0287797 -0.00151384 -0.0423505 0.00480398 0.00437923 0.00231939 0 7.49537e-10
569 12 0.001 -0.0291556 -0.00236933 -0.0420056 0.00462069 -0.00326437 -0.0070199 0 3.35991e-09
899 15 0.001 -0.00940259 -0.00240531 -0.0422413 -0.000239869 -0.0091256 -0.00348042 0 9.18347e-10
900 15 0.001 -0.00910629 -0.00154667 -0.0426507 -0.00797271 0.000815779 0.00890912 0 1.83101e-09
1229 18 0.001 0.00960687 -0.00299458 -0.0427705 0.00559793 0.00264854 0.000472814 0 1.51023e-09
1561 21 0.001 0.0297633 -0.00149647 -0.0414395 -0.00635695 0.00598267 -0.00394438 0 2.56931e-09
280 11 0.001 -0.0493029 -0.00127034 -0.0417418 0.00269164 -0.00229824 0.00133745 0 3.21664e-10
281 11 0.001 -0.0490841 -0.000369786 -0.0421097 0.00211589 0.00625591 -0.00530069 0 4.08418e-09
571 12 0.001 -0.0286867 -0.000563675 -0.0426382 0.00354744 -0.00762529 0.00527172 0 5.89365e-09
1562 21 0.001 0.0298664 -0.000582669 -0.0418243 0.00650121 -0.00721791 -0.00163469 0 1.98e-09
283 11 0.001 -0.0495359 0.00141839 -0.0428067 -0.00237897 -0.00290804 -0.00106056 0 2.91545e-09
282 11 0.001 -0.0491631 0.000559273 -0.0424683 -0.00121675 -0.00970114 0.00871893 0 5.41582e-09
572 12 0.001 -0.0288954 0.00037874 -0.0428776 -0.0145371 -0.000563804 -0.0112362 0 5.98174e-09
1564 21 0.001 0.0292053 0.00106729 -0.0426735 -0.00794808 -0.00860236 -0.0032372 0 1.29342e-10
1563 21 0.001 0.0296733 0.000300069 -0.042242 0.00898317 0.0132998 0.00318855 0 1.96931e-09
565 12 0.001 -0.032341 -0.00346255 -0.0403385 -0.00564738 0.0208824 -0.00181389 0 1.41459e-08
566 12 0.001 -0.0314545 -0.00361875 -0.0407697 0.0017717 -0.0134098 0.00494481 0 3.41009e-09
567 12 0.001 -0.0305662 -0.0034756 -0.0412025 -0.0163468 -0.011555 0.0053819 0 1.85737e-08
895 15 0.001 -0.012463 -0.00363573 -0.0404402 -0.00562531 0.00442337 -0.00139998 0 1.38565e-09
894 15 0.001 -0.0132821 -0.00322146 -0.0400505 -0.00379931 -0.000515239 0.0011309 0 1.28404e-09
896 15 0.001 -0.0115735 -0.0037556 -0.0408715 0.0260486 -0.00501184 -0.00226603 0 2.50236e-08
897 15 0.001 -0.0106982 -0.00357148 -0.0413229 -0.0279085 0.00609764 0.00207814 0 2.44366e-08
1224 18 0.001 0.00562047 -0.00351194 -0.0406573 0.00697592 -0.00208331 0.000861473 0 1.90419e-09
1225 18 0.001 0.00634912 -0.00396704 -0.0411657 -0.0203983 -0.00215276 0.00433889 0 1.16815e-08
1557 21 0.001 0.0269491 -0.00357781 -0.040081 0.0150587 0.015952 0.0009301 0 7.30967e-09
1558 21 0.001 0.027887 -0.00343474 -0.0403963 -0.0184981 -0.00398999 0.000432487 0 1.0802e-08
1559 21 0.001 0.0287192 -0.00300553 -0.0407326 -0.000843011 -0.00374639 0.00179186 0 1.04947e-08
277 11 0.001 -0.0513609 -0.00293652 -0.0405505 -0.00463214 0.0167734 0.00330057 0 2.29303e-09
276 11 0.001 -0.0522607 -0.00294201 -0.040118 0.024918 -0.00700606 -0.00910659 0 2.58371e-08
279 11 0.001 -0.0497939 -0.00204993 -0.0413595 -0.00529506 -0.00509507 0.00350851 0 5.99689e-09
278 11 0.001 -0.0505062 -0.00262684 -0.0409612 0.00361229 0.00037803 -0.00593237 0 6.04856e-09
1223 18 0.001 0.00510396 -0.00284205 -0.0401304 0.0046511 -0.00136651 -0.00285117 0 2.76271e-09
1560 21 0.001 0.0293662 -0.00233601 -0.0410816 0.00816636 0.000592739 0.00210472 0 9.46408e-09
564 12 0.001 -0.0331409 -0.00301176 -0.0399408 0.00814159 -0.00357572 -0.00485001 0 1.44555e-08
1556 21 0.001 0.0260145 -0.00341525 -0.0397757 0.00322759 -0.0320742 -0.00384617 0 1.46214e-08
275 11 0.001 -0.0530959 -0.00265464 -0.0396665 -0.0210278 -0.0154043 0.00396515 0 2.77419e-08
274 11 0.001 -0.0537896 -0.00211036 -0.0392057 -0.011043 0.016862 0.00858345 0 1.19757e-08
563 12 0.001 -0.0337612 -0.00231646 -0.0395825 0.00161278 -0.0160644 -9.90897e-05 0 6.77068e-09
562 12 0.001 -0.0341296 -0.00145489 -0.0392489 0.00689634 0.0018289 -0.00490759 0 1.15443e-08
893 15 0.001 -0.0139415 -0.00255329 -0.0397116 0.00616323 -0.00903377 -0.00255011 0 4.84904e-09
892 15 0.001 -0.0143641 -0.00169969 -0.0394238 0.00679191 0.00747623 0.00198673 0 3.70831e-09
1222 18 0.001 0.00485379 -0.00202492 -0.0396202 -0.00303713 0.000135793 -0.00266991 0 5.66014e-09
1555 21 0.001 0.0251723 -0.00297455 -0.0394883 -0.00852734 0.0204449 0.00524776 0 1.52008e-08
1554 21 0.001 0.0245008 -0.00228445 -0.0392265 0.00358026 0.00114096 -0.00387956 0 9.06192e-10
273 11 0.001 -0.0542645 -0.00135666 -0.0387516 0.0147779 -0.00846801 -0.0105776 0 1.11092e-08
561 12 0.001 -0.0342046 -0.000512231 -0.0389415 -0.0106611 0.00821236 0.0120352 0 6.55597e-09
891 15 0.001 -0.0145038 -0.000741435 -0.0391879 -0.0175923 -0.000783049 -0.000501365 0 2.94792e-10
1221 18 0.001 0.00489645 -0.00114442 -0.0391584 0.00296462 0.00741326 0.00545434 0 3.71617e-09
1220 18 0.001 0.00523565 -0.00030081 -0.0387476 -0.0097636 -0.0043403 -0.00454847 0 3.78636e-09
1552 21 0.001 0.023924 -0.000448566 -0.0387986 0.00575291 0.000206959 -0.00176773 0 9.3357e-11
1553 21 0.001 0.0240703 -0.00141345 -0.0390009 -0.00301914 -0.00519022 0.00289674 0 3.04047e-10
560 12 0.001 -0.0339793 0.000415892 -0.0386548 0.00891885 -0.00156347 -0.0111268 0 5.5337e-11
559 12 0.001 -0.0334709 0.00123831 -0.0384118 -0.00220803 0.0124459 0.00876243 0 6.10936e-09
890 15 0.001 -0.0143485 0.00022563 -0.0390047 0.0161466 0.00106278 0.000334721 0 1.14925e-09
889 15 0.001 -0.0139011 0.00110429 -0.0388508 -0.00485103 0.0187016 0.000232528 0 1.59636e-08
1551 21 0.001 0.0240781 0.000518943 -0.0386148 -0.0098366 -0.00386202 -0.000284841 0 3.00448e-09
1550 21 0.001 0.0245147 0.00139581 -0.038439 0.000924253 -0.00315891 0.0023634 0 7.43762e-09
888 15 0.001 -0.0132067 0.00180851 -0.0386971 0.00391809 -0.0305487 0.00297244 0 1.5117e-08
887 15 0.001 -0.0123347 0.00225787 -0.0385182 -0.00702323 0.01062 -0.00215331 0 8.7366e-11
272 11 0.001 -0.0544574 -0.000478115 -0.0383259 0.00357379 0.0102096 0.00832254 0 6.17806e-09
1214 18 0.001 0.0101314 -3.80781e-05 -0.0369884 0.00466581 -0.017595 0.00426646 0 1.14833e-08
271 11 0.001 -0.0543458 0.000432907 -0.037932 -0.00774544 -0.0163486 -0.00980337 0 1.26843e-08
270 11 0.001 -0.0539425 0.00127185 -0.0375839 -0.00401219 0.019849 0.00803035 0 1.00516e-08
883 15 0.001 -0.00889701 0.00121563 -0.0374125 -0.00438302 0.0115228 -0.00494715 0 4.94373e-09
882 15 0.001 -0.00849041 0.000404005 -0.0370023 0.00535101 0.0115744 -0.0034778 0 1.1415e-08
1219 18 0.001 0.00583748 0.000401872 -0.038381 -0.0031048 -0.00519194 0.00108907 0 1.2958e-08
1218 18 0.001 0.006641 0.000879832 -0.0380442 0.0178777 0.00753259 0.00597492 0 1.46911e-08
1216 18 0.001 0.00852678 0.00099003 -0.0374769 0.00166753 0.00478178 -0.00144808 0 1.29417e-09
1217 18 0.001 0.00757093 0.00108428 -0.0377412 -0.0110109 0.000125515 -0.00383642 0 5.39259e-09
1215 18 0.001 0.00941248 0.000603318 -0.0372358 -0.00577348 -3.65553e-05 0.000455498 0 5.54005e-09
269 11 0.001 -0.0532853 0.00195254 -0.0372674 0.0165153 -0.0228033 -0.00125734 0 1.23727e-09
268 11 0.001 -0.0524367 0.00239185 -0.0369803 -0.0240399 0.0215318 -0.0021005 0 9.62474e-09
558 12 0.001 -0.0327305 0.00186856 -0.0381803 0.00187472 -0.00932273 -0.00418968 0 7.42428e-09
557 12 0.001 -0.0318324 0.00223558 -0.0379462 -0.00497858 -0.0098483 0.00465282 0 1.31497e-09
556 12 0.001 -0.0308705 0.00230338 -0.0376931 0.00638063 0.0119844 -0.00752311 0 8.61871e-10
554 12 0.001 -0.0291404 0.00157604 -0.0370883 0.0109191 0.0011389 -0.00181575 0 3.92249e-09
555 12 0.001 -0.0299388 0.00207348 -0.0374192 -0.00873497 -0.0086961 0.00610681 0 9.28251e-10
886 15 0.001 -0.0113732 0.0024211 -0.038312 0.00532624 0.00452784 -0.0033342 0 7.2242e-10
885 15 0.001 -0.0104147 0.00228591 -0.03807 -0.00507314 0.00695762 0.000288428 0 2.73503e-09
884 15 0.001 -0.00956094 0.00187099 -0.0377701 0.000166552 -0.0219137 0.00541553 0 6.3947e-09
1549 21 0.001 0.0251949 0.00210099 -0.0382668 -0.00531468 0.0138379 -0.00398504 0 6.60935e-09
1548 21 0.001 0.0260562 0.00257231 -0.0381028 0.0170261 -0.00325688 0.00298681 0 6.35153e-09
1547 21 0.001 0.0270209 0.00275863 -0.0379218 -0.00522792 -0.00644352 0.00190574 0 4.98038e-09
1546 21 0.001 0.0279872 0.00264272 -0.037702 0.0091549 0.00730652 0.000472713 0 6.9481e-09
1545 21 0.001 0.0288637 0.00224238 -0.0374364 -0.0195709 -0.00363622 -0.00747701 0 9.03884e-09
1544 21 0.001 0.0295565 0.00160068 -0.0371222 0.0132901 0.00564188 0.00274131 0 3.28377e-09
1210 18 0.001 0.0103346 -0.00349992 -0.035536 -0.00815512 0.000742345 0.0089395 0 3.24023e-09
879 15 0.001 -0.00902743 -0.00204801 -0.0355614 0.00977239 -0.0120157 0.00357634 0 1.43013e-09
1211 18 0.001 0.0107167 -0.00269164 -0.035973 0.00830812 0.000456962 -0.0110608 0 3.16568e-09
1212 18 0.001 0.0108154 -0.00178311 -0.0363714 -0.0145387 -0.00263443 0.00696569 0 7.07299e-10
262 11 0.001 -0.0483427 -0.000478633 -0.0355088 -7.93891e-06 0.0151944 -0.0012066 0 1.03157e-08
551 12 0.001 -0.0282125 -0.000829574 -0.0357549 -0.00100471 0.000792187 -0.00306691 0 1.66376e-09
880 15 0.001 -0.00856149 -0.0013206 -0.0360566 -0.00803942 0.0128402 -0.00379919 0 2.27664e-09
881 15 0.001 -0.00837529 -0.000470292 -0.0365445 0.000635637 -0.0157498 0.00660669 0 1.16734e-08
1213 18 0.001 0.0106134 -0.000867778 -0.0367083 0.0128796 0.0174147 -0.0058682 0 7.41572e-09
1542 21 0.001 0.0301568 -8.12336e-05 -0.0362873 -0.00403164 0.00367679 -0.00769762 0 5.42416e-09
1541 21 0.001 0.030007 -0.00093703 -0.0357969 0.00858355 0.00436007 -0.000710327 0 1.28629e-09
263 11 0.001 -0.0485045 0.00046358 -0.0357924 -0.0113542 -0.0154271 0.00254513 0 5.43435e-09
264 11 0.001 -0.0489589 0.00131295 -0.0360398 0.00764359 0.023342 -0.00665522 0 8.6491e-09
553 12 0.001 -0.0285511 0.000873901 -0.0366913 -0.00312771 0.00053795 0.00472347 0 6.84204e-09
552 12 0.001 -0.0282312 4.59418e-05 -0.0362336 -0.00794013 -0.000147401 -0.00308037 0 4.0656e-09
1543 21 0.001 0.030003 0.000797591 -0.0367372 -0.00659652 -0.0121238 0.00814183 0 5.31625e-09
267 11 0.001 -0.05149 0.00255405 -0.0367249 0.0139657 -0.0140131 0.00158605 0 9.10691e-09
266 11 0.001 -0.0505301 0.00241433 -0.0364931 0.000768163 0.0152012 -0.000371466 0 5.86558e-10
265 11 0.001 -0.0496572 0.00198897 -0.0362701 -0.00193247 -0.0188038 0.00322415 0 3.67725e-09
1207 18 0.001 0.00808789 -0.00455265 -0.0340361 -0.00157016 -0.00671712 0.00378514 0 9.57448e-11
258 11 0.001 -0.0503707 -0.00324357 -0.0339671 0.010855 0.00201083 -0.00803009 0 1.52008e-08
547 12 0.001 -0.0306796 -0.0030183 -0.0339502 0.00864545 -0.00134664 0.00367223 0 1.13253e-09
1208 18 0.001 0.00894202 -0.00447941 -0.034545 -0.00265111 -0.00677051 0.000951251 0 1.31471e-09
1209 18 0.001 0.00971789 -0.00411737 -0.0350534 0.00615286 0.0017842 -0.00320326 0 1.38916e-09
259 11 0.001 -0.0495567 -0.00286271 -0.0343978 0.00694756 0.00341203 0.00253776 0 1.59109e-09
260 11 0.001 -0.0489016 -0.00222664 -0.0348011 -0.00580405 -0.00678654 -0.00168864 0 1.9967e-09
549 12 0.001 -0.0290403 -0.00235354 -0.0348162 0.00334503 0.00375287 -0.000153922 0 1.88612e-09
548 12 0.001 -0.0297939 -0.00282324 -0.0343662 -0.012061 0.00134407 -0.00261368 0 2.54061e-09
550 12 0.001 -0.0284937 -0.00166184 -0.0352819 0.00750589 -0.000797982 0.000661472 0 5.98403e-10
876 15 0.001 -0.0114472 -0.00281425 -0.0341624 0.00379811 -0.0254028 0.0052209 0 1.25273e-09
877 15 0.001 -0.0105534 -0.0028483 -0.0346049 -0.0094775 0.0236251 -0.000768354 0 1.05453e-09
878 15 0.001 -0.0097159 -0.0025783 -0.0350728 0.00200623 -0.00860569 -0.00186473 0 1.3063e-10
1538 21 0.001 0.0281266 -0.00246151 -0.0342027 -0.00174243 0.00680893 0.00605306 0 4.00426e-10
1540 21 0.001 0.0295835 -0.0016669 -0.0352676 -0.00823562 0.00239884 0.00725811 0 1.83611e-09
1539 21 0.001 0.028934 -0.00219185 -0.0347213 0.00600597 -0.0079441 -0.0075421 0 1.13827e-09
261 11 0.001 -0.0484825 -0.00140463 -0.0351766 0.0057765 -0.0101902 0.00330429 0 1.08212e-08
257 11 0.001 -0.0512609 -0.00333198 -0.0335362 -0.0143169 -0.000577174 0.00631315 0 1.50874e-08
256 11 0.001 -0.0521416 -0.00311879 -0.0331201 0.000675467 0.00024184 0.000211899 0 5.74327e-11
1204 18 0.001 0.00592556 -0.00306953 -0.0327974 0.00896882 -0.00505964 -0.00436655 0 3.43307e-09
1206 18 0.001 0.007245 -0.00432661 -0.0335534 0.00260873 0.0141492 -0.00323856 0 4.63454e-10
1205 18 0.001 0.0064981 -0.00381532 -0.033134 -0.00657964 -0.00183117 0.00121554 0 3.27399e-09
255 11 0.001 -0.0529132 -0.00262494 -0.0327264 -0.000360336 -0.00850261 -0.0020412 0 2.2038e-09
544 12 0.001 -0.033131 -0.00185295 -0.0329417 0.00363838 -0.0195711 -0.00196834 0 1.01701e-08
546 12 0.001 -0.0315923 -0.00291193 -0.0335652 0.00587395 -0.0105733 -0.00478525 0 1.18412e-08
545 12 0.001 -0.0324378 -0.00251375 -0.0332281 -0.0128113 0.0216902 0.00404492 0 1.80732e-08