ITEM: TIMESTEP
100000
ITEM: NUMBER OF ATOMS
1095
ITEM: BOX BOUNDS ff ff ff
-6.0000000000000005e-02 6.0000000000000005e-02
-6.0000000000000001e-03 6.0000000000000001e-03
-5.5000000000000000e-02 5.5000000000000000e-02
ITEM: ATOMS id type radius x y z fx fy fz c_bendingE c_stretchingE
210 11 0.001 -0.0503915 -0.00169053 -0.0489977 4.17315e-11 -4.99827e-11 -2.36507e-11 0 7.0574e-15
411 12 0.001 -0.0303915 -0.00169053 -0.0489977 4.17333e-11 -4.99829e-11 -2.36503e-11 0 7.0574e-15
632 14 0.001 -0.0103915 -0.00169053 -0.0489977 4.17316e-11 -4.9979e-11 -2.36515e-11 0 7.0574e-15
853 16 0.001 0.00960854 -0.00169053 -0.0489977 4.17404e-11 -4.99843e-11 -2.36512e-11 0 7.0574e-15
1074 18 0.001 0.0296085 -0.00169053 -0.0489977 4.17299e-11 -4.99799e-11 -2.36507e-11 0 7.0574e-15
2 2 0.001 -0.0500192 -1.46528e-05 -0.0499892 2.42929e-11 -1.03688e-11 2.94661e-12 0 8.23422e-15
211 11 0.001 -0.0501135 -0.000872888 -0.0494933 6.86071e-11 -4.9038e-11 -6.84662e-12 0 1.20535e-14
412 12 0.001 -0.0301135 -0.000872888 -0.0494933 6.86006e-11 -4.90372e-11 -6.84623e-12 0 1.20535e-14
4 4 0.001 -0.0300192 -1.46528e-05 -0.0499892 2.43011e-11 -1.03709e-11 2.94683e-12 0 8.23422e-15
6 6 0.001 -0.0100192 -1.46528e-05 -0.0499892 2.43005e-11 -1.037e-11 2.94633e-12 0 8.23422e-15
633 14 0.001 -0.0101135 -0.000872888 -0.0494933 6.85991e-11 -4.90392e-11 -6.84509e-12 0 1.20535e-14
8 8 0.001 0.0099808 -1.46528e-05 -0.0499892 2.42993e-11 -1.03704e-11 2.94664e-12 0 8.23422e-15
854 16 0.001 0.00988645 -0.000872888 -0.0494933 6.85951e-11 -4.9037e-11 -6.84528e-12 0 1.20535e-14
10 10 0.001 0.0299808 -1.46528e-05 -0.0499892 2.43028e-11 -1.03701e-11 2.94617e-12 0 8.23422e-15
1075 18 0.001 0.0298865 -0.000872888 -0.0494933 6.86005e-11 -4.90378e-11 -6.84582e-12 0 1.20535e-14
207 11 0.001 -0.0521561 -0.00353335 -0.0475138 -1.33516e-11 -2.30952e-11 -5.47411e-11 0 2.11774e-15
208 11 0.001 -0.0514375 -0.00305302 -0.0480079 -6.04601e-13 -3.55922e-11 -4.84941e-11 0 1.37011e-15
408 12 0.001 -0.0321561 -0.00353335 -0.0475138 -1.33555e-11 -2.30906e-11 -5.47409e-11 0 2.11774e-15
409 12 0.001 -0.0314375 -0.00305302 -0.0480079 -6.02717e-13 -3.55964e-11 -4.84941e-11 0 1.37011e-15
629 14 0.001 -0.0121561 -0.00353335 -0.0475138 -1.33392e-11 -2.31002e-11 -5.47453e-11 0 2.11774e-15
630 14 0.001 -0.0114375 -0.00305302 -0.0480079 -6.20118e-13 -3.55873e-11 -4.849e-11 0 1.37011e-15
850 16 0.001 0.00784386 -0.00353335 -0.0475138 -1.334e-11 -2.30969e-11 -5.47456e-11 0 2.11774e-15
851 16 0.001 0.00856253 -0.00305302 -0.0480079 -6.19147e-13 -3.55892e-11 -4.84895e-11 0 1.37011e-15
1071 18 0.001 0.0278439 -0.00353335 -0.0475138 -1.33274e-11 -2.30993e-11 -5.47504e-11 0 2.11774e-15
1072 18 0.001 0.0285625 -0.00305302 -0.0480079 -6.34208e-13 -3.5585e-11 -4.84854e-11 0 1.37011e-15
209 11 0.001 -0.0508398 -0.00242889 -0.0485026 1.81406e-11 -4.50762e-11 -3.78262e-11 0 4.6073e-15
410 12 0.001 -0.0308398 -0.00242889 -0.0485026 1.8143e-11 -4.50774e-11 -3.78264e-11 0 4.6073e-15
631 14 0.001 -0.0108398 -0.00242889 -0.0485026 1.81535e-11 -4.50819e-11 -3.78283e-11 0 4.6073e-15
852 16 0.001 0.00916018 -0.00242889 -0.0485026 1.81469e-11 -4.50776e-11 -3.78286e-11 0 4.6073e-15
1073 18 0.001 0.0291602 -0.00242889 -0.0485026 1.81613e-11 -4.50845e-11 -3.783e-11 0 4.6073e-15
204 11 0.001 -0.0546795 -0.00392418 -0.0460332 -1.37775e-11 1.16073e-11 -4.27591e-11 0 6.79848e-14
205 11 0.001 -0.0538164 -0.00397948 -0.0465266 -1.90409e-11 2.53465e-12 -5.16007e-11 0 3.385e-14
206 11 0.001 -0.0529618 -0.00384712 -0.0470201 -1.93894e-11 -9.68124e-12 -5.58073e-11 0 1.19705e-14
405 12 0.001 -0.0346795 -0.00392418 -0.0460332 -1.37764e-11 1.16061e-11 -4.27593e-11 0 6.79848e-14
406 12 0.001 -0.0338164 -0.00397948 -0.0465266 -1.90419e-11 2.53665e-12 -5.15997e-11 0 3.385e-14
407 12 0.001 -0.0329618 -0.00384712 -0.0470201 -1.93879e-11 -9.68077e-12 -5.5808e-11 0 1.19705e-14
626 14 0.001 -0.0146795 -0.00392418 -0.0460332 -1.37448e-11 1.16104e-11 -4.27748e-11 0 6.79848e-14
627 14 0.001 -0.0138164 -0.00397948 -0.0465266 -1.90472e-11 2.53144e-12 -5.15974e-11 0 3.385e-14
628 14 0.001 -0.0129618 -0.00384712 -0.0470201 -1.93996e-11 -9.6756e-12 -5.5803e-11 0 1.19705e-14
847 16 0.001 0.00532047 -0.00392418 -0.0460332 -1.37413e-11 1.16153e-11 -4.2776e-11 0 6.79848e-14
848 16 0.001 0.00618355 -0.00397948 -0.0465266 -1.90532e-11 2.53251e-12 -5.15948e-11 0 3.385e-14
849 16 0.001 0.00703816 -0.00384712 -0.0470201 -1.93956e-11 -9.6806e-12 -5.58042e-11 0 1.19705e-14
1068 18 0.001 0.0253205 -0.00392418 -0.0460332 -1.37446e-11 1.16174e-11 -4.27746e-11 0 6.79848e-14
1069 18 0.001 0.0261836 -0.00397948 -0.0465266 -1.90422e-11 2.52734e-12 -5.16004e-11 0 3.385e-14
1070 18 0.001 0.0270382 -0.00384712 -0.0470201 -1.94094e-11 -9.67773e-12 -5.57977e-11 0 1.19705e-14
202 11 0.001 -0.0562695 -0.00326989 -0.0450462 2.86041e-12 1.68433e-11 -1.76208e-11 0 1.62537e-13
203 11 0.001 -0.0555103 -0.00368385 -0.0455398 -5.5432e-12 1.6422e-11 -3.09185e-11 0 1.12195e-13
403 12 0.001 -0.0362695 -0.00326989 -0.0450462 2.8603e-12 1.68432e-11 -1.76209e-11 0 1.62537e-13
404 12 0.001 -0.0355103 -0.00368385 -0.0455398 -5.54309e-12 1.642e-11 -3.09188e-11 0 1.12195e-13
624 14 0.001 -0.0162695 -0.00326989 -0.0450462 2.8723e-12 1.68473e-11 -1.76249e-11 0 1.62537e-13
625 14 0.001 -0.0155103 -0.00368385 -0.0455398 -5.57536e-12 1.64166e-11 -3.09041e-11 0 1.12195e-13
845 16 0.001 0.00373047 -0.00326989 -0.0450462 2.87435e-12 1.68507e-11 -1.76249e-11 0 1.62537e-13
846 16 0.001 0.0044897 -0.00368385 -0.0455398 -5.57586e-12 1.64098e-11 -3.09053e-11 0 1.12195e-13
1066 18 0.001 0.0237305 -0.00326989 -0.0450462 2.87312e-12 1.68474e-11 -1.76255e-11 0 1.62537e-13
1067 18 0.001 0.0244897 -0.00368385 -0.0455398 -5.57705e-12 1.64133e-11 -3.09038e-11 0 1.12195e-13
201 11 0.001 -0.0569214 -0.00270187 -0.0445525 9.62229e-12 1.3616e-11 -4.51451e-12 0 2.14078e-13
402 12 0.001 -0.0369214 -0.00270187 -0.0445525 9.62129e-12 1.36162e-11 -4.51404e-12 0 2.14078e-13
623 14 0.001 -0.0169214 -0.00270187 -0.0445525 9.61882e-12 1.36132e-11 -4.51465e-12 0 2.14078e-13
844 16 0.001 0.00307859 -0.00270187 -0.0445525 9.61922e-12 1.36148e-11 -4.51361e-12 0 2.14078e-13
1065 18 0.001 0.0230786 -0.00270187 -0.0445525 9.62321e-12 1.36174e-11 -4.51406e-12 0 2.14078e-13
200 11 0.001 -0.0574352 -0.00200663 -0.0440585 1.32897e-11 8.0466e-12 7.65764e-12 0 2.61691e-13
401 12 0.001 -0.0374352 -0.00200663 -0.0440585 1.32921e-11 8.04702e-12 7.65721e-12 0 2.61691e-13
622 14 0.001 -0.0174352 -0.00200663 -0.0440585 1.32921e-11 8.04932e-12 7.65813e-12 0 2.61691e-13
843 16 0.001 0.00256477 -0.00200663 -0.0440585 1.32871e-11 8.04737e-12 7.65857e-12 0 2.61691e-13
1064 18 0.001 0.0225648 -0.00200663 -0.0440585 1.32883e-11 8.04476e-12 7.65752e-12 0 2.61691e-13
198 11 0.001 -0.0579596 -0.000370153 -0.0430699 1.01891e-11 -4.64642e-12 2.84322e-11 0 3.28146e-13
199 11 0.001 -0.0577868 -0.00121697 -0.0435643 1.34072e-11 1.54177e-12 1.86417e-11 0 3.00826e-13
399 12 0.001 -0.0379596 -0.000370153 -0.0430699 1.01913e-11 -4.64564e-12 2.8432e-11 0 3.28146e-13
400 12 0.001 -0.0377868 -0.00121697 -0.0435643 1.3402e-11 1.54179e-12 1.86424e-11 0 3.00826e-13
620 14 0.001 -0.0179596 -0.000370153 -0.0430699 1.02033e-11 -4.64462e-12 2.84333e-11 0 3.28146e-13
621 14 0.001 -0.0177868 -0.00121697 -0.0435643 1.34032e-11 1.53942e-12 1.86407e-11 0 3.00826e-13
841 16 0.001 0.0020404 -0.000370153 -0.0430699 1.02e-11 -4.64525e-12 2.84329e-11 0 3.28146e-13
842 16 0.001 0.0022132 -0.00121697 -0.0435643 1.34063e-11 1.54046e-12 1.86406e-11 0 3.00826e-13
1062 18 0.001 0.0220404 -0.000370153 -0.0430699 1.02135e-11 -4.64348e-12 2.84333e-11 0 3.28146e-13
1063 18 0.001 0.0222132 -0.00121697 -0.0435643 1.33977e-11 1.54e-12 1.86413e-11 0 3.00826e-13
196 11 0.001 -0.0577452 0.00133445 -0.0420805 -3.0609e-12 -1.15366e-11 4.396e-11 0 3.42139e-13
197 11 0.001 -0.0579455 0.000493903 -0.0425753 4.35651e-12 -9.30187e-12 3.70088e-11 0 3.41926e-13
397 12 0.001 -0.0377452 0.00133445 -0.0420805 -3.06477e-12 -1.15343e-11 4.39602e-11 0 3.42139e-13
398 12 0.001 -0.0379455 0.000493903 -0.0425753 4.35882e-12 -9.30285e-12 3.70084e-11 0 3.41926e-13
618 14 0.001 -0.0177452 0.00133445 -0.0420805 -3.04126e-12 -1.15408e-11 4.39601e-11 0 3.42139e-13
619 14 0.001 -0.0179455 0.000493903 -0.0425753 4.33136e-12 -9.30044e-12 3.70075e-11 0 3.41926e-13
839 16 0.001 0.00225479 0.00133445 -0.0420805 -3.06351e-12 -1.15346e-11 4.39595e-11 0 3.42139e-13
840 16 0.001 0.0020545 0.000493903 -0.0425753 4.34618e-12 -9.3028e-12 3.70082e-11 0 3.41926e-13
1060 18 0.001 0.0222548 0.00133445 -0.0420805 -3.04152e-12 -1.1539e-11 4.39609e-11 0 3.42139e-13
1061 18 0.001 0.0220545 0.000493903 -0.0425753 4.32663e-12 -9.30189e-12 3.70069e-11 0 3.41926e-13
195 11 0.001 -0.0573682 0.00211186 -0.0415857 -1.06216e-11 -1.08726e-11 4.86769e-11 0 3.30222e-13
396 12 0.001 -0.0373682 0.00211186 -0.0415857 -1.06159e-11 -1.0877e-11 4.86766e-11 0 3.30222e-13
617 14 0.001 -0.0173682 0.00211186 -0.0415857 -1.06375e-11 -1.08691e-11 4.86739e-11 0 3.30222e-13
838 16 0.001 0.0026318 0.00211186 -0.0415857 -1.06215e-11 -1.08776e-11 4.86739e-11 0 3.30222e-13
1059 18 0.001 0.0226318 0.00211186 -0.0415857 -1.06358e-11 -1.0872e-11 4.86731e-11 0 3.30222e-13
194 11 0.001 -0.0568323 0.00278948 -0.0410907 -1.69562e-11 -7.38673e-12 5.06654e-11 0 3.08637e-13
395 12 0.001 -0.0368323 0.00278948 -0.0410907 -1.69599e-11 -7.38357e-12 5.06655e-11 0 3.08637e-13
616 14 0.001 -0.0168323 0.00278948 -0.0410907 -1.69309e-11 -7.39334e-12 5.06727e-11 0 3.08637e-13
837 16 0.001 0.00316774 0.00278948 -0.0410907 -1.69449e-11 -7.3864e-12 5.06702e-11 0 3.08637e-13
1058 18 0.001 0.0231677 0.00278948 -0.0410907 -1.69339e-11 -7.38924e-12 5.06731e-11 0 3.08637e-13
193 11 0.001 -0.0561627 0.00333534 -0.0405956 -2.09474e-11 -1.8467e-12 4.97615e-11 0 2.8035e-13
192 11 0.001 -0.0553911 0.00372372 -0.0401004 -2.21111e-11 4.60592e-12 4.62921e-11 0 2.48368e-13
394 12 0.001 -0.0361627 0.00333534 -0.0405956 -2.09461e-11 -1.8469e-12 4.97619e-11 0 2.8035e-13
393 12 0.001 -0.0353911 0.00372372 -0.0401004 -2.21115e-11 4.60192e-12 4.62914e-11 0 2.48368e-13
614 14 0.001 -0.0153911 0.00372372 -0.0401004 -2.21051e-11 4.60149e-12 4.62939e-11 0 2.48368e-13
615 14 0.001 -0.0161627 0.00333534 -0.0405956 -2.09681e-11 -1.83935e-12 4.97557e-11 0 2.8035e-13
836 16 0.001 0.0038373 0.00333534 -0.0405956 -2.09526e-11 -1.84329e-12 4.97612e-11 0 2.8035e-13
835 16 0.001 0.00460891 0.00372372 -0.0401004 -2.21126e-11 4.60472e-12 4.62911e-11 0 2.48368e-13
1057 18 0.001 0.0238373 0.00333534 -0.0405956 -2.09611e-11 -1.8404e-12 4.97583e-11 0 2.8035e-13
1056 18 0.001 0.0246089 0.00372372 -0.0401004 -2.21095e-11 4.6e-12 4.62915e-11 0 2.48368e-13
191 11 0.001 -0.0545538 0.00393629 -0.0396052 -2.06517e-11 1.06827e-11 4.08312e-11 0 2.15383e-13
189 11 0.001 -0.0528417 0.00380264 -0.0386147 -1.25962e-11 1.82339e-11 2.68395e-11 0 1.5446e-13
190 11 0.001 -0.0536905 0.00396302 -0.03911 -1.71435e-11 1.54345e-11 3.41678e-11 0 1.83563e-13
392 12 0.001 -0.0345538 0.00393629 -0.0396052 -2.06519e-11 1.06897e-11 4.08315e-11 0 2.15383e-13
391 12 0.001 -0.0336905 0.00396302 -0.03911 -1.7145e-11 1.54229e-11 3.41681e-11 0 1.83563e-13
390 12 0.001 -0.0328417 0.00380264 -0.0386147 -1.25953e-11 1.82444e-11 2.68389e-11 0 1.5446e-13
612 14 0.001 -0.0136905 0.00396302 -0.03911 -1.71598e-11 1.54267e-11 3.41605e-11 0 1.83563e-13
613 14 0.001 -0.0145538 0.00393629 -0.0396052 -2.06467e-11 1.06867e-11 4.08341e-11 0 2.15383e-13
611 14 0.001 -0.0128417 0.00380264 -0.0386147 -1.25801e-11 1.82429e-11 2.68466e-11 0 1.5446e-13
834 16 0.001 0.00544616 0.00393629 -0.0396052 -2.06485e-11 1.06838e-11 4.08327e-11 0 2.15383e-13
832 16 0.001 0.00715831 0.00380264 -0.0386147 -1.25853e-11 1.82418e-11 2.68438e-11 0 1.5446e-13
833 16 0.001 0.00630954 0.00396302 -0.03911 -1.71543e-11 1.54298e-11 3.4163e-11 0 1.83563e-13
1055 18 0.001 0.0254462 0.00393629 -0.0396052 -2.06524e-11 1.06869e-11 4.0831e-11 0 2.15383e-13
1054 18 0.001 0.0263095 0.00396302 -0.03911 -1.7155e-11 1.54283e-11 3.41627e-11 0 1.83563e-13
1053 18 0.001 0.0271583 0.00380264 -0.0386147 -1.25849e-11 1.82407e-11 2.68448e-11 0 1.5446e-13
187 11 0.001 -0.0513457 0.0029593 -0.0376242 -3.63271e-12 1.7877e-11 1.19463e-11 0 1.07663e-13
186 11 0.001 -0.050769 0.00231613 -0.037129 -6.0809e-13 1.54082e-11 4.95433e-12 0 9.03849e-14
387 12 0.001 -0.030769 0.00231613 -0.037129 -6.11381e-13 1.54127e-11 4.95e-12 0 9.03849e-14
388 12 0.001 -0.0313457 0.0029593 -0.0376242 -3.62395e-12 1.78754e-11 1.19498e-11 0 1.07663e-13
608 14 0.001 -0.010769 0.00231613 -0.037129 -5.9962e-13 1.54129e-11 4.95316e-12 0 9.03849e-14
609 14 0.001 -0.0113457 0.0029593 -0.0376242 -3.63361e-12 1.78763e-11 1.19458e-11 0 1.07663e-13
830 16 0.001 0.00865434 0.0029593 -0.0376242 -3.63574e-12 1.78758e-11 1.19457e-11 0 1.07663e-13
829 16 0.001 0.00923097 0.00231613 -0.037129 -5.9702e-13 1.54152e-11 4.95323e-12 0 9.03849e-14
1050 18 0.001 0.029231 0.00231613 -0.037129 -5.77603e-13 1.54232e-11 4.95543e-12 0 9.03849e-14
1051 18 0.001 0.0286543 0.0029593 -0.0376242 -3.65056e-12 1.78697e-11 1.19424e-11 0 1.07663e-13
188 11 0.001 -0.0520476 0.00346272 -0.0381195 -7.8185e-12 1.89827e-11 1.9339e-11 0 1.29022e-13
389 12 0.001 -0.0320476 0.00346272 -0.0381195 -7.81884e-12 1.89802e-11 1.93395e-11 0 1.29022e-13
610 14 0.001 -0.0120476 0.00346272 -0.0381195 -7.81955e-12 1.89793e-11 1.9339e-11 0 1.29022e-13
831 16 0.001 0.00795241 0.00346272 -0.0381195 -7.81767e-12 1.8977e-11 1.93406e-11 0 1.29022e-13
1052 18 0.001 0.0279524 0.00346272 -0.0381195 -7.80865e-12 1.8981e-11 1.93434e-11 0 1.29022e-13
183 11 0.001 -0.0500264 -0.00012406 -0.0356435 4.38924e-13 6.91416e-12 -1.08602e-11 0 5.95663e-14
384 12 0.001 -0.0300264 -0.00012406 -0.0356435 4.15785e-13 6.90474e-12 -1.08526e-11 0 5.95663e-14
605 14 0.001 -0.0100264 -0.00012406 -0.0356435 4.0082e-13 6.90447e-12 -1.08522e-11 0 5.95663e-14
826 16 0.001 0.00997365 -0.00012406 -0.0356435 3.97987e-13 6.91477e-12 -1.0861e-11 0 5.95663e-14
1047 18 0.001 0.0299736 -0.00012406 -0.0356435 4.16634e-13 6.91527e-12 -1.08612e-11 0 5.95663e-14
184 11 0.001 -0.0500934 0.00073718 -0.0361387 1.1965e-12 9.28361e-12 -6.71951e-12 0 6.6799e-14
385 12 0.001 -0.0300934 0.00073718 -0.0361387 1.2312e-12 9.28248e-12 -6.71627e-12 0 6.6799e-14
606 14 0.001 -0.0100934 0.00073718 -0.0361387 1.24423e-12 9.28484e-12 -6.71638e-12 0 6.6799e-14
827 16 0.001 0.00990658 0.00073718 -0.0361387 1.2478e-12 9.28496e-12 -6.71523e-12 0 6.6799e-14
1048 18 0.001 0.0299066 0.00073718 -0.0361387 1.23733e-12 9.28507e-12 -6.7152e-12 0 6.6799e-14
185 11 0.001 -0.0503449 0.00156359 -0.0366338 1.04262e-12 1.23378e-11 -1.3784e-12 0 7.69085e-14
386 12 0.001 -0.0303449 0.00156359 -0.0366338 1.0191e-12 1.23353e-11 -1.38042e-12 0 7.69085e-14
607 14 0.001 -0.0103449 0.00156359 -0.0366338 1.00645e-12 1.23332e-11 -1.38193e-12 0 7.69085e-14
828 16 0.001 0.00965506 0.00156359 -0.0366338 1.00522e-12 1.23333e-11 -1.38246e-12 0 7.69085e-14
1049 18 0.001 0.0296551 0.00156359 -0.0366338 9.94664e-13 1.23281e-11 -1.38332e-12 0 7.69085e-14
180 11 0.001 -0.0509196 -0.00251338 -0.0341583 -3.46112e-12 5.53842e-12 -1.53835e-11 0 5.06083e-14
181 11 0.001 -0.0504494 -0.00178865 -0.0346534 -2.4084e-12 5.13596e-12 -1.51349e-11 0 5.1871e-14
381 12 0.001 -0.0309196 -0.00251338 -0.0341583 -3.45553e-12 5.53401e-12 -1.53843e-11 0 5.06083e-14
382 12 0.001 -0.0304494 -0.00178865 -0.0346534 -2.41988e-12 5.13041e-12 -1.51262e-11 0 5.1871e-14
602 14 0.001 -0.0109196 -0.00251338 -0.0341583 -3.43883e-12 5.53277e-12 -1.53891e-11 0 5.06083e-14
603 14 0.001 -0.0104494 -0.00178865 -0.0346534 -2.4339e-12 5.13355e-12 -1.51245e-11 0 5.1871e-14
823 16 0.001 0.00908042 -0.00251338 -0.0341583 -3.43941e-12 5.53296e-12 -1.53885e-11 0 5.06083e-14
824 16 0.001 0.00955059 -0.00178865 -0.0346534 -2.42602e-12 5.14032e-12 -1.51329e-11 0 5.1871e-14
1044 18 0.001 0.0290804 -0.00251338 -0.0341583 -3.44793e-12 5.53556e-12 -1.53873e-11 0 5.06083e-14
1045 18 0.001 0.0295506 -0.00178865 -0.0346534 -2.41217e-12 5.13831e-12 -1.5135e-11 0 5.1871e-14
182 11 0.001 -0.0501469 -0.000979467 -0.0351484 -1.02999e-12 5.4938e-12 -1.36348e-11 0 5.47332e-14
383 12 0.001 -0.0301469 -0.000979467 -0.0351484 -1.01503e-12 5.51273e-12 -1.36508e-11 0 5.47332e-14
604 14 0.001 -0.0101469 -0.000979467 -0.0351484 -1.00078e-12 5.51079e-12 -1.36514e-11 0 5.47332e-14
825 16 0.001 0.00985309 -0.000979467 -0.0351484 -1.00645e-12 5.49126e-12 -1.36356e-11 0 5.47332e-14
1046 18 0.001 0.0298531 -0.000979467 -0.0351484 -1.0219e-12 5.49286e-12 -1.36346e-11 0 5.47332e-14
177 11 0.001 -0.0530811 -0.00386803 -0.0326731 -2.42787e-12 7.81439e-12 -1.10804e-11 0 5.33973e-14
178 11 0.001 -0.0522672 -0.00357822 -0.0331682 -3.38952e-12 7.26259e-12 -1.31601e-11 0 5.16407e-14
179 11 0.001 -0.0515352 -0.00311945 -0.0336632 -3.76651e-12 6.40163e-12 -1.46791e-11 0 5.06255e-14
378 12 0.001 -0.0330811 -0.00386803 -0.0326731 -2.42835e-12 7.81357e-12 -1.10799e-11 0 5.33973e-14
379 12 0.001 -0.0322672 -0.00357822 -0.0331682 -3.38966e-12 7.26432e-12 -1.31605e-11 0 5.16407e-14
380 12 0.001 -0.0315352 -0.00311945 -0.0336632 -3.7674e-12 6.40167e-12 -1.46789e-11 0 5.06255e-14
599 14 0.001 -0.0130811 -0.00386803 -0.0326731 -2.40926e-12 7.81083e-12 -1.10899e-11 0 5.33973e-14
600 14 0.001 -0.0122672 -0.00357822 -0.0331682 -3.3927e-12 7.2609e-12 -1.31576e-11 0 5.16407e-14
601 14 0.001 -0.0115352 -0.00311945 -0.0336632 -3.7823e-12 6.40337e-12 -1.46733e-11 0 5.06255e-14
820 16 0.001 0.00691894 -0.00386803 -0.0326731 -2.41223e-12 7.81115e-12 -1.10877e-11 0 5.33973e-14
821 16 0.001 0.00773278 -0.00357822 -0.0331682 -3.39656e-12 7.26461e-12 -1.31564e-11 0 5.16407e-14
822 16 0.001 0.0084648 -0.00311945 -0.0336632 -3.78174e-12 6.40374e-12 -1.46744e-11 0 5.06255e-14
1041 18 0.001 0.0269189 -0.00386803 -0.0326731 -2.41984e-12 7.81192e-12 -1.10844e-11 0 5.33973e-14
1042 18 0.001 0.0277328 -0.00357822 -0.0331682 -3.39544e-12 7.25889e-12 -1.31558e-11 0 5.16407e-14
1043 18 0.001 0.0284648 -0.00311945 -0.0336632 -3.7789e-12 6.40456e-12 -1.46753e-11 0 5.06255e-14
174 11 0.001 -0.0556209 -0.00363022 -0.0311881 1.34552e-12 6.05084e-12 -3.59471e-12 0 6.08132e-14
175 11 0.001 -0.0547984 -0.00389466 -0.0316831 2.42577e-13 7.19087e-12 -6.09927e-12 0 5.81961e-14
176 11 0.001 -0.0539383 -0.0039752 -0.0321781 -1.07952e-12 7.80322e-12 -8.67837e-12 0 5.56567e-14
375 12 0.001 -0.0356209 -0.00363022 -0.0311881 1.34335e-12 6.04392e-12 -3.59504e-12 0 6.08132e-14
376 12 0.001 -0.0347984 -0.00389466 -0.0316831 2.43907e-13 7.1957e-12 -6.09914e-12 0 5.81961e-14
377 12 0.001 -0.0339383 -0.0039752 -0.0321781 -1.07966e-12 7.80211e-12 -8.67842e-12 0 5.56567e-14
596 14 0.001 -0.0156209 -0.00363022 -0.0311881 1.33854e-12 6.04692e-12 -3.59211e-12 0 6.08132e-14
597 14 0.001 -0.0147984 -0.00389466 -0.0316831 2.44171e-13 7.19531e-12 -6.09882e-12 0 5.81961e-14
598 14 0.001 -0.0139383 -0.0039752 -0.0321781 -1.0899e-12 7.80684e-12 -8.67392e-12 0 5.56567e-14
817 16 0.001 0.00437912 -0.00363022 -0.0311881 1.33999e-12 6.04176e-12 -3.59347e-12 0 6.08132e-14
818 16 0.001 0.00520156 -0.00389466 -0.0316831 2.47671e-13 7.20012e-12 -6.10005e-12 0 5.81961e-14
819 16 0.001 0.0060617 -0.0039752 -0.0321781 -1.08543e-12 7.80228e-12 -8.67609e-12 0 5.56567e-14
1038 18 0.001 0.0243791 -0.00363022 -0.0311881 1.34176e-12 6.04174e-12 -3.59444e-12 0 6.08132e-14
1039 18 0.001 0.0252016 -0.00389466 -0.0316831 2.45931e-13 7.19907e-12 -6.09975e-12 0 5.81961e-14
1040 18 0.001 0.0260617 -0.0039752 -0.0321781 -1.0807e-12 7.80471e-12 -8.67871e-12 0 5.56567e-14
173 11 0.001 -0.0563668 -0.00319436 -0.030693 1.95028e-12 4.58786e-12 -1.27714e-12 0 6.33326e-14
374 12 0.001 -0.0363668 -0.00319436 -0.030693 1.9496e-12 4.58942e-12 -1.27706e-12 0 6.33326e-14
595 14 0.001 -0.0163668 -0.00319436 -0.030693 1.95723e-12 4.5895e-12 -1.2796e-12 0 6.33326e-14
816 16 0.001 0.00363322 -0.00319436 -0.030693 1.95129e-12 4.58809e-12 -1.2777e-12 0 6.33326e-14
1037 18 0.001 0.0236332 -0.00319436 -0.030693 1.95217e-12 4.59149e-12 -1.2771e-12 0 6.33326e-14
171 11 0.001 -0.0574933 -0.00189784 -0.029703 1.59929e-12 1.70985e-12 2.23431e-12 0 6.75525e-14
172 11 0.001 -0.0570009 -0.00260767 -0.030198 2.04003e-12 3.06289e-12 6.86639e-13 0 6.5613e-14
372 12 0.001 -0.0374933 -0.00189784 -0.029703 1.60688e-12 1.71371e-12 2.23437e-12 0 6.75525e-14
373 12 0.001 -0.0370009 -0.00260767 -0.030198 2.03838e-12 3.06341e-12 6.86802e-13 0 6.5613e-14
593 14 0.001 -0.0174933 -0.00189784 -0.029703 1.61887e-12 1.71517e-12 2.23275e-12 0 6.75525e-14
594 14 0.001 -0.0170009 -0.00260767 -0.030198 2.0329e-12 3.05772e-12 6.86256e-13 0 6.5613e-14
814 16 0.001 0.00250665 -0.00189784 -0.029703 1.62108e-12 1.71374e-12 2.23099e-12 0 6.75525e-14
815 16 0.001 0.00299908 -0.00260767 -0.030198 2.03076e-12 3.06238e-12 6.88364e-13 0 6.5613e-14
1035 18 0.001 0.0225067 -0.00189784 -0.029703 1.61756e-12 1.71441e-12 2.23273e-12 0 6.75525e-14
1036 18 0.001 0.0229991 -0.00260767 -0.030198 2.03478e-12 3.05938e-12 6.86312e-13 0 6.5613e-14
169 11 0.001 -0.0579679 -0.000247117 -0.0287129 -5.20612e-14 2.01501e-13 3.95696e-12 0 7.02063e-14
170 11 0.001 -0.0578208 -0.00109841 -0.0292079 8.85418e-13 7.35676e-13 3.31694e-12 0 6.90906e-14
370 12 0.001 -0.0379679 -0.000247117 -0.0287129 -5.54353e-14 2.03841e-13 3.95793e-12 0 7.02063e-14
371 12 0.001 -0.0378208 -0.00109841 -0.0292079 8.81247e-13 7.32263e-13 3.31643e-12 0 6.90906e-14
591 14 0.001 -0.0179679 -0.000247117 -0.0287129 -2.08672e-14 2.04007e-13 3.9568e-12 0 7.02063e-14
592 14 0.001 -0.0178208 -0.00109841 -0.0292079 8.53722e-13 7.32467e-13 3.31942e-12 0 6.90906e-14
812 16 0.001 0.00203213 -0.000247117 -0.0287129 -4.03316e-14 2.02975e-13 3.95678e-12 0 7.02063e-14
813 16 0.001 0.00217918 -0.00109841 -0.0292079 8.64353e-13 7.33468e-13 3.31947e-12 0 6.90906e-14
1033 18 0.001 0.0220321 -0.000247117 -0.0287129 -2.05039e-14 2.04577e-13 3.95723e-12 0 7.02063e-14
1034 18 0.001 0.0221792 -0.00109841 -0.0292079 8.54845e-13 7.3272e-13 3.31946e-12 0 6.90906e-14
168 11 0.001 -0.0579276 0.000615842 -0.0282178 -8.64136e-13 9.9838e-14 4.17713e-12 0 7.09135e-14
369 12 0.001 -0.0379276 0.000615842 -0.0282178 -8.61331e-13 9.9202e-14 4.17661e-12 0 7.09135e-14
590 14 0.001 -0.0179276 0.000615842 -0.0282178 -8.90261e-13 1.00863e-13 4.17575e-12 0 7.09135e-14
811 16 0.001 0.00207244 0.000615842 -0.0282178 -8.75041e-13 1.00667e-13 4.17628e-12 0 7.09135e-14
1032 18 0.001 0.0220724 0.000615842 -0.0282178 -8.93194e-13 1.00712e-13 4.17533e-12 0 7.09135e-14
167 11 0.001 -0.0577018 0.00144972 -0.0277228 -1.50656e-12 3.22893e-13 4.03332e-12 0 7.12533e-14
368 12 0.001 -0.0377018 0.00144972 -0.0277228 -1.50369e-12 3.20761e-13 4.03296e-12 0 7.12533e-14
589 14 0.001 -0.0177018 0.00144972 -0.0277228 -1.47909e-12 3.18336e-13 4.03631e-12 0 7.12533e-14
810 16 0.001 0.00229822 0.00144972 -0.0277228 -1.48978e-12 3.20547e-13 4.03544e-12 0 7.12533e-14
1031 18 0.001 0.0222982 0.00144972 -0.0277228 -1.47516e-12 3.16849e-13 4.03631e-12 0 7.12533e-14
166 11 0.001 -0.0573012 0.00221513 -0.0272278 -1.78248e-12 7.23613e-13 3.62136e-12 0 7.12855e-14
165 11 0.001 -0.0567448 0.00287595 -0.0267327 -1.80824e-12 1.15427e-12 2.99193e-12 0 7.10801e-14
366 12 0.001 -0.0367448 0.00287595 -0.0267327 -1.80531e-12 1.15148e-12 2.99189e-12 0 7.10801e-14
367 12 0.001 -0.0373012 0.00221513 -0.0272278 -1.78649e-12 7.27176e-13 3.62178e-12 0 7.12855e-14
587 14 0.001 -0.0167448 0.00287595 -0.0267327 -1.80713e-12 1.15445e-12 2.99105e-12 0 7.10801e-14
588 14 0.001 -0.0173012 0.00221513 -0.0272278 -1.80787e-12 7.26489e-13 3.61567e-12 0 7.12855e-14
809 16 0.001 0.00269879 0.00221513 -0.0272278 -1.80112e-12 7.23195e-13 3.61566e-12 0 7.12855e-14
808 16 0.001 0.00325524 0.00287595 -0.0267327 -1.80763e-12 1.15615e-12 2.99182e-12 0 7.10801e-14
1029 18 0.001 0.0232552 0.00287595 -0.0267327 -1.8071e-12 1.15297e-12 2.99067e-12 0 7.10801e-14
1030 18 0.001 0.0226988 0.00221513 -0.0272278 -1.80943e-12 7.27057e-13 3.61582e-12 0 7.12855e-14
164 11 0.001 -0.0560587 0.00340096 -0.0262376 -1.57292e-12 1.46945e-12 2.23681e-12 0 7.07095e-14
162 11 0.001 -0.0544319 0.00395198 -0.0252475 -7.07804e-13 1.51955e-12 7.12319e-13 0 6.97382e-14
163 11 0.001 -0.0552754 0.00376537 -0.0257426 -1.1159e-12 1.58893e-12 1.47953e-12 0 7.02421e-14
365 12 0.001 -0.0360587 0.00340096 -0.0262376 -1.57281e-12 1.46674e-12 2.23658e-12 0 7.07095e-14
364 12 0.001 -0.0352754 0.00376537 -0.0257426 -1.11652e-12 1.59109e-12 1.48017e-12 0 7.02421e-14
363 12 0.001 -0.0344319 0.00395198 -0.0252475 -7.08726e-13 1.52202e-12 7.11872e-13 0 6.97382e-14
585 14 0.001 -0.0152754 0.00376537 -0.0257426 -1.13535e-12 1.59882e-12 1.47322e-12 0 7.02421e-14
586 14 0.001 -0.0160587 0.00340096 -0.0262376 -1.5446e-12 1.46246e-12 2.24856e-12 0 7.07095e-14
584 14 0.001 -0.0144319 0.00395198 -0.0252475 -7.01946e-13 1.52066e-12 7.13944e-13 0 6.97382e-14
807 16 0.001 0.0039413 0.00340096 -0.0262376 -1.54419e-12 1.45928e-12 2.24836e-12 0 7.07095e-14
805 16 0.001 0.00556807 0.00395198 -0.0252475 -7.00762e-13 1.52246e-12 7.14132e-13 0 6.97382e-14
806 16 0.001 0.00472457 0.00376537 -0.0257426 -1.13774e-12 1.60342e-12 1.47291e-12 0 7.02421e-14
1028 18 0.001 0.0239413 0.00340096 -0.0262376 -1.55067e-12 1.4642e-12 2.2462e-12 0 7.07095e-14
1027 18 0.001 0.0247246 0.00376537 -0.0257426 -1.13057e-12 1.59817e-12 1.47546e-12 0 7.02421e-14
1026 18 0.001 0.0255681 0.00395198 -0.0252475 -6.95902e-13 1.52378e-12 7.17044e-13 0 6.97382e-14
160 11 0.001 -0.0527245 0.00376536 -0.0242574 -8.55134e-14 8.86289e-13 -5.07772e-13 0 6.88042e-14
161 11 0.001 -0.053568 0.00395198 -0.0247525 -3.15632e-13 1.26351e-12 4.79738e-14 0 6.92466e-14
159 11 0.001 -0.0519413 0.00340094 -0.0237624 -2.4212e-14 5.10571e-13 -9.36436e-13 0 6.84354e-14
362 12 0.001 -0.033568 0.00395198 -0.0247525 -3.14789e-13 1.26231e-12 4.82831e-14 0 6.92466e-14
360 12 0.001 -0.0319413 0.00340094 -0.0237624 -2.83298e-14 5.05301e-13 -9.36063e-13 0 6.84354e-14
361 12 0.001 -0.0327245 0.00376536 -0.0242574 -8.59872e-14 8.86513e-13 -5.08233e-13 0 6.88042e-14
583 14 0.001 -0.013568 0.00395198 -0.0247525 -3.24866e-13 1.25548e-12 4.34361e-14 0 6.92466e-14
582 14 0.001 -0.0127245 0.00376536 -0.0242574 -9.1213e-14 8.94519e-13 -5.11538e-13 0 6.88042e-14
581 14 0.001 -0.0119413 0.00340094 -0.0237624 -1.18313e-14 5.00839e-13 -9.27631e-13 0 6.84354e-14
803 16 0.001 0.00727547 0.00376536 -0.0242574 -9.25944e-14 8.91005e-13 -5.1087e-13 0 6.88042e-14
804 16 0.001 0.00643197 0.00395198 -0.0247525 -3.25252e-13 1.25051e-12 4.33887e-14 0 6.92466e-14
802 16 0.001 0.00805873 0.00340094 -0.0237624 -7.63305e-15 5.11739e-13 -9.28836e-13 0 6.84354e-14
1025 18 0.001 0.026432 0.00395198 -0.0247525 -3.36138e-13 1.25029e-12 3.83028e-14 0 6.92466e-14
1023 18 0.001 0.0280587 0.00340094 -0.0237624 -2.77627e-14 5.00389e-13 -9.34979e-13 0 6.84354e-14
1024 18 0.001 0.0272755 0.00376536 -0.0242574 -7.34663e-14 8.98613e-13 -5.03871e-13 0 6.88042e-14
156 11 0.001 -0.0502982 0.00144967 -0.0222772 -4.63574e-13 -1.88719e-13 -1.34012e-12 0 6.78564e-14
357 12 0.001 -0.0302982 0.00144967 -0.0222772 -4.28156e-13 -1.88087e-13 -1.33318e-12 0 6.78564e-14
578 14 0.001 -0.0102982 0.00144967 -0.0222772 -4.11815e-13 -1.83675e-13 -1.33297e-12 0 6.78564e-14
799 16 0.001 0.00970179 0.00144967 -0.0222772 -4.21103e-13 -1.85635e-13 -1.33328e-12 0 6.78564e-14
1020 18 0.001 0.0297018 0.00144967 -0.0222772 -4.30637e-13 -1.8752e-13 -1.33393e-12 0 6.78564e-14
158 11 0.001 -0.0512552 0.00287592 -0.0232673 -8.36122e-14 1.51691e-13 -1.19366e-12 0 6.81533e-14
157 11 0.001 -0.0506988 0.00221509 -0.0227723 -1.97537e-13 -7.18588e-14 -1.31734e-12 0 6.79617e-14
358 12 0.001 -0.0306988 0.00221509 -0.0227723 -2.33088e-13 -7.49213e-14 -1.32567e-12 0 6.79617e-14
359 12 0.001 -0.0312552 0.00287592 -0.0232673 -6.56479e-14 1.59792e-13 -1.19086e-12 0 6.81533e-14
579 14 0.001 -0.0106988 0.00221509 -0.0227723 -2.37318e-13 -7.64669e-14 -1.3257e-12 0 6.79617e-14
580 14 0.001 -0.0112552 0.00287592 -0.0232673 -7.26213e-14 1.59551e-13 -1.19357e-12 0 6.81533e-14
801 16 0.001 0.00874479 0.00287592 -0.0232673 -7.3275e-14 1.54295e-13 -1.19276e-12 0 6.81533e-14
800 16 0.001 0.00930123 0.00221509 -0.0227723 -2.36556e-13 -7.75317e-14 -1.32531e-12 0 6.79617e-14
1021 18 0.001 0.0293012 0.00221509 -0.0227723 -2.30756e-13 -7.50968e-14 -1.32491e-12 0 6.79617e-14
1022 18 0.001 0.0287448 0.00287592 -0.0232673 -6.8552e-14 1.5866e-13 -1.19171e-12 0 6.81533e-14
153 11 0.001 -0.0501792 -0.00109845 -0.0207921 -6.97114e-13 1.04809e-14 -8.54117e-13 0 6.79427e-14
154 11 0.001 -0.0500322 -0.000247164 -0.0212871 -7.2105e-13 -1.06896e-13 -1.06765e-12 0 6.78613e-14
354 12 0.001 -0.0301792 -0.00109845 -0.0207921 -7.18374e-13 1.36409e-14 -8.52582e-13 0 6.79427e-14
355 12 0.001 -0.0300322 -0.000247164 -0.0212871 -7.05631e-13 -1.06618e-13 -1.06919e-12 0 6.78613e-14
575 14 0.001 -0.0101792 -0.00109845 -0.0207921 -7.23067e-13 1.35586e-14 -8.51711e-13 0 6.79427e-14
576 14 0.001 -0.0100322 -0.000247164 -0.0212871 -6.93486e-13 -1.05223e-13 -1.06911e-12 0 6.78613e-14
796 16 0.001 0.00982076 -0.00109845 -0.0207921 -7.24493e-13 1.52629e-14 -8.5256e-13 0 6.79427e-14
797 16 0.001 0.00996783 -0.000247164 -0.0212871 -6.9307e-13 -1.07862e-13 -1.06807e-12 0 6.78613e-14
1017 18 0.001 0.0298208 -0.00109845 -0.0207921 -7.15238e-13 1.2117e-14 -8.52779e-13 0 6.79427e-14
1018 18 0.001 0.0299678 -0.000247164 -0.0212871 -6.96373e-13 -1.0466e-13 -1.06962e-12 0 6.78613e-14
155 11 0.001 -0.0500725 0.000615792 -0.0217822 -5.58958e-13 -1.91533e-13 -1.23033e-12 0 6.78274e-14
356 12 0.001 -0.0300725 0.000615792 -0.0217822 -5.7753e-13 -1.92755e-13 -1.23205e-12 0 6.78274e-14
577 14 0.001 -0.0100725 0.000615792 -0.0217822 -6.00087e-13 -1.96395e-13 -1.23207e-12 0 6.78274e-14
798 16 0.001 0.00992754 0.000615792 -0.0217822 -5.92168e-13 -1.92217e-13 -1.23299e-12 0 6.78274e-14
1019 18 0.001 0.0299275 0.000615792 -0.0217822 -5.85162e-13 -1.93458e-13 -1.23123e-12 0 6.78274e-14
150 11 0.001 -0.0516333 -0.00319432 -0.0193069 -4.08447e-13 2.26238e-13 -1.78541e-13 0 6.83211e-14
351 12 0.001 -0.0316333 -0.00319432 -0.0193069 -4.01941e-13 2.30615e-13 -1.82532e-13 0 6.83211e-14
572 14 0.001 -0.0116333 -0.00319432 -0.0193069 -4.21323e-13 2.29416e-13 -1.74235e-13 0 6.83211e-14
793 16 0.001 0.00836666 -0.00319432 -0.0193069 -4.22386e-13 2.26083e-13 -1.72584e-13 0 6.83211e-14