ITEM: TIMESTEP
0
ITEM: NUMBER OF ATOMS
1620
ITEM: BOX BOUNDS ff ff ff
-6.0000000000000005e-02 6.0000000000000005e-02
-6.0000000000000001e-03 6.0000000000000001e-03
-5.5000000000000000e-02 5.5000000000000000e-02
ITEM: ATOMS id type radius x y z fx fy fz c_bendingE c_stretchingE
299 11 0.001 -0.0506077 -0.00181018 -0.0493127 -0.0276883 0.0209507 -5.15568e-15 0 1.69495e-06
589 12 0.001 -0.0306077 -0.00181018 -0.0493127 -0.0276816 0.0209155 1.3341e-05 0 1.69495e-06
919 15 0.001 -0.0106077 -0.00181018 -0.0493127 -0.0276816 0.0209155 1.3341e-05 0 1.69495e-06
1249 18 0.001 0.00939233 -0.00181018 -0.0493127 -0.0276816 0.0209155 1.3341e-05 0 1.69495e-06
1579 21 0.001 0.0293923 -0.00181018 -0.0493127 -0.0276816 0.0209155 1.3341e-05 0 1.69495e-06
2 2 0.001 -0.05 -3.23381e-17 -0.05 -0.111161 0.00333607 -0.00120077 -0.00042419 8.47474e-07
300 11 0.001 -0.050156 -0.000954729 -0.0496564 0.0590733 -0.00389038 0.00537754 -0.00042419 1.69495e-06
591 13 0.001 -0.0490476 -3.23381e-17 -0.05 0.00162587 -0.094663 0.0340727 -0.00042419 2.89115e-32
592 13 0.001 -0.0480952 -3.23381e-17 -0.05 0.000184795 0 0 0 2.89115e-32
593 13 0.001 -0.0471429 -3.23381e-17 -0.05 0 0 0 0 7.67814e-33
594 13 0.001 -0.0461905 -3.23381e-17 -0.05 -7.2861e-08 0 0 0 2.89115e-32
595 13 0.001 -0.0452381 -3.23381e-17 -0.05 7.2861e-08 0 0 0 2.89115e-32
596 13 0.001 -0.0442857 -3.23381e-17 -0.05 -2.4287e-08 0 0 0 7.67814e-33
597 13 0.001 -0.0433333 -3.23381e-17 -0.05 2.4287e-08 0 0 0 7.67814e-33
598 13 0.001 -0.042381 -3.23381e-17 -0.05 -7.2302e-08 0 0 0 2.89115e-32
599 13 0.001 -0.0414286 -3.23381e-17 -0.05 9.54708e-08 0 0 0 2.89115e-32
600 13 0.001 -0.0404762 -3.23381e-17 -0.05 -9.54708e-08 0 0 0 2.89115e-32
601 13 0.001 -0.0395238 -3.23381e-17 -0.05 7.2302e-08 0 0 0 2.89115e-32
602 13 0.001 -0.0385714 -3.23381e-17 -0.05 -2.4287e-08 0 0 0 7.67814e-33
603 13 0.001 -0.037619 -3.23381e-17 -0.05 2.4287e-08 0 0 0 7.67814e-33
604 13 0.001 -0.0366667 -3.23381e-17 -0.05 -7.2861e-08 0 0 0 2.89115e-32
605 13 0.001 -0.0357143 -3.23381e-17 -0.05 7.2861e-08 0 0 0 2.89115e-32
606 13 0.001 -0.0347619 -3.23381e-17 -0.05 0 0 0 0 7.67814e-33
607 13 0.001 -0.0338095 -3.23381e-17 -0.05 -7.2861e-08 0 0 0 2.89115e-32
608 13 0.001 -0.0328571 -3.23381e-17 -0.05 1.05858e-07 0 0 0 2.89115e-32
609 13 0.001 -0.0319048 -3.23381e-17 -0.05 0.202257 0 0 0 6.16147e-33
590 12 0.001 -0.030156 -0.000954729 -0.0496564 0.0613954 -0.0066741 0.0063795 -0.00042419 1.69495e-06
610 13 0.001 -0.0309524 -3.23381e-17 -0.05 -0.812283 0.00281885 -0.0010153 0 6.16147e-33
4 4 0.001 -0.03 -3.23381e-17 -0.05 1.10368 0.00333607 -0.00120077 -0.00042419 8.47474e-07
921 16 0.001 -0.0290476 -3.23381e-17 -0.05 -0.807958 -0.094663 0.0340727 -0.00042419 6.16147e-33
922 16 0.001 -0.0280952 -3.23381e-17 -0.05 0.202627 0 0 0 6.16147e-33
923 16 0.001 -0.0271429 -3.23381e-17 -0.05 0 0 0 0 4.6448e-33
924 16 0.001 -0.0261905 -3.23381e-17 -0.05 1.00669e-07 0 0 0 6.16147e-33
925 16 0.001 -0.0252381 -3.23381e-17 -0.05 -1.00669e-07 0 0 0 6.16147e-33
926 16 0.001 -0.0242857 -3.23381e-17 -0.05 0 0 0 0 4.6448e-33
927 16 0.001 -0.0233333 -3.23381e-17 -0.05 6.71127e-08 0 0 0 6.16147e-33
928 16 0.001 -0.022381 -3.23381e-17 -0.05 -9.26936e-09 0 0 0 7.67814e-33
929 16 0.001 -0.0214286 -3.23381e-17 -0.05 -7.2861e-08 0 0 0 2.89115e-32
930 16 0.001 -0.0204762 -3.23381e-17 -0.05 7.2861e-08 0 0 0 2.89115e-32
931 16 0.001 -0.0195238 -3.23381e-17 -0.05 9.26936e-09 0 0 0 7.67814e-33
932 16 0.001 -0.0185714 -3.23381e-17 -0.05 -6.71127e-08 0 0 0 6.16147e-33
933 16 0.001 -0.017619 -3.23381e-17 -0.05 3.35564e-08 0 0 0 4.6448e-33
934 16 0.001 -0.0166667 -3.23381e-17 -0.05 -3.35564e-08 0 0 0 4.6448e-33
935 16 0.001 -0.0157143 -3.23381e-17 -0.05 6.71127e-08 0 0 0 6.16147e-33
936 16 0.001 -0.0147619 -3.23381e-17 -0.05 0 0 0 0 7.67814e-33
937 16 0.001 -0.0138095 -3.23381e-17 -0.05 -6.71127e-08 0 0 0 6.16147e-33
938 16 0.001 -0.0128571 -3.23381e-17 -0.05 3.35564e-08 0 0 0 4.6448e-33
939 16 0.001 -0.0119048 -3.23381e-17 -0.05 0.202258 0 0 0 4.6448e-33
940 16 0.001 -0.0109524 -3.23381e-17 -0.05 -0.812283 0.00281885 -0.0010153 0 6.16147e-33
6 6 0.001 -0.01 -3.23381e-17 -0.05 0.0914662 0.00333607 -0.00120077 -0.00042419 8.47474e-07
920 15 0.001 -0.010156 -0.000954729 -0.0496564 0.0613954 -0.0066741 0.0063795 -0.00042419 1.69495e-06
1251 19 0.001 -0.00904762 -3.23381e-17 -0.05 0.406695 -0.094663 0.0340727 -0.00042419 9.47919e-35
1252 19 0.001 -0.00809524 -3.23381e-17 -0.05 0.000184735 0 0 0 2.3698e-33
1253 19 0.001 -0.00714286 -3.23381e-17 -0.05 6.98331e-15 0 0 0 2.3698e-33
1254 19 0.001 -0.00619048 -3.23381e-17 -0.05 -3.5083e-15 0 0 0 4.73959e-34
1255 19 0.001 -0.0052381 -3.23381e-17 -0.05 3.4972e-15 0 0 0 4.73959e-34
1256 19 0.001 -0.00428571 -3.23381e-17 -0.05 -3.4972e-15 0 0 0 4.73959e-34
1257 19 0.001 -0.00333333 -3.23381e-17 -0.05 3.4972e-15 0 0 0 4.73959e-34
1258 19 0.001 -0.00238095 -3.23381e-17 -0.05 1.90877e-09 0 0 0 9.47919e-35
1259 19 0.001 -0.00142857 -3.23381e-17 -0.05 -6.99441e-15 0 0 0 2.3698e-33
1260 19 0.001 -0.00047619 -3.23381e-17 -0.05 -3.49061e-08 0 0 0 4.6448e-33
1261 19 0.001 0.00047619 -3.23381e-17 -0.05 8.89319e-08 0 0 0 6.16147e-33
1262 19 0.001 0.00142857 -3.23381e-17 -0.05 -2.97388e-08 0 0 0 3.88647e-33
1263 19 0.001 0.00238095 -3.23381e-17 -0.05 -2.29373e-08 0 0 0 2.3698e-33
1264 19 0.001 0.00333333 -3.23381e-17 -0.05 -3.68148e-08 0 0 0 4.6448e-33
1265 19 0.001 0.00428571 -3.23381e-17 -0.05 6.71127e-08 0 0 0 6.16147e-33
1266 19 0.001 0.0052381 -3.23381e-17 -0.05 0 0 0 0 7.67814e-33
1267 19 0.001 0.00619048 -3.23381e-17 -0.05 -6.71127e-08 0 0 0 6.16147e-33
1268 19 0.001 0.00714286 -3.23381e-17 -0.05 3.35564e-08 0 0 0 4.6448e-33
1269 19 0.001 0.00809524 -3.23381e-17 -0.05 0.202258 0 0 0 4.6448e-33
8 8 0.001 0.01 -3.23381e-17 -0.05 0.185082 -0.106267 0.0382495 0 8.47474e-07
1250 18 0.001 0.00984403 -0.000954729 -0.0496564 -0.03222 0.00686556 0.00150608 0 1.69495e-06
1270 19 0.001 0.00904762 -3.23381e-17 -0.05 -0.812283 0.00281885 -0.0010153 0 6.16147e-33
1581 22 0.001 0.0109524 -3.23381e-17 -0.05 0.406695 0.00140056 -0.000504113 0 9.47919e-35
1582 22 0.001 0.0119048 -3.23381e-17 -0.05 0.000184735 0 0 0 2.3698e-33
1583 22 0.001 0.0128571 -3.23381e-17 -0.05 6.98331e-15 0 0 0 2.3698e-33
1584 22 0.001 0.0138095 -3.23381e-17 -0.05 1.90877e-09 0 0 0 9.47919e-35
1585 22 0.001 0.0147619 -3.23381e-17 -0.05 -6.99441e-15 0 0 0 2.3698e-33
1586 22 0.001 0.0157143 -3.23381e-17 -0.05 -3.54651e-08 0 0 0 4.6448e-33
1587 22 0.001 0.0166667 -3.23381e-17 -0.05 6.71127e-08 0 0 0 6.16147e-33
1588 22 0.001 0.017619 -3.23381e-17 -0.05 -9.26936e-09 0 0 0 7.67814e-33
1589 22 0.001 0.0185714 -3.23381e-17 -0.05 -7.2861e-08 0 0 0 2.89115e-32
1590 22 0.001 0.0195238 -3.23381e-17 -0.05 7.2861e-08 0 0 0 2.89115e-32
1591 22 0.001 0.0204762 -3.23381e-17 -0.05 9.26936e-09 0 0 0 7.67814e-33
1592 22 0.001 0.0214286 -3.23381e-17 -0.05 -6.71127e-08 0 0 0 6.16147e-33
1593 22 0.001 0.022381 -3.23381e-17 -0.05 3.35564e-08 0 0 0 4.6448e-33
1594 22 0.001 0.0233333 -3.23381e-17 -0.05 -3.35564e-08 0 0 0 4.6448e-33
1595 22 0.001 0.0242857 -3.23381e-17 -0.05 6.71127e-08 0 0 0 6.16147e-33
1596 22 0.001 0.0252381 -3.23381e-17 -0.05 0 0 0 0 7.67814e-33
1597 22 0.001 0.0261905 -3.23381e-17 -0.05 -6.71127e-08 0 0 0 6.16147e-33
1598 22 0.001 0.0271429 -3.23381e-17 -0.05 3.35564e-08 0 0 0 4.6448e-33
1599 22 0.001 0.0280952 -3.23381e-17 -0.05 -0.000184752 0 0 0 4.6448e-33
10 10 0.001 0.03 -3.23381e-17 -0.05 -0.110791 -0.188791 0.067953 -0.00042419 8.47474e-07
1580 21 0.001 0.029844 -0.000954729 -0.0496564 0.0630213 -0.00527354 0.00587539 -0.00042419 1.69495e-06
1600 22 0.001 0.0290476 -3.23381e-17 -0.05 -0.00232876 0.0988824 -0.0355922 -0.00042419 6.16147e-33
294 11 0.001 -0.0549242 -0.0023016 -0.0475945 0.0222706 0.0266382 -1.91548e-15 0 1.69495e-06
295 11 0.001 -0.0540917 -0.00279431 -0.0479381 0.0126353 0.0323407 -5.10362e-16 0 1.69495e-06
296 11 0.001 -0.0531457 -0.00299646 -0.0482818 0.00168615 0.0346804 3.97452e-15 0 1.69495e-06
297 11 0.001 -0.0521845 -0.00288704 -0.0486254 -0.00943831 0.0334139 -5.78874e-14 0 1.69495e-06
298 11 0.001 -0.0513081 -0.00247741 -0.0489691 -0.0195814 0.0286731 5.86031e-14 0 1.69495e-06
584 12 0.001 -0.0349242 -0.0023016 -0.0475945 0.0222706 0.0266382 -1.39036e-15 0 1.69495e-06
585 12 0.001 -0.0340917 -0.00279431 -0.0479381 0.0126353 0.0323407 6.28764e-15 0 1.69495e-06
586 12 0.001 -0.0331457 -0.00299646 -0.0482818 0.00168615 0.0346804 -2.4683e-15 0 1.69495e-06
587 12 0.001 -0.0321845 -0.00288704 -0.0486254 -0.00943831 0.0334139 -5.97487e-14 0 1.69495e-06
588 12 0.001 -0.0313081 -0.00247741 -0.0489691 -0.0195814 0.0286731 5.52279e-14 0 1.69495e-06
914 15 0.001 -0.0149242 -0.0023016 -0.0475945 0.0222706 0.0266382 3.97185e-16 0 1.69495e-06
915 15 0.001 -0.0140917 -0.00279431 -0.0479381 0.0126353 0.0323407 1.07341e-15 0 1.69495e-06
916 15 0.001 -0.0131457 -0.00299646 -0.0482818 0.00168615 0.0346804 -2.96312e-15 0 1.69495e-06
917 15 0.001 -0.0121845 -0.00288704 -0.0486254 -0.00943831 0.0334139 -5.36474e-14 0 1.69495e-06
918 15 0.001 -0.0113081 -0.00247741 -0.0489691 -0.0195814 0.0286731 5.59855e-14 0 1.69495e-06
1244 18 0.001 0.00507578 -0.0023016 -0.0475945 0.0222706 0.0266382 2.88034e-16 0 1.69495e-06
1245 18 0.001 0.00590829 -0.00279431 -0.0479381 0.0126353 0.0323407 2.66905e-16 0 1.69495e-06
1246 18 0.001 0.00685431 -0.00299646 -0.0482818 0.00168615 0.0346804 -1.0881e-15 0 1.69495e-06
1247 18 0.001 0.00781549 -0.00288704 -0.0486254 -0.00943831 0.0334139 -5.46497e-14 0 1.69495e-06
1248 18 0.001 0.00869187 -0.00247741 -0.0489691 -0.0195814 0.0286731 5.59762e-14 0 1.69495e-06
1574 21 0.001 0.0250758 -0.0023016 -0.0475945 0.0222706 0.0266382 -1.49299e-15 0 1.69495e-06
1575 21 0.001 0.0259083 -0.00279431 -0.0479381 0.0126353 0.0323407 2.46873e-15 0 1.69495e-06
1576 21 0.001 0.0268543 -0.00299646 -0.0482818 0.00168615 0.0346804 -2.42794e-15 0 1.69495e-06
1577 21 0.001 0.0278155 -0.00288704 -0.0486254 -0.00943831 0.0334139 -5.2633e-14 0 1.69495e-06
1578 21 0.001 0.0286919 -0.00247741 -0.0489691 -0.0195814 0.0286731 5.22433e-14 0 1.69495e-06
293 11 0.001 -0.0555567 -0.00156957 -0.0472509 0.0295901 0.0181658 -5.43749e-16 0 1.69495e-06
583 12 0.001 -0.0355567 -0.00156957 -0.0472509 0.0295901 0.0181658 -6.30834e-16 0 1.69495e-06
913 15 0.001 -0.0155567 -0.00156957 -0.0472509 0.0295901 0.0181658 -2.37391e-16 0 1.69495e-06
1243 18 0.001 0.00444335 -0.00156957 -0.0472509 0.0295901 0.0181658 -2.94546e-16 0 1.69495e-06
1573 21 0.001 0.0244433 -0.00156957 -0.0472509 0.0295901 0.0181658 -6.30834e-16 0 1.69495e-06
292 11 0.001 -0.0559232 -0.000674327 -0.0469072 0.0338329 0.00780452 7.05406e-16 0 1.69495e-06
582 12 0.001 -0.0359232 -0.000674327 -0.0469072 0.0338329 0.00780452 9.10861e-16 0 1.69495e-06
912 15 0.001 -0.0159232 -0.000674327 -0.0469072 0.0338329 0.00780452 1.34242e-16 0 1.69495e-06
1242 18 0.001 0.00407677 -0.000674327 -0.0469072 0.0338329 0.00780452 2.35783e-16 0 1.69495e-06
1572 21 0.001 0.0240768 -0.000674327 -0.0469072 0.0338329 0.00780452 8.00945e-16 0 1.69495e-06
290 11 0.001 -0.055738 0.00122612 -0.0462199 0.031689 -0.0141909 -4.74925e-15 0 1.69495e-06
291 11 0.001 -0.0559859 0.00029103 -0.0465636 0.0345576 -0.00336831 9.44406e-16 0 1.69495e-06
580 12 0.001 -0.035738 0.00122612 -0.0462199 0.031689 -0.0141909 3.29679e-16 0 1.69495e-06
581 12 0.001 -0.0359859 0.00029103 -0.0465636 0.0345576 -0.00336831 -1.20119e-15 0 1.69495e-06
910 15 0.001 -0.015738 0.00122612 -0.0462199 0.031689 -0.0141909 -2.5422e-16 0 1.69495e-06
911 15 0.001 -0.0159859 0.00029103 -0.0465636 0.0345576 -0.00336831 -1.6656e-16 0 1.69495e-06
1240 18 0.001 0.004262 0.00122612 -0.0462199 0.031689 -0.0141909 -1.53204e-16 0 1.69495e-06
1241 18 0.001 0.00401415 0.00029103 -0.0465636 0.0345576 -0.00336831 -3.57957e-16 0 1.69495e-06
1570 21 0.001 0.024262 0.00122612 -0.0462199 0.031689 -0.0141909 -2.27585e-16 0 1.69495e-06
1571 21 0.001 0.0240141 0.00029103 -0.0465636 0.0345576 -0.00336831 -1.73072e-16 0 1.69495e-06
288 11 0.001 -0.0544436 0.00262986 -0.0455326 0.0167074 -0.0304374 -5.96648e-14 0 1.69495e-06
289 11 0.001 -0.0552054 0.00203373 -0.0458763 0.0255253 -0.0235379 6.38968e-14 0 1.69495e-06
286 11 0.001 -0.0525643 0.00296819 -0.0448454 -0.00504253 -0.0343533 7.88458e-15 0 1.69495e-06
287 11 0.001 -0.0535316 0.00295253 -0.045189 0.00615231 -0.034172 -4.12618e-15 0 1.69495e-06
285 11 0.001 -0.0516424 0.00267522 -0.0445017 -0.0157131 -0.0309625 -4.70142e-15 0 1.69495e-06
579 12 0.001 -0.0352054 0.00203373 -0.0458763 0.0255253 -0.0235379 5.56376e-14 0 1.69495e-06
577 12 0.001 -0.0335316 0.00295253 -0.045189 0.00615231 -0.034172 2.69837e-15 0 1.69495e-06
578 12 0.001 -0.0344436 0.00262986 -0.0455326 0.0167074 -0.0304374 -5.47082e-14 0 1.69495e-06
575 12 0.001 -0.0316424 0.00267522 -0.0445017 -0.0157131 -0.0309625 3.53765e-15 0 1.69495e-06
576 12 0.001 -0.0325643 0.00296819 -0.0448454 -0.00504253 -0.0343533 -4.90189e-15 0 1.69495e-06
909 15 0.001 -0.0152054 0.00203373 -0.0458763 0.0255253 -0.0235379 5.69054e-14 0 1.69495e-06
907 15 0.001 -0.0135316 0.00295253 -0.045189 0.00615231 -0.034172 -7.27389e-16 0 1.69495e-06
908 15 0.001 -0.0144436 0.00262986 -0.0455326 0.0167074 -0.0304374 -5.63688e-14 0 1.69495e-06
906 15 0.001 -0.0125643 0.00296819 -0.0448454 -0.00504253 -0.0343533 -1.65433e-16 0 1.69495e-06
905 15 0.001 -0.0116424 0.00267522 -0.0445017 -0.0157131 -0.0309625 1.07156e-15 0 1.69495e-06
1238 18 0.001 0.00555644 0.00262986 -0.0455326 0.0167074 -0.0304374 -5.63688e-14 0 1.69495e-06
1239 18 0.001 0.00479456 0.00203373 -0.0458763 0.0255253 -0.0235379 5.69688e-14 0 1.69495e-06
1236 18 0.001 0.00743569 0.00296819 -0.0448454 -0.00504253 -0.0343533 -1.65433e-16 0 1.69495e-06
1237 18 0.001 0.00646843 0.00295253 -0.045189 0.00615231 -0.034172 -7.27389e-16 0 1.69495e-06
1235 18 0.001 0.00835764 0.00267522 -0.0445017 -0.0157131 -0.0309625 1.07156e-15 0 1.69495e-06
1569 21 0.001 0.0247946 0.00203373 -0.0458763 0.0255253 -0.0235379 5.79825e-14 0 1.69495e-06
1567 21 0.001 0.0264684 0.00295253 -0.045189 0.00615231 -0.034172 2.27557e-15 0 1.69495e-06
1568 21 0.001 0.0255564 0.00262986 -0.0455326 0.0167074 -0.0304374 -6.07257e-14 0 1.69495e-06
1565 21 0.001 0.0283576 0.00267522 -0.0445017 -0.0157131 -0.0309625 6.50351e-16 0 1.69495e-06
1566 21 0.001 0.0274357 0.00296819 -0.0448454 -0.00504253 -0.0343533 2.06962e-15 0 1.69495e-06
281 11 0.001 -0.0500565 -0.000579314 -0.0431271 -0.0340679 0.00670486 2.13007e-15 0 1.69495e-06
571 12 0.001 -0.0300565 -0.000579314 -0.0431271 -0.0340679 0.00670486 4.78476e-15 0 1.69495e-06
901 15 0.001 -0.0100565 -0.000579314 -0.0431271 -0.0340679 0.00670486 3.83217e-15 0 1.69495e-06
1231 18 0.001 0.00994353 -0.000579314 -0.0431271 -0.0340679 0.00670486 3.83217e-15 0 1.69495e-06
1561 21 0.001 0.0299435 -0.000579314 -0.0431271 -0.0340679 0.00670486 4.78476e-15 0 1.69495e-06
282 11 0.001 -0.0500251 0.000387564 -0.0434708 -0.0344304 -0.00448559 6.77292e-16 0 1.69495e-06
283 11 0.001 -0.0503031 0.00131414 -0.0438144 -0.0312128 -0.0152096 -1.6611e-15 0 1.69495e-06
572 12 0.001 -0.0300251 0.000387564 -0.0434708 -0.0344304 -0.00448559 -8.09656e-16 0 1.69495e-06
573 12 0.001 -0.0303031 0.00131414 -0.0438144 -0.0312128 -0.0152096 1.31446e-15 0 1.69495e-06
902 15 0.001 -0.0100251 0.000387564 -0.0434708 -0.0344304 -0.00448559 -1.25364e-15 0 1.69495e-06
903 15 0.001 -0.0103031 0.00131414 -0.0438144 -0.0312128 -0.0152096 2.81507e-16 0 1.69495e-06
1232 18 0.001 0.00997486 0.000387564 -0.0434708 -0.0344304 -0.00448559 -1.25364e-15 0 1.69495e-06
1233 18 0.001 0.00969686 0.00131414 -0.0438144 -0.0312128 -0.0152096 2.81507e-16 0 1.69495e-06
1562 21 0.001 0.0299749 0.000387564 -0.0434708 -0.0344304 -0.00448559 -8.09656e-16 0 1.69495e-06
1563 21 0.001 0.0296969 0.00131414 -0.0438144 -0.0312128 -0.0152096 1.36672e-15 0 1.69495e-06
284 11 0.001 -0.0508616 0.00210407 -0.0441581 -0.0247497 -0.0243521 8.48039e-16 0 1.69495e-06
574 12 0.001 -0.0308616 0.00210407 -0.0441581 -0.0247497 -0.0243521 -3.04692e-15 0 1.69495e-06
904 15 0.001 -0.0108616 0.00210407 -0.0441581 -0.0247497 -0.0243521 -4.16274e-16 0 1.69495e-06
1234 18 0.001 0.00913843 0.00210407 -0.0441581 -0.0247497 -0.0243521 -4.16274e-16 0 1.69495e-06
1564 21 0.001 0.0291384 0.00210407 -0.0441581 -0.0247497 -0.0243521 -3.41411e-15 0 1.69495e-06
277 11 0.001 -0.0527574 -0.00299017 -0.0417526 -0.00280828 0.0346076 -7.1292e-15 0 1.69495e-06
278 11 0.001 -0.0518184 -0.00275749 -0.0420962 -0.0136759 0.0319146 2.66243e-15 0 1.69495e-06
279 11 0.001 -0.0510023 -0.00223808 -0.0424399 -0.0231215 0.0259031 -4.44944e-14 0 1.69495e-06
567 12 0.001 -0.0327574 -0.00299017 -0.0417526 -0.00280828 0.0346076 5.58921e-15 0 1.69495e-06
568 12 0.001 -0.0318184 -0.00275749 -0.0420962 -0.0136759 0.0319146 -5.45168e-15 0 1.69495e-06
569 12 0.001 -0.0310023 -0.00223808 -0.0424399 -0.0231215 0.0259031 -4.10244e-14 0 1.69495e-06
897 15 0.001 -0.0127574 -0.00299017 -0.0417526 -0.00280828 0.0346076 -7.67448e-16 0 1.69495e-06
898 15 0.001 -0.0118184 -0.00275749 -0.0420962 -0.0136759 0.0319146 -1.16257e-15 0 1.69495e-06
899 15 0.001 -0.0110023 -0.00223808 -0.0424399 -0.0231215 0.0259031 -4.27639e-14 0 1.69495e-06
1227 18 0.001 0.00724264 -0.00299017 -0.0417526 -0.00280828 0.0346076 -8.52925e-16 0 1.69495e-06
1228 18 0.001 0.00818163 -0.00275749 -0.0420962 -0.0136759 0.0319146 -1.14515e-15 0 1.69495e-06
1229 18 0.001 0.00899775 -0.00223808 -0.0424399 -0.0231215 0.0259031 -4.27639e-14 0 1.69495e-06
1557 21 0.001 0.0272426 -0.00299017 -0.0417526 -0.00280828 0.0346076 2.57841e-15 0 1.69495e-06
1558 21 0.001 0.0281816 -0.00275749 -0.0420962 -0.0136759 0.0319146 -5.79029e-15 0 1.69495e-06
1559 21 0.001 0.0289977 -0.00223808 -0.0424399 -0.0231215 0.0259031 -4.09721e-14 0 1.69495e-06
280 11 0.001 -0.0503939 -0.00148595 -0.0427835 -0.0301629 0.0171981 4.36601e-14 0 1.69495e-06
570 12 0.001 -0.0303939 -0.00148595 -0.0427835 -0.0301629 0.0171981 3.98992e-14 0 1.69495e-06
900 15 0.001 -0.0103939 -0.00148595 -0.0427835 -0.0301629 0.0171981 4.15626e-14 0 1.69495e-06
1230 18 0.001 0.00960614 -0.00148595 -0.0427835 -0.0301629 0.0171981 4.15626e-14 0 1.69495e-06
1560 21 0.001 0.0296061 -0.00148595 -0.0427835 -0.0301629 0.0171981 3.98992e-14 0 1.69495e-06
274 11 0.001 -0.0553325 -0.0018867 -0.0407216 0.0269954 0.0218363 -4.01115e-15 0 1.69495e-06
275 11 0.001 -0.0546108 -0.0025309 -0.0410653 0.0186426 0.0292921 5.70339e-15 0 1.69495e-06
276 11 0.001 -0.0537216 -0.00291193 -0.0414089 0.00835136 0.0337021 2.09805e-15 0 1.69495e-06
564 12 0.001 -0.0353325 -0.0018867 -0.0407216 0.0269954 0.0218363 1.31773e-15 0 1.69495e-06
565 12 0.001 -0.0346108 -0.0025309 -0.0410653 0.0186426 0.0292921 3.42894e-16 0 1.69495e-06
566 12 0.001 -0.0337216 -0.00291193 -0.0414089 0.00835136 0.0337021 -4.65683e-15 0 1.69495e-06
894 15 0.001 -0.0153325 -0.0018867 -0.0407216 0.0269954 0.0218363 6.77976e-16 0 1.69495e-06
895 15 0.001 -0.0146108 -0.0025309 -0.0410653 0.0186426 0.0292921 3.20097e-16 0 1.69495e-06
896 15 0.001 -0.0137216 -0.00291193 -0.0414089 0.00835136 0.0337021 1.16154e-16 0 1.69495e-06
1224 18 0.001 0.00466754 -0.0018867 -0.0407216 0.0269954 0.0218363 -4.75292e-16 0 1.69495e-06
1225 18 0.001 0.00538924 -0.0025309 -0.0410653 0.0186426 0.0292921 1.56882e-15 0 1.69495e-06
1226 18 0.001 0.00627843 -0.00291193 -0.0414089 0.00835136 0.0337021 -6.31089e-16 0 1.69495e-06
1554 21 0.001 0.0246675 -0.0018867 -0.0407216 0.0269954 0.0218363 -1.49987e-15 0 1.69495e-06
1555 21 0.001 0.0253892 -0.0025309 -0.0410653 0.0186426 0.0292921 -3.77987e-16 0 1.69495e-06
1556 21 0.001 0.0262784 -0.00291193 -0.0414089 0.00835136 0.0337021 2.15767e-15 0 1.69495e-06
272 11 0.001 -0.0559984 -9.71457e-05 -0.0400344 0.0347032 0.00112434 1.88862e-16 0 1.69495e-06
273 11 0.001 -0.0558116 -0.00104632 -0.040378 0.0325411 0.0121099 -3.2987e-16 0 1.69495e-06
562 12 0.001 -0.0359984 -9.71457e-05 -0.0400344 0.0347032 0.00112434 5.05452e-17 0 1.69495e-06
563 12 0.001 -0.0358116 -0.00104632 -0.040378 0.0325411 0.0121099 -7.91076e-17 0 1.69495e-06
892 15 0.001 -0.0159984 -9.71457e-05 -0.0400344 0.0347032 0.00112434 8.25046e-16 0 1.69495e-06
893 15 0.001 -0.0158116 -0.00104632 -0.040378 0.0325411 0.0121099 -1.33329e-15 0 1.69495e-06
1222 18 0.001 0.00400157 -9.71457e-05 -0.0400344 0.0347032 0.00112434 1.85983e-16 0 1.69495e-06
1223 18 0.001 0.00418838 -0.00104632 -0.040378 0.0325411 0.0121099 -2.7197e-16 0 1.69495e-06
1552 21 0.001 0.0240016 -9.71457e-05 -0.0400344 0.0347032 0.00112434 7.46924e-16 0 1.69495e-06
1553 21 0.001 0.0241884 -0.00104632 -0.040378 0.0325411 0.0121099 -4.02245e-16 0 1.69495e-06
271 11 0.001 -0.0558735 0.000862133 -0.0396907 0.0332567 -0.00997815 5.71096e-14 0 1.69495e-06
561 12 0.001 -0.0358735 0.000862133 -0.0396907 0.0332567 -0.00997815 5.39861e-14 0 1.69495e-06
891 15 0.001 -0.0158735 0.000862133 -0.0396907 0.0332567 -0.00997815 5.47312e-14 0 1.69495e-06
1221 18 0.001 0.00412655 0.000862133 -0.0396907 0.0332567 -0.00997815 5.54025e-14 0 1.69495e-06
1551 21 0.001 0.0241265 0.000862133 -0.0396907 0.0332567 -0.00997815 5.55833e-14 0 1.69495e-06
269 11 0.001 -0.0547712 0.00242133 -0.0390034 0.0204996 -0.0280239 6.45287e-15 0 1.69495e-06
270 11 0.001 -0.0554497 0.00173177 -0.0393471 0.0283522 -0.0200431 -6.01602e-14 0 1.69495e-06
268 11 0.001 -0.0539086 0.00285911 -0.0386598 0.0105154 -0.0330908 -3.07509e-15 0 1.69495e-06
559 12 0.001 -0.0347712 0.00242133 -0.0390034 0.0204996 -0.0280239 -2.56292e-15 0 1.69495e-06
560 12 0.001 -0.0354497 0.00173177 -0.0393471 0.0283522 -0.0200431 -5.30856e-14 0 1.69495e-06
558 12 0.001 -0.0339086 0.00285911 -0.0386598 0.0105154 -0.0330908 7.73362e-15 0 1.69495e-06
890 15 0.001 -0.0154497 0.00173177 -0.0393471 0.0283522 -0.0200431 -5.52924e-14 0 1.69495e-06
888 15 0.001 -0.0139086 0.00285911 -0.0386598 0.0105154 -0.0330908 -9.90891e-16 0 1.69495e-06
889 15 0.001 -0.0147712 0.00242133 -0.0390034 0.0204996 -0.0280239 1.02872e-15 0 1.69495e-06
1219 18 0.001 0.00522879 0.00242133 -0.0390034 0.0204996 -0.0280239 -4.30964e-17 0 1.69495e-06
1220 18 0.001 0.00455031 0.00173177 -0.0393471 0.0283522 -0.0200431 -5.54724e-14 0 1.69495e-06
1218 18 0.001 0.00609145 0.00285911 -0.0386598 0.0105154 -0.0330908 7.67464e-16 0 1.69495e-06
1549 21 0.001 0.0252288 0.00242133 -0.0390034 0.0204996 -0.0280239 1.73756e-15 0 1.69495e-06
1550 21 0.001 0.0245503 0.00173177 -0.0393471 0.0283522 -0.0200431 -5.69718e-14 0 1.69495e-06
1548 21 0.001 0.0260914 0.00285911 -0.0386598 0.0105154 -0.0330908 -7.15435e-16 0 1.69495e-06
263 11 0.001 -0.0501001 0.000768633 -0.0369416 -0.0335624 -0.008896 8.3705e-16 0 1.69495e-06
553 12 0.001 -0.0301001 0.000768633 -0.0369416 -0.0335624 -0.008896 -6.30501e-16 0 1.69495e-06
883 15 0.001 -0.0101001 0.000768633 -0.0369416 -0.0335624 -0.008896 -8.23732e-17 0 1.69495e-06
1213 18 0.001 0.00989986 0.000768633 -0.0369416 -0.0335624 -0.008896 -8.23732e-17 0 1.69495e-06
1543 21 0.001 0.0298999 0.000768633 -0.0369416 -0.0335624 -0.008896 -6.47918e-16 0 1.69495e-06
267 11 0.001 -0.0529514 0.00299961 -0.0383162 -0.000562246 -0.0347168 2.02778e-16 0 1.69495e-06
265 11 0.001 -0.0511513 0.0023627 -0.0376289 -0.0213963 -0.0273454 -4.90434e-16 0 1.69495e-06
266 11 0.001 -0.0519993 0.00282819 -0.0379725 -0.0115814 -0.0327329 1.31166e-15 0 1.69495e-06
264 11 0.001 -0.0504955 0.00165153 -0.0372852 -0.0289864 -0.0191145 -2.40691e-15 0 1.69495e-06
556 12 0.001 -0.0319993 0.00282819 -0.0379725 -0.0115814 -0.0327329 7.23265e-15 0 1.69495e-06
557 12 0.001 -0.0329514 0.00299961 -0.0383162 -0.000562246 -0.0347168 -1.21627e-14 0 1.69495e-06
554 12 0.001 -0.0304955 0.00165153 -0.0372852 -0.0289864 -0.0191145 -1.46389e-15 0 1.69495e-06
555 12 0.001 -0.0311513 0.0023627 -0.0376289 -0.0213963 -0.0273454 6.06822e-16 0 1.69495e-06
887 15 0.001 -0.0129514 0.00299961 -0.0383162 -0.000562246 -0.0347168 5.70223e-16 0 1.69495e-06
885 15 0.001 -0.0111513 0.0023627 -0.0376289 -0.0213963 -0.0273454 5.08979e-17 0 1.69495e-06
886 15 0.001 -0.0119993 0.00282819 -0.0379725 -0.0115814 -0.0327329 -4.95494e-16 0 1.69495e-06
884 15 0.001 -0.0104955 0.00165153 -0.0372852 -0.0289864 -0.0191145 7.29636e-17 0 1.69495e-06
1217 18 0.001 0.00704858 0.00299961 -0.0383162 -0.000562246 -0.0347168 -2.532e-16 0 1.69495e-06
1215 18 0.001 0.00884869 0.0023627 -0.0376289 -0.0213963 -0.0273454 6.8315e-17 0 1.69495e-06
1216 18 0.001 0.00800066 0.00282819 -0.0379725 -0.0115814 -0.0327329 -5.69811e-16 0 1.69495e-06
1214 18 0.001 0.00950448 0.00165153 -0.0372852 -0.0289864 -0.0191145 7.29636e-17 0 1.69495e-06
1546 21 0.001 0.0280007 0.00282819 -0.0379725 -0.0115814 -0.0327329 -1.80459e-15 0 1.69495e-06
1547 21 0.001 0.0270486 0.00299961 -0.0383162 -0.000562246 -0.0347168 1.71161e-16 0 1.69495e-06
1544 21 0.001 0.0295045 0.00165153 -0.0372852 -0.0289864 -0.0191145 -1.32971e-15 0 1.69495e-06
1545 21 0.001 0.0288487 0.0023627 -0.0376289 -0.0213963 -0.0273454 3.27894e-15 0 1.69495e-06
259 11 0.001 -0.051472 -0.00258173 -0.035567 -0.0176843 0.0298804 2.14096e-15 0 1.69495e-06
260 11 0.001 -0.0507299 -0.00196124 -0.0359107 -0.0262741 0.022699 2.29239e-15 0 1.69495e-06
549 12 0.001 -0.031472 -0.00258173 -0.035567 -0.0176843 0.0298804 -7.26508e-15 0 1.69495e-06
550 12 0.001 -0.0307299 -0.00196124 -0.0359107 -0.0262741 0.022699 3.08143e-15 0 1.69495e-06
879 15 0.001 -0.011472 -0.00258173 -0.035567 -0.0176843 0.0298804 -2.12109e-16 0 1.69495e-06
880 15 0.001 -0.0107299 -0.00196124 -0.0359107 -0.0262741 0.022699 -1.82257e-16 0 1.69495e-06
1209 18 0.001 0.00852796 -0.00258173 -0.035567 -0.0176843 0.0298804 -2.81777e-16 0 1.69495e-06
1210 18 0.001 0.00927014 -0.00196124 -0.0359107 -0.0262741 0.022699 -1.82257e-16 0 1.69495e-06
1539 21 0.001 0.028528 -0.00258173 -0.035567 -0.0176843 0.0298804 1.77647e-15 0 1.69495e-06
1540 21 0.001 0.0292701 -0.00196124 -0.0359107 -0.0262741 0.022699 1.0124e-15 0 1.69495e-06
261 11 0.001 -0.0502237 -0.00113682 -0.0362543 -0.0321319 0.0131573 -5.90926e-14 0 1.69495e-06
262 11 0.001 -0.0500063 -0.000194189 -0.0365979 -0.0346486 0.00224751 5.69036e-14 0 1.69495e-06
551 12 0.001 -0.0302237 -0.00113682 -0.0362543 -0.0321319 0.0131573 -5.63508e-14 0 1.69495e-06
552 12 0.001 -0.0300063 -0.000194189 -0.0365979 -0.0346486 0.00224751 5.60816e-14 0 1.69495e-06
881 15 0.001 -0.0102237 -0.00113682 -0.0362543 -0.0321319 0.0131573 -5.5491e-14 0 1.69495e-06
882 15 0.001 -0.0100063 -0.000194189 -0.0365979 -0.0346486 0.00224751 5.58599e-14 0 1.69495e-06
1211 18 0.001 0.00977626 -0.00113682 -0.0362543 -0.0321319 0.0131573 -5.5491e-14 0 1.69495e-06
1212 18 0.001 0.00999371 -0.000194189 -0.0365979 -0.0346486 0.00224751 5.58599e-14 0 1.69495e-06
1541 21 0.001 0.0297763 -0.00113682 -0.0362543 -0.0321319 0.0131573 -5.66385e-14 0 1.69495e-06
1542 21 0.001 0.0299937 -0.000194189 -0.0365979 -0.0346486 0.00224751 5.61338e-14 0 1.69495e-06
255 11 0.001 -0.0550692 -0.00217222 -0.0341924 0.0239482 0.0251408 -1.53727e-15 0 1.69495e-06
256 11 0.001 -0.0542703 -0.00271778 -0.0345361 0.0147022 0.031455 4.4345e-15 0 1.69495e-06
257 11 0.001 -0.0533393 -0.00298075 -0.0348797 0.00392747 0.0344985 -2.68956e-15 0 1.69495e-06
258 11 0.001 -0.0523731 -0.00293377 -0.0352234 -0.00725564 0.0339548 -1.71443e-15 0 1.69495e-06
545 12 0.001 -0.0350692 -0.00217222 -0.0341924 0.0239482 0.0251408 3.78446e-15 0 1.69495e-06
546 12 0.001 -0.0342703 -0.00271778 -0.0345361 0.0147022 0.031455 -7.56469e-15 0 1.69495e-06
547 12 0.001 -0.0333393 -0.00298075 -0.0348797 0.00392747 0.0344985 3.68978e-15 0 1.69495e-06
548 12 0.001 -0.0323731 -0.00293377 -0.0352234 -0.00725564 0.0339548 5.10481e-15 0 1.69495e-06
875 15 0.001 -0.0150692 -0.00217222 -0.0341924 0.0239482 0.0251408 -7.45924e-16 0 1.69495e-06
876 15 0.001 -0.0142703 -0.00271778 -0.0345361 0.0147022 0.031455 1.59275e-15 0 1.69495e-06
877 15 0.001 -0.0133393 -0.00298075 -0.0348797 0.00392747 0.0344985 -1.24756e-15 0 1.69495e-06
878 15 0.001 -0.0123731 -0.00293377 -0.0352234 -0.00725564 0.0339548 4.19315e-16 0 1.69495e-06
1205 18 0.001 0.00493083 -0.00217222 -0.0341924 0.0239482 0.0251408 -9.8812e-16 0 1.69495e-06
1206 18 0.001 0.0057297 -0.00271778 -0.0345361 0.0147022 0.031455 6.6457e-16 0 1.69495e-06
1207 18 0.001 0.00666066 -0.00298075 -0.0348797 0.00392747 0.0344985 5.39626e-16 0 1.69495e-06
1208 18 0.001 0.0076269 -0.00293377 -0.0352234 -0.00725564 0.0339548 -4.25747e-16 0 1.69495e-06
1535 21 0.001 0.0249308 -0.00217222 -0.0341924 0.0239482 0.0251408 -1.95265e-15 0 1.69495e-06
1536 21 0.001 0.0257297 -0.00271778 -0.0345361 0.0147022 0.031455 4.48675e-15 0 1.69495e-06
1537 21 0.001 0.0266607 -0.00298075 -0.0348797 0.00392747 0.0344985 -2.68956e-15 0 1.69495e-06
1538 21 0.001 0.0276269 -0.00293377 -0.0352234 -0.00725564 0.0339548 -1.66218e-15 0 1.69495e-06
253 11 0.001 -0.0559608 -0.000483693 -0.0335052 0.0342671 0.00559816 5.51504e-14 0 1.69495e-06
254 11 0.001 -0.0556529 -0.00140078 -0.0338488 0.030704 0.0162124 2.84499e-17 0 1.69495e-06
543 12 0.001 -0.0359608 -0.000483693 -0.0335052 0.0342671 0.00559816 5.52323e-14 0 1.69495e-06
544 12 0.001 -0.0356529 -0.00140078 -0.0338488 0.030704 0.0162124 4.18549e-16 0 1.69495e-06
873 15 0.001 -0.0159608 -0.000483693 -0.0335052 0.0342671 0.00559816 5.64148e-14 0 1.69495e-06
874 15 0.001 -0.0156529 -0.00140078 -0.0338488 0.030704 0.0162124 -5.13151e-16 0 1.69495e-06
1203 18 0.001 0.00403925 -0.000483693 -0.0335052 0.0342671 0.00559816 5.5917e-14 0 1.69495e-06
1204 18 0.001 0.00434711 -0.00140078 -0.0338488 0.030704 0.0162124 3.16004e-16 0 1.69495e-06
1533 21 0.001 0.0240392 -0.000483693 -0.0335052 0.0342671 0.00559816 5.6467e-14 0 1.69495e-06
1534 21 0.001 0.0243471 -0.00140078 -0.0338488 0.030704 0.0162124 -6.95011e-16 0 1.69495e-06
251 11 0.001 -0.0556529 0.00140078 -0.0328179 0.030704 -0.0162124 -2.40194e-15 0 1.69495e-06
252 11 0.001 -0.0559608 0.000483693 -0.0331615 0.0342671 -0.00559816 -5.46354e-14 0 1.69495e-06
541 12 0.001 -0.0356529 0.00140078 -0.0328179 0.030704 -0.0162124 3.44265e-15 0 1.69495e-06
542 12 0.001 -0.0359608 0.000483693 -0.0331615 0.0342671 -0.00559816 -5.70825e-14 0 1.69495e-06
871 15 0.001 -0.0156529 0.00140078 -0.0328179 0.030704 -0.0162124 -1.06905e-15 0 1.69495e-06
872 15 0.001 -0.0159608 0.000483693 -0.0331615 0.0342671 -0.00559816 -5.51008e-14 0 1.69495e-06
1201 18 0.001 0.00434711 0.00140078 -0.0328179 0.030704 -0.0162124 -8.25791e-17 0 1.69495e-06